 Gaussian 16, Revision A.03,
 Gaussian 16:  ES64L-G16RevA.03 25-Dec-2016

 -----------------------------------
 #p cam-b3lyp/Def2SVP td=(nstates=5)
 -----------------------------------

 -------------------------------------------------------
 step_701_chromophore_17 TDDFT with cam-b3lyp functional
 -------------------------------------------------------
 Symbolic Z-matrix:
 Charge =  0 Multiplicity = 1

                         Standard orientation:
 ---------------------------------------------------------------------
 Center     Atomic      Atomic             Coordinates (Angstroms)
 Number     Number       Type             X           Y           Z
 ---------------------------------------------------------------------
      1         12           0        3.886717    1.627663   -0.625085
      2          6           0        3.445470   -2.026763   -1.076340
      3          6           0        1.191440    1.798345   -2.983935
      4          6           0        3.272825    4.564717    0.438420
      5          6           0        5.770120    0.705760    2.197229
      6          7           0        2.496411    0.093625   -1.849524
      7          6           0        2.514151   -1.243280   -1.772507
      8          6           0        1.448065   -1.905370   -2.712023
      9          6           0        1.196285   -0.713456   -3.717083
     10          6           0        1.596205    0.462442   -2.739775
     11          6           0        2.054246   -0.639392   -4.999762
     12          6           0        0.173358   -2.436178   -1.978468
     13          6           0       -0.426313   -3.792087   -2.398736
     14          6           0       -0.852277   -4.780278   -1.244633
     15          8           0       -0.010344   -5.414240   -0.583885
     16          8           0       -2.224491   -4.831804   -1.158257
     17          7           0        2.512121    3.112442   -1.331510
     18          6           0        1.535897    3.009883   -2.303774
     19          6           0        0.970664    4.312652   -2.423212
     20          6           0        1.577966    5.208111   -1.413685
     21          6           0        2.483204    4.286355   -0.759008
     22          6           0       -0.066136    4.716025   -3.388269
     23          6           0        1.304970    6.608987   -1.102730
     24          8           0        0.455639    7.182015   -1.773036
     25          6           0        1.956934    7.424641   -0.135742
     26          7           0        4.422742    2.507933    1.024588
     27          6           0        4.183741    3.791122    1.171464
     28          6           0        4.880270    4.340599    2.433729
     29          6           0        5.548383    3.127611    3.093755
     30          6           0        5.285040    2.048347    2.022736
     31          6           0        5.789092    5.600327    2.194941
     32          6           0        4.925247    2.683726    4.453874
     33          6           0        5.937901    2.387399    5.617807
     34          7           0        4.735369   -0.285655    0.298679
     35          6           0        5.526398   -0.461411    1.387685
     36          6           0        5.817881   -1.850367    1.540602
     37          6           0        5.076182   -2.526555    0.594823
     38          6           0        4.389951   -1.512715   -0.184698
     39          6           0        6.703345   -2.497688    2.598268
     40          6           0        4.566971   -3.845431    0.154069
     41          8           0        4.790455   -4.997388    0.461915
     42          6           0        3.658244   -3.517477   -0.974399
     43          6           0        4.207914   -3.962337   -2.298637
     44          8           0        5.010012   -3.356961   -2.993502
     45          8           0        3.734430   -5.241636   -2.486507
     46          6           0        3.835031   -5.844233   -3.792145
     47          6           0       -2.724612   -5.691957   -0.105030
     48          6           0       -3.532267   -4.979767    0.895026
     49          6           0       -4.761259   -5.109292    1.421033
     50          6           0       -5.902237   -5.974704    0.954415
     51          6           0       -5.349762   -4.027069    2.318476
     52          6           0       -4.654043   -3.894530    3.671497
     53          6           0       -3.928320   -2.562274    3.706942
     54          6           0       -4.855485   -1.368514    4.182995
     55          6           0       -4.809007   -1.190055    5.751762
     56          6           0       -4.458835   -0.021005    3.443327
     57          6           0       -5.604484    0.771805    2.748345
     58          6           0       -5.722166    0.355700    1.233184
     59          6           0       -7.188982    0.412606    0.665246
     60          6           0       -7.564263   -0.892453   -0.160268
     61          6           0       -7.394580    1.651861   -0.237848
     62          6           0       -8.807671    2.345878   -0.017471
     63          6           0       -9.529467    2.615084   -1.331774
     64          6           0      -10.118045    4.025835   -1.500698
     65          6           0      -11.250831    4.084308   -2.606666
     66          6           0       -9.061563    5.111330   -1.609313
     67          1           0        0.418205    2.051298   -3.712372
     68          1           0        3.290323    5.608495    0.758074
     69          1           0        6.358638    0.416039    3.069619
     70          1           0        1.868318   -2.715693   -3.307226
     71          1           0        0.139692   -0.621946   -3.969437
     72          1           0        2.509689   -1.606537   -5.211599
     73          1           0        2.796007    0.122985   -4.763334
     74          1           0        1.367104   -0.188090   -5.715441
     75          1           0       -0.658656   -1.735735   -2.043861
     76          1           0        0.415377   -2.473474   -0.916573
     77          1           0        0.265959   -4.374629   -3.006384
     78          1           0       -1.277757   -3.605627   -3.053180
     79          1           0        0.258053    4.490206   -4.403654
     80          1           0       -0.408616    5.750317   -3.400338
     81          1           0       -0.913928    4.043046   -3.258628
     82          1           0        1.600973    7.160362    0.860021
     83          1           0        1.587187    8.431055   -0.335453
     84          1           0        3.044268    7.433812   -0.200419
     85          1           0        4.051139    4.554438    3.109062
     86          1           0        6.599658    3.368104    3.250194
     87          1           0        5.674094    6.048059    1.208367
     88          1           0        6.845569    5.398874    2.372605
     89          1           0        5.582674    6.447873    2.848717
     90          1           0        4.317373    1.786672    4.336688
     91          1           0        4.195239    3.371701    4.881348
     92          1           0        5.703850    3.033519    6.464295
     93          1           0        6.957472    2.608705    5.300914
     94          1           0        5.901914    1.347561    5.944669
     95          1           0        7.742097   -2.171168    2.565943
     96          1           0        6.681899   -3.576870    2.450765
     97          1           0        6.417688   -2.222431    3.614016
     98          1           0        2.751871   -4.069071   -0.725699
     99          1           0        2.898046   -6.356378   -4.011337
    100          1           0        4.612392   -6.606620   -3.734308
    101          1           0        3.983709   -5.085734   -4.560581
    102          1           0       -1.986046   -6.270357    0.451117
    103          1           0       -3.244260   -6.395946   -0.754704
    104          1           0       -3.212898   -3.961887    1.120079
    105          1           0       -6.712900   -5.481767    0.418144
    106          1           0       -6.200974   -6.695927    1.715196
    107          1           0       -5.435256   -6.598627    0.191532
    108          1           0       -6.379331   -4.312345    2.532934
    109          1           0       -5.491214   -3.091417    1.776324
    110          1           0       -3.959858   -4.692902    3.933245
    111          1           0       -5.480922   -3.921551    4.379868
    112          1           0       -3.591253   -2.340913    2.694118
    113          1           0       -3.124508   -2.552193    4.443141
    114          1           0       -5.893733   -1.645834    3.998271
    115          1           0       -4.059026   -0.471199    6.084348
    116          1           0       -4.555472   -2.125342    6.250344
    117          1           0       -5.813993   -0.879937    6.039105
    118          1           0       -3.745143   -0.162440    2.631698
    119          1           0       -3.934476    0.672132    4.101311
    120          1           0       -5.349891    1.831781    2.779867
    121          1           0       -6.535082    0.658596    3.303775
    122          1           0       -5.191571   -0.563237    0.982373
    123          1           0       -5.047416    1.084272    0.784421
    124          1           0       -7.880529    0.436814    1.507867
    125          1           0       -7.429360   -0.744130   -1.231984
    126          1           0       -8.606159   -1.044158    0.124310
    127          1           0       -7.007018   -1.767039    0.174409
    128          1           0       -7.317623    1.385721   -1.292465
    129          1           0       -6.638343    2.360933    0.099114
    130          1           0       -8.663453    3.328477    0.431218
    131          1           0       -9.472318    1.781701    0.635829
    132          1           0      -10.417991    1.987446   -1.265569
    133          1           0       -9.085302    2.299550   -2.276845
    134          1           0      -10.613298    4.202452   -0.546350
    135          1           0      -11.082453    4.782784   -3.426396
    136          1           0      -12.218908    4.292149   -2.150565
    137          1           0      -11.254867    3.169218   -3.198539
    138          1           0       -8.949314    5.683047   -0.688893
    139          1           0       -9.270814    5.787618   -2.438063
    140          1           0       -8.141970    4.552176   -1.785614
 ---------------------------------------------------------------------

 SCF Done:  E(RCAM-B3LYP) =  -3007.12791510     A.U. after   17 cycles

 Excitation energies and oscillator strengths:

 Excited State   1:      Singlet-A      1.7402 eV  712.46 nm  f=0.3963  <S**2>=0.000
     245 -> 248       -0.18417
     246 -> 247        0.68491
     245 <- 248       -0.10691
 This state for optimization and/or second-order correction.
 Total Energy, E(TD-HF/TD-DFT) =  -3007.06396307
 Copying the excited state density for this state as the 1-particle RhoCI density.

 Excited State   2:      Singlet-A      2.2021 eV  563.02 nm  f=0.1279  <S**2>=0.000
     245 -> 247        0.65133
     246 -> 248        0.26137

 Excited State   3:      Singlet-A      3.1458 eV  394.13 nm  f=0.0080  <S**2>=0.000
     244 -> 247        0.68353

 Excited State   4:      Singlet-A      3.4251 eV  361.98 nm  f=0.0068  <S**2>=0.000
     241 -> 247       -0.23335
     241 -> 251        0.12300
     243 -> 247        0.58234
     246 -> 248       -0.21941

 Excited State   5:      Singlet-A      3.4468 eV  359.71 nm  f=0.0023  <S**2>=0.000
     241 -> 247        0.46227
     241 -> 249       -0.18192
     241 -> 251       -0.22610
     242 -> 247       -0.24480
     242 -> 251        0.10129
     243 -> 247        0.26045
     246 -> 248       -0.13042

 The electronic state is 1-A.
 Alpha  occ. eigenvalues --  -46.90760 -19.26456 -19.24516 -19.20647 -19.20392
 Alpha  occ. eigenvalues --  -19.19096 -19.16833 -14.42766 -14.42126 -14.39109
 Alpha  occ. eigenvalues --  -14.38993 -10.40469 -10.39612 -10.34881 -10.33193
 Alpha  occ. eigenvalues --  -10.32121 -10.32088 -10.31538 -10.31067 -10.31059
 Alpha  occ. eigenvalues --  -10.30892 -10.29996 -10.29543 -10.29349 -10.28479
 Alpha  occ. eigenvalues --  -10.28419 -10.28116 -10.28112 -10.28071 -10.27970
 Alpha  occ. eigenvalues --  -10.27954 -10.27913 -10.27776 -10.27686 -10.27544
 Alpha  occ. eigenvalues --  -10.27321 -10.27241 -10.27134 -10.26683 -10.26588
 Alpha  occ. eigenvalues --  -10.26261 -10.26242 -10.26162 -10.25853 -10.25834
 Alpha  occ. eigenvalues --  -10.25832 -10.25816 -10.25789 -10.25687 -10.25353
 Alpha  occ. eigenvalues --  -10.25188 -10.25148 -10.25084 -10.24953 -10.24850
 Alpha  occ. eigenvalues --  -10.24844 -10.24751 -10.24743 -10.24660 -10.24655
 Alpha  occ. eigenvalues --  -10.24642 -10.24597 -10.24563 -10.24368 -10.24053
 Alpha  occ. eigenvalues --  -10.23809  -3.19184  -1.94030  -1.93688  -1.93446
 Alpha  occ. eigenvalues --   -1.16767  -1.16061  -1.10447  -1.09248  -1.08348
 Alpha  occ. eigenvalues --   -1.08157  -1.05464  -1.04836  -1.03637  -1.03103
 Alpha  occ. eigenvalues --   -0.93328  -0.90948  -0.89311  -0.89274  -0.89183
 Alpha  occ. eigenvalues --   -0.88223  -0.88084  -0.87066  -0.86961  -0.86099
 Alpha  occ. eigenvalues --   -0.85766  -0.85436  -0.84469  -0.83778  -0.83391
 Alpha  occ. eigenvalues --   -0.82557  -0.82362  -0.81245  -0.80783  -0.80627
 Alpha  occ. eigenvalues --   -0.79779  -0.78073  -0.77811  -0.77279  -0.76102
 Alpha  occ. eigenvalues --   -0.75451  -0.75406  -0.75171  -0.74607  -0.73963
 Alpha  occ. eigenvalues --   -0.73514  -0.72769  -0.71565  -0.70462  -0.69439
 Alpha  occ. eigenvalues --   -0.68762  -0.68527  -0.67191  -0.66862  -0.66131
 Alpha  occ. eigenvalues --   -0.65659  -0.64992  -0.64679  -0.64349  -0.64236
 Alpha  occ. eigenvalues --   -0.63675  -0.62805  -0.62519  -0.62223  -0.60499
 Alpha  occ. eigenvalues --   -0.60446  -0.59759  -0.59408  -0.59304  -0.58487
 Alpha  occ. eigenvalues --   -0.57708  -0.57097  -0.56236  -0.55935  -0.55651
 Alpha  occ. eigenvalues --   -0.55556  -0.55245  -0.54711  -0.54165  -0.53896
 Alpha  occ. eigenvalues --   -0.53709  -0.53314  -0.53111  -0.53041  -0.52636
 Alpha  occ. eigenvalues --   -0.52592  -0.52350  -0.51865  -0.51769  -0.51663
 Alpha  occ. eigenvalues --   -0.51528  -0.51162  -0.51077  -0.50799  -0.50658
 Alpha  occ. eigenvalues --   -0.50523  -0.50383  -0.50212  -0.49777  -0.49550
 Alpha  occ. eigenvalues --   -0.49495  -0.49120  -0.49049  -0.48937  -0.48525
 Alpha  occ. eigenvalues --   -0.48305  -0.48041  -0.47701  -0.47553  -0.47230
 Alpha  occ. eigenvalues --   -0.47025  -0.46743  -0.46410  -0.46292  -0.46224
 Alpha  occ. eigenvalues --   -0.46149  -0.46055  -0.45901  -0.45796  -0.45673
 Alpha  occ. eigenvalues --   -0.45539  -0.45483  -0.45214  -0.45130  -0.44975
 Alpha  occ. eigenvalues --   -0.44717  -0.44551  -0.44432  -0.44242  -0.44230
 Alpha  occ. eigenvalues --   -0.43864  -0.43752  -0.43419  -0.43122  -0.42823
 Alpha  occ. eigenvalues --   -0.42743  -0.42587  -0.42220  -0.42080  -0.41930
 Alpha  occ. eigenvalues --   -0.41590  -0.41515  -0.41505  -0.41304  -0.41105
 Alpha  occ. eigenvalues --   -0.40843  -0.40647  -0.40456  -0.40251  -0.39998
 Alpha  occ. eigenvalues --   -0.39855  -0.39525  -0.39221  -0.39142  -0.39057
 Alpha  occ. eigenvalues --   -0.38764  -0.38070  -0.37425  -0.37315  -0.37065
 Alpha  occ. eigenvalues --   -0.36918  -0.36851  -0.36413  -0.36395  -0.36114
 Alpha  occ. eigenvalues --   -0.36007  -0.35550  -0.34769  -0.34716  -0.34352
 Alpha  occ. eigenvalues --   -0.34199  -0.34033  -0.33076  -0.31360  -0.30982
 Alpha  occ. eigenvalues --   -0.29968  -0.29966  -0.29804  -0.28674  -0.23918
 Alpha  occ. eigenvalues --   -0.21411
 Alpha virt. eigenvalues --   -0.08831  -0.01489   0.00084   0.00702   0.02490
 Alpha virt. eigenvalues --    0.03680   0.04820   0.05223   0.05697   0.07072
 Alpha virt. eigenvalues --    0.08040   0.08571   0.08820   0.08916   0.09122

 Mulliken charges:
               1
     1  Mg   0.857398
     2  C   -0.023937
     3  C   -0.036218
     4  C   -0.065851
     5  C   -0.057703
     6  N   -0.160393
     7  C   -0.043756
     8  C   -0.064461
     9  C   -0.094748
    10  C   -0.003232
    11  C    0.121602
    12  C    0.084856
    13  C    0.064773
    14  C    0.162387
    15  O   -0.240912
    16  O   -0.321097
    17  N   -0.335877
    18  C    0.062085
    19  C   -0.122868
    20  C    0.005633
    21  C    0.116063
    22  C    0.107426
    23  C   -0.057615
    24  O   -0.222677
    25  C    0.089700
    26  N   -0.395580
    27  C    0.048124
    28  C   -0.004648
    29  C   -0.024701
    30  C    0.088954
    31  C    0.060211
    32  C    0.015870
    33  C   -0.012525
    34  N   -0.290229
    35  C    0.055002
    36  C   -0.167063
    37  C   -0.033253
    38  C    0.092539
    39  C    0.109590
    40  C    0.080386
    41  O   -0.143171
    42  C    0.019271
    43  C    0.202339
    44  O   -0.206628
    45  O   -0.323182
    46  C    0.175175
    47  C    0.284534
    48  C   -0.072722
    49  C   -0.212633
    50  C    0.093486
    51  C    0.035088
    52  C    0.051716
    53  C    0.043432
    54  C   -0.123971
    55  C    0.041232
    56  C    0.048614
    57  C    0.001106
    58  C    0.025243
    59  C   -0.134898
    60  C    0.045413
    61  C    0.070199
    62  C    0.032441
    63  C    0.013920
    64  C   -0.175229
    65  C    0.041006
    66  C    0.066463
    67  H   -0.031373
    68  H   -0.063284
    69  H   -0.034648
    70  H    0.001624
    71  H   -0.007561
    72  H    0.031840
    73  H    0.021779
    74  H    0.020425
    75  H    0.013309
    76  H    0.020742
    77  H    0.022220
    78  H    0.016152
    79  H    0.007995
    80  H    0.045816
    81  H    0.011595
    82  H    0.036396
    83  H    0.022445
    84  H    0.039087
    85  H    0.012993
    86  H    0.010507
    87  H    0.020315
    88  H    0.013642
    89  H    0.011149
    90  H    0.018871
    91  H    0.006878
    92  H    0.017284
    93  H    0.011091
    94  H    0.023311
    95  H    0.016494
    96  H    0.037657
    97  H    0.016340
    98  H    0.047608
    99  H    0.030015
   100  H    0.044240
   101  H    0.036498
   102  H    0.050960
   103  H    0.018803
   104  H   -0.005563
   105  H    0.042191
   106  H    0.021766
   107  H   -0.024489
   108  H   -0.018447
   109  H    0.027826
   110  H    0.008140
   111  H   -0.007940
   112  H    0.000407
   113  H   -0.007443
   114  H   -0.009430
   115  H    0.012443
   116  H    0.005021
   117  H    0.011469
   118  H   -0.011562
   119  H   -0.014295
   120  H   -0.004083
   121  H   -0.003134
   122  H   -0.008748
   123  H   -0.007844
   124  H    0.000490
   125  H    0.013096
   126  H    0.006673
   127  H    0.001889
   128  H    0.005585
   129  H    0.001106
   130  H   -0.005701
   131  H    0.001299
   132  H   -0.016001
   133  H   -0.002361
   134  H   -0.011239
   135  H   -0.002625
   136  H    0.020384
   137  H   -0.002255
   138  H    0.012669
   139  H    0.008049
   140  H    0.001944
 Sum of Mulliken charges =  -0.00000

 Dipole moment (field-independent basis, Debye):
    X=             -1.6070    Y=              0.9926    Z=              0.7685  Tot=              2.0392
 Quadrupole moment (field-independent basis, Debye-Ang):
   XX=           -390.7874   YY=           -432.2866   ZZ=           -381.1672
   XY=             46.7771   XZ=              8.6883   YZ=             31.4576

 Normal termination of Gaussian 16 at Thu May  5 05:34:14 2022.
