 Gaussian 16, Revision A.03,
 Gaussian 16:  ES64L-G16RevA.03 25-Dec-2016

 ---------------------------------
 #p PBE1PBE/Def2SVP td=(nstates=5)
 ---------------------------------

 -----------------------------------------------------
 step_701_chromophore_17 TDDFT with PBE1PBE functional
 -----------------------------------------------------
 Symbolic Z-matrix:
 Charge =  0 Multiplicity = 1

                         Standard orientation:
 ---------------------------------------------------------------------
 Center     Atomic      Atomic             Coordinates (Angstroms)
 Number     Number       Type             X           Y           Z
 ---------------------------------------------------------------------
      1         12           0        3.886717    1.627663   -0.625085
      2          6           0        3.445470   -2.026763   -1.076340
      3          6           0        1.191440    1.798345   -2.983935
      4          6           0        3.272825    4.564717    0.438420
      5          6           0        5.770120    0.705760    2.197229
      6          7           0        2.496411    0.093625   -1.849524
      7          6           0        2.514151   -1.243280   -1.772507
      8          6           0        1.448065   -1.905370   -2.712023
      9          6           0        1.196285   -0.713456   -3.717083
     10          6           0        1.596205    0.462442   -2.739775
     11          6           0        2.054246   -0.639392   -4.999762
     12          6           0        0.173358   -2.436178   -1.978468
     13          6           0       -0.426313   -3.792087   -2.398736
     14          6           0       -0.852277   -4.780278   -1.244633
     15          8           0       -0.010344   -5.414240   -0.583885
     16          8           0       -2.224491   -4.831804   -1.158257
     17          7           0        2.512121    3.112442   -1.331510
     18          6           0        1.535897    3.009883   -2.303774
     19          6           0        0.970664    4.312652   -2.423212
     20          6           0        1.577966    5.208111   -1.413685
     21          6           0        2.483204    4.286355   -0.759008
     22          6           0       -0.066136    4.716025   -3.388269
     23          6           0        1.304970    6.608987   -1.102730
     24          8           0        0.455639    7.182015   -1.773036
     25          6           0        1.956934    7.424641   -0.135742
     26          7           0        4.422742    2.507933    1.024588
     27          6           0        4.183741    3.791122    1.171464
     28          6           0        4.880270    4.340599    2.433729
     29          6           0        5.548383    3.127611    3.093755
     30          6           0        5.285040    2.048347    2.022736
     31          6           0        5.789092    5.600327    2.194941
     32          6           0        4.925247    2.683726    4.453874
     33          6           0        5.937901    2.387399    5.617807
     34          7           0        4.735369   -0.285655    0.298679
     35          6           0        5.526398   -0.461411    1.387685
     36          6           0        5.817881   -1.850367    1.540602
     37          6           0        5.076182   -2.526555    0.594823
     38          6           0        4.389951   -1.512715   -0.184698
     39          6           0        6.703345   -2.497688    2.598268
     40          6           0        4.566971   -3.845431    0.154069
     41          8           0        4.790455   -4.997388    0.461915
     42          6           0        3.658244   -3.517477   -0.974399
     43          6           0        4.207914   -3.962337   -2.298637
     44          8           0        5.010012   -3.356961   -2.993502
     45          8           0        3.734430   -5.241636   -2.486507
     46          6           0        3.835031   -5.844233   -3.792145
     47          6           0       -2.724612   -5.691957   -0.105030
     48          6           0       -3.532267   -4.979767    0.895026
     49          6           0       -4.761259   -5.109292    1.421033
     50          6           0       -5.902237   -5.974704    0.954415
     51          6           0       -5.349762   -4.027069    2.318476
     52          6           0       -4.654043   -3.894530    3.671497
     53          6           0       -3.928320   -2.562274    3.706942
     54          6           0       -4.855485   -1.368514    4.182995
     55          6           0       -4.809007   -1.190055    5.751762
     56          6           0       -4.458835   -0.021005    3.443327
     57          6           0       -5.604484    0.771805    2.748345
     58          6           0       -5.722166    0.355700    1.233184
     59          6           0       -7.188982    0.412606    0.665246
     60          6           0       -7.564263   -0.892453   -0.160268
     61          6           0       -7.394580    1.651861   -0.237848
     62          6           0       -8.807671    2.345878   -0.017471
     63          6           0       -9.529467    2.615084   -1.331774
     64          6           0      -10.118045    4.025835   -1.500698
     65          6           0      -11.250831    4.084308   -2.606666
     66          6           0       -9.061563    5.111330   -1.609313
     67          1           0        0.418205    2.051298   -3.712372
     68          1           0        3.290323    5.608495    0.758074
     69          1           0        6.358638    0.416039    3.069619
     70          1           0        1.868318   -2.715693   -3.307226
     71          1           0        0.139692   -0.621946   -3.969437
     72          1           0        2.509689   -1.606537   -5.211599
     73          1           0        2.796007    0.122985   -4.763334
     74          1           0        1.367104   -0.188090   -5.715441
     75          1           0       -0.658656   -1.735735   -2.043861
     76          1           0        0.415377   -2.473474   -0.916573
     77          1           0        0.265959   -4.374629   -3.006384
     78          1           0       -1.277757   -3.605627   -3.053180
     79          1           0        0.258053    4.490206   -4.403654
     80          1           0       -0.408616    5.750317   -3.400338
     81          1           0       -0.913928    4.043046   -3.258628
     82          1           0        1.600973    7.160362    0.860021
     83          1           0        1.587187    8.431055   -0.335453
     84          1           0        3.044268    7.433812   -0.200419
     85          1           0        4.051139    4.554438    3.109062
     86          1           0        6.599658    3.368104    3.250194
     87          1           0        5.674094    6.048059    1.208367
     88          1           0        6.845569    5.398874    2.372605
     89          1           0        5.582674    6.447873    2.848717
     90          1           0        4.317373    1.786672    4.336688
     91          1           0        4.195239    3.371701    4.881348
     92          1           0        5.703850    3.033519    6.464295
     93          1           0        6.957472    2.608705    5.300914
     94          1           0        5.901914    1.347561    5.944669
     95          1           0        7.742097   -2.171168    2.565943
     96          1           0        6.681899   -3.576870    2.450765
     97          1           0        6.417688   -2.222431    3.614016
     98          1           0        2.751871   -4.069071   -0.725699
     99          1           0        2.898046   -6.356378   -4.011337
    100          1           0        4.612392   -6.606620   -3.734308
    101          1           0        3.983709   -5.085734   -4.560581
    102          1           0       -1.986046   -6.270357    0.451117
    103          1           0       -3.244260   -6.395946   -0.754704
    104          1           0       -3.212898   -3.961887    1.120079
    105          1           0       -6.712900   -5.481767    0.418144
    106          1           0       -6.200974   -6.695927    1.715196
    107          1           0       -5.435256   -6.598627    0.191532
    108          1           0       -6.379331   -4.312345    2.532934
    109          1           0       -5.491214   -3.091417    1.776324
    110          1           0       -3.959858   -4.692902    3.933245
    111          1           0       -5.480922   -3.921551    4.379868
    112          1           0       -3.591253   -2.340913    2.694118
    113          1           0       -3.124508   -2.552193    4.443141
    114          1           0       -5.893733   -1.645834    3.998271
    115          1           0       -4.059026   -0.471199    6.084348
    116          1           0       -4.555472   -2.125342    6.250344
    117          1           0       -5.813993   -0.879937    6.039105
    118          1           0       -3.745143   -0.162440    2.631698
    119          1           0       -3.934476    0.672132    4.101311
    120          1           0       -5.349891    1.831781    2.779867
    121          1           0       -6.535082    0.658596    3.303775
    122          1           0       -5.191571   -0.563237    0.982373
    123          1           0       -5.047416    1.084272    0.784421
    124          1           0       -7.880529    0.436814    1.507867
    125          1           0       -7.429360   -0.744130   -1.231984
    126          1           0       -8.606159   -1.044158    0.124310
    127          1           0       -7.007018   -1.767039    0.174409
    128          1           0       -7.317623    1.385721   -1.292465
    129          1           0       -6.638343    2.360933    0.099114
    130          1           0       -8.663453    3.328477    0.431218
    131          1           0       -9.472318    1.781701    0.635829
    132          1           0      -10.417991    1.987446   -1.265569
    133          1           0       -9.085302    2.299550   -2.276845
    134          1           0      -10.613298    4.202452   -0.546350
    135          1           0      -11.082453    4.782784   -3.426396
    136          1           0      -12.218908    4.292149   -2.150565
    137          1           0      -11.254867    3.169218   -3.198539
    138          1           0       -8.949314    5.683047   -0.688893
    139          1           0       -9.270814    5.787618   -2.438063
    140          1           0       -8.141970    4.552176   -1.785614
 ---------------------------------------------------------------------

 SCF Done:  E(RPBE1PBE) =  -3005.31876491     A.U. after   15 cycles

 Excitation energies and oscillator strengths:

 Excited State   1:      Singlet-A      1.8954 eV  654.14 nm  f=0.3825  <S**2>=0.000
     245 -> 248       -0.17947
     246 -> 247        0.69180
     246 <- 247       -0.10682
 This state for optimization and/or second-order correction.
 Total Energy, E(TD-HF/TD-DFT) =  -3005.24911151
 Copying the excited state density for this state as the 1-particle RhoCI density.

 Excited State   2:      Singlet-A      2.1914 eV  565.78 nm  f=0.1176  <S**2>=0.000
     245 -> 247        0.66000
     246 -> 248        0.23769

 Excited State   3:      Singlet-A      2.7684 eV  447.86 nm  f=0.0051  <S**2>=0.000
     243 -> 247       -0.24728
     244 -> 247        0.64322

 Excited State   4:      Singlet-A      2.8555 eV  434.20 nm  f=0.0034  <S**2>=0.000
     243 -> 247        0.63398
     244 -> 247        0.26312

 Excited State   5:      Singlet-A      3.0411 eV  407.69 nm  f=0.0007  <S**2>=0.000
     240 -> 247        0.63084
     240 -> 249        0.17476
     241 -> 247       -0.22911

 The electronic state is 1-A.
 Alpha  occ. eigenvalues --  -46.94159 -19.27165 -19.25127 -19.20929 -19.20544
 Alpha  occ. eigenvalues --  -19.19211 -19.17135 -14.42015 -14.41814 -14.38756
 Alpha  occ. eigenvalues --  -14.38580 -10.37509 -10.36556 -10.31919 -10.30333
 Alpha  occ. eigenvalues --  -10.29855 -10.29493 -10.28790 -10.28762 -10.28700
 Alpha  occ. eigenvalues --  -10.28665 -10.27626 -10.27179 -10.27126 -10.26250
 Alpha  occ. eigenvalues --  -10.26118 -10.25985 -10.25846 -10.25813 -10.25745
 Alpha  occ. eigenvalues --  -10.25560 -10.25368 -10.25367 -10.25209 -10.25116
 Alpha  occ. eigenvalues --  -10.25104 -10.24760 -10.24757 -10.24285 -10.24208
 Alpha  occ. eigenvalues --  -10.24165 -10.23876 -10.23688 -10.23661 -10.23500
 Alpha  occ. eigenvalues --  -10.23338 -10.23296 -10.23270 -10.23047 -10.22992
 Alpha  occ. eigenvalues --  -10.22841 -10.22639 -10.22504 -10.22487 -10.22410
 Alpha  occ. eigenvalues --  -10.22383 -10.22313 -10.22282 -10.22236 -10.22150
 Alpha  occ. eigenvalues --  -10.22053 -10.22037 -10.22008 -10.21767 -10.21596
 Alpha  occ. eigenvalues --  -10.21160  -3.16164  -1.88946  -1.88589  -1.88346
 Alpha  occ. eigenvalues --   -1.11593  -1.10758  -1.05105  -1.04035  -1.03098
 Alpha  occ. eigenvalues --   -1.02994  -1.00021  -0.99515  -0.98356  -0.97778
 Alpha  occ. eigenvalues --   -0.87609  -0.85066  -0.83646  -0.83409  -0.83276
 Alpha  occ. eigenvalues --   -0.82409  -0.82305  -0.81314  -0.81131  -0.80419
 Alpha  occ. eigenvalues --   -0.80018  -0.79707  -0.78670  -0.77989  -0.77642
 Alpha  occ. eigenvalues --   -0.76739  -0.76628  -0.75437  -0.75046  -0.74993
 Alpha  occ. eigenvalues --   -0.73908  -0.72293  -0.72136  -0.71599  -0.70395
 Alpha  occ. eigenvalues --   -0.69754  -0.69474  -0.69435  -0.68713  -0.68187
 Alpha  occ. eigenvalues --   -0.67726  -0.67183  -0.66020  -0.64732  -0.63836
 Alpha  occ. eigenvalues --   -0.63219  -0.62720  -0.61673  -0.61070  -0.60557
 Alpha  occ. eigenvalues --   -0.60053  -0.59376  -0.59245  -0.58873  -0.58564
 Alpha  occ. eigenvalues --   -0.57785  -0.57033  -0.56966  -0.56415  -0.55005
 Alpha  occ. eigenvalues --   -0.54775  -0.54291  -0.53951  -0.53903  -0.52948
 Alpha  occ. eigenvalues --   -0.52265  -0.51524  -0.50783  -0.50409  -0.50227
 Alpha  occ. eigenvalues --   -0.50004  -0.49766  -0.49264  -0.48754  -0.48420
 Alpha  occ. eigenvalues --   -0.48078  -0.47945  -0.47613  -0.47570  -0.47194
 Alpha  occ. eigenvalues --   -0.47042  -0.46797  -0.46373  -0.46292  -0.46244
 Alpha  occ. eigenvalues --   -0.46062  -0.45726  -0.45598  -0.45313  -0.45114
 Alpha  occ. eigenvalues --   -0.45054  -0.44980  -0.44756  -0.44319  -0.44118
 Alpha  occ. eigenvalues --   -0.44039  -0.43680  -0.43554  -0.43487  -0.43182
 Alpha  occ. eigenvalues --   -0.43004  -0.42608  -0.42386  -0.42211  -0.41875
 Alpha  occ. eigenvalues --   -0.41674  -0.41433  -0.41089  -0.40990  -0.40859
 Alpha  occ. eigenvalues --   -0.40772  -0.40734  -0.40595  -0.40504  -0.40318
 Alpha  occ. eigenvalues --   -0.40226  -0.40078  -0.39823  -0.39795  -0.39652
 Alpha  occ. eigenvalues --   -0.39510  -0.39263  -0.39229  -0.38980  -0.38933
 Alpha  occ. eigenvalues --   -0.38610  -0.38446  -0.38180  -0.37832  -0.37643
 Alpha  occ. eigenvalues --   -0.37445  -0.37420  -0.37097  -0.36920  -0.36799
 Alpha  occ. eigenvalues --   -0.36403  -0.36271  -0.36237  -0.36102  -0.35961
 Alpha  occ. eigenvalues --   -0.35673  -0.35470  -0.35368  -0.35114  -0.34922
 Alpha  occ. eigenvalues --   -0.34644  -0.34407  -0.34073  -0.33968  -0.33846
 Alpha  occ. eigenvalues --   -0.33566  -0.32894  -0.32326  -0.32147  -0.32112
 Alpha  occ. eigenvalues --   -0.31957  -0.31641  -0.31440  -0.31218  -0.31003
 Alpha  occ. eigenvalues --   -0.30855  -0.30386  -0.29659  -0.29527  -0.29341
 Alpha  occ. eigenvalues --   -0.29157  -0.29001  -0.28701  -0.26929  -0.25867
 Alpha  occ. eigenvalues --   -0.25408  -0.25216  -0.24722  -0.24302  -0.20857
 Alpha  occ. eigenvalues --   -0.19002
 Alpha virt. eigenvalues --   -0.11272  -0.05003  -0.03951  -0.02302  -0.01843
 Alpha virt. eigenvalues --   -0.00862   0.00426   0.00720   0.01406   0.03376
 Alpha virt. eigenvalues --    0.04028   0.05062   0.05186   0.05553   0.05713

 Mulliken charges:
               1
     1  Mg   0.989473
     2  C   -0.049338
     3  C   -0.032240
     4  C   -0.052041
     5  C   -0.051778
     6  N   -0.263996
     7  C    0.028670
     8  C   -0.139918
     9  C   -0.164308
    10  C    0.031215
    11  C    0.063785
    12  C    0.043559
    13  C   -0.010811
    14  C    0.224634
    15  O   -0.271682
    16  O   -0.349698
    17  N   -0.453787
    18  C    0.092651
    19  C   -0.156437
    20  C   -0.040671
    21  C    0.151532
    22  C    0.051641
    23  C   -0.009171
    24  O   -0.257873
    25  C    0.010196
    26  N   -0.502578
    27  C    0.084178
    28  C   -0.082143
    29  C   -0.097749
    30  C    0.113164
    31  C    0.001451
    32  C   -0.038451
    33  C   -0.084270
    34  N   -0.408634
    35  C    0.083485
    36  C   -0.190163
    37  C   -0.081064
    38  C    0.164912
    39  C    0.060236
    40  C    0.170002
    41  O   -0.191618
    42  C   -0.089205
    43  C    0.292999
    44  O   -0.241182
    45  O   -0.356550
    46  C    0.122806
    47  C    0.243734
    48  C   -0.093710
    49  C   -0.245640
    50  C    0.021696
    51  C   -0.038500
    52  C   -0.009210
    53  C   -0.021256
    54  C   -0.202492
    55  C   -0.017498
    56  C   -0.004228
    57  C   -0.061825
    58  C   -0.027249
    59  C   -0.219900
    60  C   -0.017433
    61  C    0.013466
    62  C   -0.026202
    63  C   -0.046929
    64  C   -0.265089
    65  C   -0.019055
    66  C    0.004549
    67  H   -0.000893
    68  H   -0.025279
    69  H    0.000828
    70  H    0.043419
    71  H    0.028501
    72  H    0.058386
    73  H    0.051372
    74  H    0.048102
    75  H    0.044422
    76  H    0.053552
    77  H    0.054031
    78  H    0.048039
    79  H    0.036843
    80  H    0.072419
    81  H    0.040336
    82  H    0.064072
    83  H    0.051228
    84  H    0.064799
    85  H    0.051092
    86  H    0.046596
    87  H    0.046851
    88  H    0.040659
    89  H    0.038901
    90  H    0.051771
    91  H    0.038667
    92  H    0.045194
    93  H    0.038046
    94  H    0.050130
    95  H    0.044329
    96  H    0.065092
    97  H    0.043272
    98  H    0.085978
    99  H    0.051436
   100  H    0.066013
   101  H    0.056411
   102  H    0.077941
   103  H    0.045559
   104  H    0.028245
   105  H    0.068920
   106  H    0.050885
   107  H    0.006387
   108  H    0.015164
   109  H    0.067815
   110  H    0.040176
   111  H    0.025325
   112  H    0.034255
   113  H    0.026142
   114  H    0.027595
   115  H    0.038958
   116  H    0.032513
   117  H    0.039354
   118  H    0.020616
   119  H    0.017996
   120  H    0.028961
   121  H    0.028285
   122  H    0.022920
   123  H    0.024846
   124  H    0.037215
   125  H    0.039421
   126  H    0.034754
   127  H    0.033605
   128  H    0.036719
   129  H    0.034826
   130  H    0.028088
   131  H    0.032266
   132  H    0.019642
   133  H    0.028975
   134  H    0.028391
   135  H    0.024179
   136  H    0.047188
   137  H    0.024610
   138  H    0.039167
   139  H    0.035455
   140  H    0.031561
 Sum of Mulliken charges =  -0.00000

 Dipole moment (field-independent basis, Debye):
    X=             -1.5658    Y=              1.2157    Z=              0.9090  Tot=              2.1808
 Quadrupole moment (field-independent basis, Debye-Ang):
   XX=           -386.8865   YY=           -429.1045   ZZ=           -377.0749
   XY=             47.7942   XZ=             10.1875   YZ=             31.9654

 Normal termination of Gaussian 16 at Thu May  5 05:54:02 2022.
