 Gaussian 16, Revision A.03,
 Gaussian 16:  ES64L-G16RevA.03 25-Dec-2016

 --------------------------------
 #p wB97XD/Def2SVP td=(nstates=5)
 --------------------------------

 ----------------------------------------------------
 step_701_chromophore_17 TDDFT with wB97XD functional
 ----------------------------------------------------
 Symbolic Z-matrix:
 Charge =  0 Multiplicity = 1

                         Standard orientation:
 ---------------------------------------------------------------------
 Center     Atomic      Atomic             Coordinates (Angstroms)
 Number     Number       Type             X           Y           Z
 ---------------------------------------------------------------------
      1         12           0        3.886717    1.627663   -0.625085
      2          6           0        3.445470   -2.026763   -1.076340
      3          6           0        1.191440    1.798345   -2.983935
      4          6           0        3.272825    4.564717    0.438420
      5          6           0        5.770120    0.705760    2.197229
      6          7           0        2.496411    0.093625   -1.849524
      7          6           0        2.514151   -1.243280   -1.772507
      8          6           0        1.448065   -1.905370   -2.712023
      9          6           0        1.196285   -0.713456   -3.717083
     10          6           0        1.596205    0.462442   -2.739775
     11          6           0        2.054246   -0.639392   -4.999762
     12          6           0        0.173358   -2.436178   -1.978468
     13          6           0       -0.426313   -3.792087   -2.398736
     14          6           0       -0.852277   -4.780278   -1.244633
     15          8           0       -0.010344   -5.414240   -0.583885
     16          8           0       -2.224491   -4.831804   -1.158257
     17          7           0        2.512121    3.112442   -1.331510
     18          6           0        1.535897    3.009883   -2.303774
     19          6           0        0.970664    4.312652   -2.423212
     20          6           0        1.577966    5.208111   -1.413685
     21          6           0        2.483204    4.286355   -0.759008
     22          6           0       -0.066136    4.716025   -3.388269
     23          6           0        1.304970    6.608987   -1.102730
     24          8           0        0.455639    7.182015   -1.773036
     25          6           0        1.956934    7.424641   -0.135742
     26          7           0        4.422742    2.507933    1.024588
     27          6           0        4.183741    3.791122    1.171464
     28          6           0        4.880270    4.340599    2.433729
     29          6           0        5.548383    3.127611    3.093755
     30          6           0        5.285040    2.048347    2.022736
     31          6           0        5.789092    5.600327    2.194941
     32          6           0        4.925247    2.683726    4.453874
     33          6           0        5.937901    2.387399    5.617807
     34          7           0        4.735369   -0.285655    0.298679
     35          6           0        5.526398   -0.461411    1.387685
     36          6           0        5.817881   -1.850367    1.540602
     37          6           0        5.076182   -2.526555    0.594823
     38          6           0        4.389951   -1.512715   -0.184698
     39          6           0        6.703345   -2.497688    2.598268
     40          6           0        4.566971   -3.845431    0.154069
     41          8           0        4.790455   -4.997388    0.461915
     42          6           0        3.658244   -3.517477   -0.974399
     43          6           0        4.207914   -3.962337   -2.298637
     44          8           0        5.010012   -3.356961   -2.993502
     45          8           0        3.734430   -5.241636   -2.486507
     46          6           0        3.835031   -5.844233   -3.792145
     47          6           0       -2.724612   -5.691957   -0.105030
     48          6           0       -3.532267   -4.979767    0.895026
     49          6           0       -4.761259   -5.109292    1.421033
     50          6           0       -5.902237   -5.974704    0.954415
     51          6           0       -5.349762   -4.027069    2.318476
     52          6           0       -4.654043   -3.894530    3.671497
     53          6           0       -3.928320   -2.562274    3.706942
     54          6           0       -4.855485   -1.368514    4.182995
     55          6           0       -4.809007   -1.190055    5.751762
     56          6           0       -4.458835   -0.021005    3.443327
     57          6           0       -5.604484    0.771805    2.748345
     58          6           0       -5.722166    0.355700    1.233184
     59          6           0       -7.188982    0.412606    0.665246
     60          6           0       -7.564263   -0.892453   -0.160268
     61          6           0       -7.394580    1.651861   -0.237848
     62          6           0       -8.807671    2.345878   -0.017471
     63          6           0       -9.529467    2.615084   -1.331774
     64          6           0      -10.118045    4.025835   -1.500698
     65          6           0      -11.250831    4.084308   -2.606666
     66          6           0       -9.061563    5.111330   -1.609313
     67          1           0        0.418205    2.051298   -3.712372
     68          1           0        3.290323    5.608495    0.758074
     69          1           0        6.358638    0.416039    3.069619
     70          1           0        1.868318   -2.715693   -3.307226
     71          1           0        0.139692   -0.621946   -3.969437
     72          1           0        2.509689   -1.606537   -5.211599
     73          1           0        2.796007    0.122985   -4.763334
     74          1           0        1.367104   -0.188090   -5.715441
     75          1           0       -0.658656   -1.735735   -2.043861
     76          1           0        0.415377   -2.473474   -0.916573
     77          1           0        0.265959   -4.374629   -3.006384
     78          1           0       -1.277757   -3.605627   -3.053180
     79          1           0        0.258053    4.490206   -4.403654
     80          1           0       -0.408616    5.750317   -3.400338
     81          1           0       -0.913928    4.043046   -3.258628
     82          1           0        1.600973    7.160362    0.860021
     83          1           0        1.587187    8.431055   -0.335453
     84          1           0        3.044268    7.433812   -0.200419
     85          1           0        4.051139    4.554438    3.109062
     86          1           0        6.599658    3.368104    3.250194
     87          1           0        5.674094    6.048059    1.208367
     88          1           0        6.845569    5.398874    2.372605
     89          1           0        5.582674    6.447873    2.848717
     90          1           0        4.317373    1.786672    4.336688
     91          1           0        4.195239    3.371701    4.881348
     92          1           0        5.703850    3.033519    6.464295
     93          1           0        6.957472    2.608705    5.300914
     94          1           0        5.901914    1.347561    5.944669
     95          1           0        7.742097   -2.171168    2.565943
     96          1           0        6.681899   -3.576870    2.450765
     97          1           0        6.417688   -2.222431    3.614016
     98          1           0        2.751871   -4.069071   -0.725699
     99          1           0        2.898046   -6.356378   -4.011337
    100          1           0        4.612392   -6.606620   -3.734308
    101          1           0        3.983709   -5.085734   -4.560581
    102          1           0       -1.986046   -6.270357    0.451117
    103          1           0       -3.244260   -6.395946   -0.754704
    104          1           0       -3.212898   -3.961887    1.120079
    105          1           0       -6.712900   -5.481767    0.418144
    106          1           0       -6.200974   -6.695927    1.715196
    107          1           0       -5.435256   -6.598627    0.191532
    108          1           0       -6.379331   -4.312345    2.532934
    109          1           0       -5.491214   -3.091417    1.776324
    110          1           0       -3.959858   -4.692902    3.933245
    111          1           0       -5.480922   -3.921551    4.379868
    112          1           0       -3.591253   -2.340913    2.694118
    113          1           0       -3.124508   -2.552193    4.443141
    114          1           0       -5.893733   -1.645834    3.998271
    115          1           0       -4.059026   -0.471199    6.084348
    116          1           0       -4.555472   -2.125342    6.250344
    117          1           0       -5.813993   -0.879937    6.039105
    118          1           0       -3.745143   -0.162440    2.631698
    119          1           0       -3.934476    0.672132    4.101311
    120          1           0       -5.349891    1.831781    2.779867
    121          1           0       -6.535082    0.658596    3.303775
    122          1           0       -5.191571   -0.563237    0.982373
    123          1           0       -5.047416    1.084272    0.784421
    124          1           0       -7.880529    0.436814    1.507867
    125          1           0       -7.429360   -0.744130   -1.231984
    126          1           0       -8.606159   -1.044158    0.124310
    127          1           0       -7.007018   -1.767039    0.174409
    128          1           0       -7.317623    1.385721   -1.292465
    129          1           0       -6.638343    2.360933    0.099114
    130          1           0       -8.663453    3.328477    0.431218
    131          1           0       -9.472318    1.781701    0.635829
    132          1           0      -10.417991    1.987446   -1.265569
    133          1           0       -9.085302    2.299550   -2.276845
    134          1           0      -10.613298    4.202452   -0.546350
    135          1           0      -11.082453    4.782784   -3.426396
    136          1           0      -12.218908    4.292149   -2.150565
    137          1           0      -11.254867    3.169218   -3.198539
    138          1           0       -8.949314    5.683047   -0.688893
    139          1           0       -9.270814    5.787618   -2.438063
    140          1           0       -8.141970    4.552176   -1.785614
 ---------------------------------------------------------------------

 SCF Done:  E(RwB97XD) =  -3007.82624345     A.U. after   17 cycles

 Excitation energies and oscillator strengths:

 Excited State   1:      Singlet-A      1.6833 eV  736.56 nm  f=0.3951  <S**2>=0.000
     245 -> 248       -0.18963
     246 -> 247        0.68259
     245 <- 248       -0.11566
 This state for optimization and/or second-order correction.
 Total Energy, E(TD-HF/TD-DFT) =  -3007.76438386
 Copying the excited state density for this state as the 1-particle RhoCI density.

 Excited State   2:      Singlet-A      2.1544 eV  575.49 nm  f=0.1246  <S**2>=0.000
     245 -> 247        0.64904
     246 -> 248        0.26436

 Excited State   3:      Singlet-A      3.1872 eV  389.00 nm  f=0.0071  <S**2>=0.000
     244 -> 247        0.67339
     244 -> 249       -0.10505

 Excited State   4:      Singlet-A      3.4467 eV  359.72 nm  f=0.0164  <S**2>=0.000
     241 -> 247       -0.37141
     242 -> 247        0.37928
     243 -> 247       -0.28769
     243 -> 249        0.10723
     243 -> 251       -0.11933
     246 -> 248       -0.26118

 Excited State   5:      Singlet-A      3.4739 eV  356.90 nm  f=0.0053  <S**2>=0.000
     241 -> 247       -0.19481
     242 -> 247        0.22603
     243 -> 247        0.47004
     243 -> 249       -0.25764
     243 -> 251        0.26912
     246 -> 248       -0.14243

 The electronic state is 1-A.
 Alpha  occ. eigenvalues --  -46.97073 -19.31706 -19.29771 -19.25588 -19.25364
 Alpha  occ. eigenvalues --  -19.24153 -19.21831 -14.47376 -14.46657 -14.43656
 Alpha  occ. eigenvalues --  -14.43568 -10.44300 -10.43498 -10.38901 -10.37090
 Alpha  occ. eigenvalues --  -10.36138 -10.35991 -10.35270 -10.35079 -10.35059
 Alpha  occ. eigenvalues --  -10.34896 -10.34008 -10.33557 -10.33371 -10.32558
 Alpha  occ. eigenvalues --  -10.32422 -10.32263 -10.32155 -10.32137 -10.32119
 Alpha  occ. eigenvalues --  -10.31983 -10.31877 -10.31817 -10.31789 -10.31502
 Alpha  occ. eigenvalues --  -10.31319 -10.31302 -10.31120 -10.30545 -10.30522
 Alpha  occ. eigenvalues --  -10.30288 -10.30149 -10.30100 -10.29908 -10.29770
 Alpha  occ. eigenvalues --  -10.29750 -10.29723 -10.29631 -10.29514 -10.29417
 Alpha  occ. eigenvalues --  -10.29120 -10.29009 -10.28985 -10.28843 -10.28770
 Alpha  occ. eigenvalues --  -10.28757 -10.28659 -10.28656 -10.28590 -10.28512
 Alpha  occ. eigenvalues --  -10.28479 -10.28472 -10.28464 -10.28183 -10.27958
 Alpha  occ. eigenvalues --  -10.27595  -3.22995  -1.96518  -1.96154  -1.95915
 Alpha  occ. eigenvalues --   -1.18967  -1.18257  -1.12699  -1.11423  -1.10568
 Alpha  occ. eigenvalues --   -1.10345  -1.07472  -1.06816  -1.05667  -1.05142
 Alpha  occ. eigenvalues --   -0.95337  -0.92745  -0.91160  -0.91087  -0.90948
 Alpha  occ. eigenvalues --   -0.90018  -0.89974  -0.88918  -0.88790  -0.88035
 Alpha  occ. eigenvalues --   -0.87668  -0.87352  -0.86331  -0.85665  -0.85266
 Alpha  occ. eigenvalues --   -0.84411  -0.84252  -0.83095  -0.82689  -0.82588
 Alpha  occ. eigenvalues --   -0.81581  -0.79980  -0.79745  -0.79197  -0.78046
 Alpha  occ. eigenvalues --   -0.77350  -0.77177  -0.77064  -0.76404  -0.75827
 Alpha  occ. eigenvalues --   -0.75368  -0.74746  -0.73539  -0.72373  -0.71338
 Alpha  occ. eigenvalues --   -0.70775  -0.70378  -0.69177  -0.68710  -0.68018
 Alpha  occ. eigenvalues --   -0.67606  -0.66904  -0.66676  -0.66342  -0.66137
 Alpha  occ. eigenvalues --   -0.65470  -0.64618  -0.64518  -0.64042  -0.62468
 Alpha  occ. eigenvalues --   -0.62320  -0.61726  -0.61378  -0.61282  -0.60450
 Alpha  occ. eigenvalues --   -0.59709  -0.59009  -0.58190  -0.57850  -0.57623
 Alpha  occ. eigenvalues --   -0.57450  -0.57180  -0.56661  -0.56118  -0.55842
 Alpha  occ. eigenvalues --   -0.55533  -0.55249  -0.54996  -0.54960  -0.54556
 Alpha  occ. eigenvalues --   -0.54462  -0.54265  -0.53748  -0.53649  -0.53537
 Alpha  occ. eigenvalues --   -0.53418  -0.53101  -0.52997  -0.52679  -0.52500
 Alpha  occ. eigenvalues --   -0.52377  -0.52274  -0.52109  -0.51738  -0.51504
 Alpha  occ. eigenvalues --   -0.51402  -0.50986  -0.50979  -0.50802  -0.50475
 Alpha  occ. eigenvalues --   -0.50235  -0.49895  -0.49593  -0.49461  -0.49127
 Alpha  occ. eigenvalues --   -0.48908  -0.48661  -0.48292  -0.48202  -0.48065
 Alpha  occ. eigenvalues --   -0.48045  -0.47956  -0.47822  -0.47692  -0.47600
 Alpha  occ. eigenvalues --   -0.47425  -0.47322  -0.47069  -0.47030  -0.46897
 Alpha  occ. eigenvalues --   -0.46670  -0.46420  -0.46369  -0.46206  -0.46159
 Alpha  occ. eigenvalues --   -0.45791  -0.45649  -0.45383  -0.44995  -0.44721
 Alpha  occ. eigenvalues --   -0.44594  -0.44489  -0.44123  -0.43979  -0.43825
 Alpha  occ. eigenvalues --   -0.43457  -0.43400  -0.43358  -0.43289  -0.43114
 Alpha  occ. eigenvalues --   -0.42754  -0.42492  -0.42320  -0.42138  -0.41892
 Alpha  occ. eigenvalues --   -0.41695  -0.41410  -0.41067  -0.41007  -0.40906
 Alpha  occ. eigenvalues --   -0.40627  -0.39928  -0.39360  -0.39154  -0.39103
 Alpha  occ. eigenvalues --   -0.38872  -0.38680  -0.38428  -0.38237  -0.38140
 Alpha  occ. eigenvalues --   -0.37837  -0.37383  -0.36699  -0.36576  -0.36271
 Alpha  occ. eigenvalues --   -0.36177  -0.35850  -0.35344  -0.33529  -0.33025
 Alpha  occ. eigenvalues --   -0.31993  -0.31959  -0.31850  -0.30849  -0.25828
 Alpha  occ. eigenvalues --   -0.23213
 Alpha virt. eigenvalues --   -0.07172   0.00433   0.02301   0.03859   0.04657
 Alpha virt. eigenvalues --    0.05882   0.07142   0.07426   0.08126   0.09856
 Alpha virt. eigenvalues --    0.10759   0.11706   0.11904   0.12227   0.12468

 Mulliken charges:
               1
     1  Mg   0.984305
     2  C   -0.036460
     3  C   -0.040553
     4  C   -0.070175
     5  C   -0.070395
     6  N   -0.224565
     7  C   -0.008292
     8  C   -0.107691
     9  C   -0.138933
    10  C    0.013043
    11  C    0.072040
    12  C    0.047678
    13  C    0.005881
    14  C    0.215521
    15  O   -0.270692
    16  O   -0.349887
    17  N   -0.419158
    18  C    0.077789
    19  C   -0.141806
    20  C   -0.039906
    21  C    0.145135
    22  C    0.059799
    23  C   -0.009487
    24  O   -0.254719
    25  C    0.021944
    26  N   -0.474267
    27  C    0.074714
    28  C   -0.056855
    29  C   -0.072778
    30  C    0.110584
    31  C    0.012928
    32  C   -0.027233
    33  C   -0.067244
    34  N   -0.370363
    35  C    0.072346
    36  C   -0.184997
    37  C   -0.075999
    38  C    0.134216
    39  C    0.068178
    40  C    0.154149
    41  O   -0.180246
    42  C   -0.050811
    43  C    0.269174
    44  O   -0.235735
    45  O   -0.354964
    46  C    0.138090
    47  C    0.255062
    48  C   -0.098668
    49  C   -0.235034
    50  C    0.039841
    51  C   -0.007182
    52  C    0.003813
    53  C    0.006269
    54  C   -0.179797
    55  C   -0.005489
    56  C    0.012053
    57  C   -0.044536
    58  C   -0.011356
    59  C   -0.191022
    60  C   -0.001133
    61  C    0.031301
    62  C   -0.012278
    63  C   -0.029949
    64  C   -0.234926
    65  C   -0.007382
    66  C    0.015413
    67  H   -0.005086
    68  H   -0.043145
    69  H   -0.006664
    70  H    0.023983
    71  H    0.019323
    72  H    0.054164
    73  H    0.043379
    74  H    0.043161
    75  H    0.038239
    76  H    0.044942
    77  H    0.048056
    78  H    0.043571
    79  H    0.031123
    80  H    0.070805
    81  H    0.034285
    82  H    0.059718
    83  H    0.049619
    84  H    0.059851
    85  H    0.039459
    86  H    0.034381
    87  H    0.040213
    88  H    0.035130
    89  H    0.033381
    90  H    0.042866
    91  H    0.031092
    92  H    0.039576
    93  H    0.030882
    94  H    0.044427
    95  H    0.039266
    96  H    0.061718
    97  H    0.038131
    98  H    0.080025
    99  H    0.047602
   100  H    0.062587
   101  H    0.052357
   102  H    0.074117
   103  H    0.041786
   104  H    0.020539
   105  H    0.064192
   106  H    0.045477
   107  H   -0.002724
   108  H    0.007184
   109  H    0.045902
   110  H    0.033595
   111  H    0.016183
   112  H    0.016041
   113  H    0.018441
   114  H    0.013619
   115  H    0.032934
   116  H    0.025976
   117  H    0.033741
   118  H    0.010303
   119  H    0.010501
   120  H    0.021881
   121  H    0.018523
   122  H    0.010475
   123  H    0.015694
   124  H    0.023385
   125  H    0.033380
   126  H    0.028372
   127  H    0.025209
   128  H    0.025406
   129  H    0.025046
   130  H    0.018172
   131  H    0.025106
   132  H    0.009411
   133  H    0.019605
   134  H    0.016030
   135  H    0.018235
   136  H    0.042407
   137  H    0.018152
   138  H    0.034372
   139  H    0.029936
   140  H    0.022677
 Sum of Mulliken charges =  -0.00000

 Dipole moment (field-independent basis, Debye):
    X=             -1.6155    Y=              1.0207    Z=              0.7128  Tot=              2.0396
 Quadrupole moment (field-independent basis, Debye-Ang):
   XX=           -386.9324   YY=           -428.2867   ZZ=           -376.6664
   XY=             47.0992   XZ=              9.3624   YZ=             31.8202

 Normal termination of Gaussian 16 at Thu May  5 06:26:00 2022.
