 Gaussian 16, Revision A.03,
 Gaussian 16:  ES64L-G16RevA.03 25-Dec-2016

 --------------------
 #p ZINDO=(nstates=5)
 --------------------

 -----------------------------
 step_701_chromophore_17 ZINDO
 -----------------------------
 Symbolic Z-matrix:
 Charge =  0 Multiplicity = 1

                         Standard orientation:
 ---------------------------------------------------------------------
 Center     Atomic      Atomic             Coordinates (Angstroms)
 Number     Number       Type             X           Y           Z
 ---------------------------------------------------------------------
      1         12           0        3.886717    1.627663   -0.625085
      2          6           0        3.445470   -2.026763   -1.076340
      3          6           0        1.191440    1.798345   -2.983935
      4          6           0        3.272825    4.564717    0.438420
      5          6           0        5.770120    0.705760    2.197229
      6          7           0        2.496411    0.093625   -1.849524
      7          6           0        2.514151   -1.243280   -1.772507
      8          6           0        1.448065   -1.905370   -2.712023
      9          6           0        1.196285   -0.713456   -3.717083
     10          6           0        1.596205    0.462442   -2.739775
     11          6           0        2.054246   -0.639392   -4.999762
     12          6           0        0.173358   -2.436178   -1.978468
     13          6           0       -0.426313   -3.792087   -2.398736
     14          6           0       -0.852277   -4.780278   -1.244633
     15          8           0       -0.010344   -5.414240   -0.583885
     16          8           0       -2.224491   -4.831804   -1.158257
     17          7           0        2.512121    3.112442   -1.331510
     18          6           0        1.535897    3.009883   -2.303774
     19          6           0        0.970664    4.312652   -2.423212
     20          6           0        1.577966    5.208111   -1.413685
     21          6           0        2.483204    4.286355   -0.759008
     22          6           0       -0.066136    4.716025   -3.388269
     23          6           0        1.304970    6.608987   -1.102730
     24          8           0        0.455639    7.182015   -1.773036
     25          6           0        1.956934    7.424641   -0.135742
     26          7           0        4.422742    2.507933    1.024588
     27          6           0        4.183741    3.791122    1.171464
     28          6           0        4.880270    4.340599    2.433729
     29          6           0        5.548383    3.127611    3.093755
     30          6           0        5.285040    2.048347    2.022736
     31          6           0        5.789092    5.600327    2.194941
     32          6           0        4.925247    2.683726    4.453874
     33          6           0        5.937901    2.387399    5.617807
     34          7           0        4.735369   -0.285655    0.298679
     35          6           0        5.526398   -0.461411    1.387685
     36          6           0        5.817881   -1.850367    1.540602
     37          6           0        5.076182   -2.526555    0.594823
     38          6           0        4.389951   -1.512715   -0.184698
     39          6           0        6.703345   -2.497688    2.598268
     40          6           0        4.566971   -3.845431    0.154069
     41          8           0        4.790455   -4.997388    0.461915
     42          6           0        3.658244   -3.517477   -0.974399
     43          6           0        4.207914   -3.962337   -2.298637
     44          8           0        5.010012   -3.356961   -2.993502
     45          8           0        3.734430   -5.241636   -2.486507
     46          6           0        3.835031   -5.844233   -3.792145
     47          6           0       -2.724612   -5.691957   -0.105030
     48          6           0       -3.532267   -4.979767    0.895026
     49          6           0       -4.761259   -5.109292    1.421033
     50          6           0       -5.902237   -5.974704    0.954415
     51          6           0       -5.349762   -4.027069    2.318476
     52          6           0       -4.654043   -3.894530    3.671497
     53          6           0       -3.928320   -2.562274    3.706942
     54          6           0       -4.855485   -1.368514    4.182995
     55          6           0       -4.809007   -1.190055    5.751762
     56          6           0       -4.458835   -0.021005    3.443327
     57          6           0       -5.604484    0.771805    2.748345
     58          6           0       -5.722166    0.355700    1.233184
     59          6           0       -7.188982    0.412606    0.665246
     60          6           0       -7.564263   -0.892453   -0.160268
     61          6           0       -7.394580    1.651861   -0.237848
     62          6           0       -8.807671    2.345878   -0.017471
     63          6           0       -9.529467    2.615084   -1.331774
     64          6           0      -10.118045    4.025835   -1.500698
     65          6           0      -11.250831    4.084308   -2.606666
     66          6           0       -9.061563    5.111330   -1.609313
     67          1           0        0.418205    2.051298   -3.712372
     68          1           0        3.290323    5.608495    0.758074
     69          1           0        6.358638    0.416039    3.069619
     70          1           0        1.868318   -2.715693   -3.307226
     71          1           0        0.139692   -0.621946   -3.969437
     72          1           0        2.509689   -1.606537   -5.211599
     73          1           0        2.796007    0.122985   -4.763334
     74          1           0        1.367104   -0.188090   -5.715441
     75          1           0       -0.658656   -1.735735   -2.043861
     76          1           0        0.415377   -2.473474   -0.916573
     77          1           0        0.265959   -4.374629   -3.006384
     78          1           0       -1.277757   -3.605627   -3.053180
     79          1           0        0.258053    4.490206   -4.403654
     80          1           0       -0.408616    5.750317   -3.400338
     81          1           0       -0.913928    4.043046   -3.258628
     82          1           0        1.600973    7.160362    0.860021
     83          1           0        1.587187    8.431055   -0.335453
     84          1           0        3.044268    7.433812   -0.200419
     85          1           0        4.051139    4.554438    3.109062
     86          1           0        6.599658    3.368104    3.250194
     87          1           0        5.674094    6.048059    1.208367
     88          1           0        6.845569    5.398874    2.372605
     89          1           0        5.582674    6.447873    2.848717
     90          1           0        4.317373    1.786672    4.336688
     91          1           0        4.195239    3.371701    4.881348
     92          1           0        5.703850    3.033519    6.464295
     93          1           0        6.957472    2.608705    5.300914
     94          1           0        5.901914    1.347561    5.944669
     95          1           0        7.742097   -2.171168    2.565943
     96          1           0        6.681899   -3.576870    2.450765
     97          1           0        6.417688   -2.222431    3.614016
     98          1           0        2.751871   -4.069071   -0.725699
     99          1           0        2.898046   -6.356378   -4.011337
    100          1           0        4.612392   -6.606620   -3.734308
    101          1           0        3.983709   -5.085734   -4.560581
    102          1           0       -1.986046   -6.270357    0.451117
    103          1           0       -3.244260   -6.395946   -0.754704
    104          1           0       -3.212898   -3.961887    1.120079
    105          1           0       -6.712900   -5.481767    0.418144
    106          1           0       -6.200974   -6.695927    1.715196
    107          1           0       -5.435256   -6.598627    0.191532
    108          1           0       -6.379331   -4.312345    2.532934
    109          1           0       -5.491214   -3.091417    1.776324
    110          1           0       -3.959858   -4.692902    3.933245
    111          1           0       -5.480922   -3.921551    4.379868
    112          1           0       -3.591253   -2.340913    2.694118
    113          1           0       -3.124508   -2.552193    4.443141
    114          1           0       -5.893733   -1.645834    3.998271
    115          1           0       -4.059026   -0.471199    6.084348
    116          1           0       -4.555472   -2.125342    6.250344
    117          1           0       -5.813993   -0.879937    6.039105
    118          1           0       -3.745143   -0.162440    2.631698
    119          1           0       -3.934476    0.672132    4.101311
    120          1           0       -5.349891    1.831781    2.779867
    121          1           0       -6.535082    0.658596    3.303775
    122          1           0       -5.191571   -0.563237    0.982373
    123          1           0       -5.047416    1.084272    0.784421
    124          1           0       -7.880529    0.436814    1.507867
    125          1           0       -7.429360   -0.744130   -1.231984
    126          1           0       -8.606159   -1.044158    0.124310
    127          1           0       -7.007018   -1.767039    0.174409
    128          1           0       -7.317623    1.385721   -1.292465
    129          1           0       -6.638343    2.360933    0.099114
    130          1           0       -8.663453    3.328477    0.431218
    131          1           0       -9.472318    1.781701    0.635829
    132          1           0      -10.417991    1.987446   -1.265569
    133          1           0       -9.085302    2.299550   -2.276845
    134          1           0      -10.613298    4.202452   -0.546350
    135          1           0      -11.082453    4.782784   -3.426396
    136          1           0      -12.218908    4.292149   -2.150565
    137          1           0      -11.254867    3.169218   -3.198539
    138          1           0       -8.949314    5.683047   -0.688893
    139          1           0       -9.270814    5.787618   -2.438063
    140          1           0       -8.141970    4.552176   -1.785614
 ---------------------------------------------------------------------

 SCF Done:  E(RZINDO/S) =  -474.353957468     A.U. after   19 cycles

 Excitation energies and oscillator strengths:

 Excited State   1:      Singlet-A      1.2594 eV  984.46 nm  f=0.6151  <S**2>=0.000
     175 ->178         0.19620
     176 ->177         0.66093
 This state for optimization and/or second-order correction.
 Total Energy, E(CIS/TDA) =  -474.307674682
 Copying the excited state density for this state as the 1-particle RhoCI density.

 Excited State   2:      Singlet-A      1.9247 eV  644.17 nm  f=0.0684  <S**2>=0.000
     175 ->177         0.56617
     176 ->178        -0.39342

 Excited State   3:      Singlet-A      2.7874 eV  444.81 nm  f=0.0008  <S**2>=0.000
     176 ->179         0.15400
     176 ->180         0.68518

 Excited State   4:      Singlet-A      2.8226 eV  439.25 nm  f=0.0001  <S**2>=0.000
     170 ->177         0.30707
     170 ->179         0.26894
     170 ->182        -0.40505
     170 ->183         0.16725
     170 ->186         0.20647
     170 ->187        -0.17966

 Excited State   5:      Singlet-A      2.9475 eV  420.64 nm  f=0.0055  <S**2>=0.000
     168 ->177         0.35642
     168 ->178         0.18919
     168 ->179        -0.39869
     168 ->182        -0.15799
     168 ->183         0.14099
     168 ->186        -0.20820

 The electronic state is 1-A.
 Alpha  occ. eigenvalues --   -1.84312  -1.82342  -1.80708  -1.73690  -1.72805
 Alpha  occ. eigenvalues --   -1.71923  -1.64080  -1.62255  -1.61315  -1.60170
 Alpha  occ. eigenvalues --   -1.55019  -1.50914  -1.50679  -1.48384  -1.46992
 Alpha  occ. eigenvalues --   -1.43740  -1.43133  -1.39397  -1.38845  -1.37902
 Alpha  occ. eigenvalues --   -1.35678  -1.32849  -1.31438  -1.30589  -1.28199
 Alpha  occ. eigenvalues --   -1.27019  -1.26523  -1.22937  -1.22326  -1.18371
 Alpha  occ. eigenvalues --   -1.17706  -1.16393  -1.15567  -1.13501  -1.12991
 Alpha  occ. eigenvalues --   -1.11375  -1.10493  -1.09360  -1.05659  -1.03843
 Alpha  occ. eigenvalues --   -1.03170  -1.01635  -0.99224  -0.97352  -0.96526
 Alpha  occ. eigenvalues --   -0.95990  -0.94571  -0.94073  -0.92690  -0.92348
 Alpha  occ. eigenvalues --   -0.91743  -0.89708  -0.88812  -0.88471  -0.86532
 Alpha  occ. eigenvalues --   -0.86041  -0.84646  -0.83225  -0.82613  -0.80862
 Alpha  occ. eigenvalues --   -0.80240  -0.79179  -0.78264  -0.76908  -0.76561
 Alpha  occ. eigenvalues --   -0.76502  -0.75434  -0.75040  -0.74215  -0.73772
 Alpha  occ. eigenvalues --   -0.73315  -0.72569  -0.71874  -0.71821  -0.71185
 Alpha  occ. eigenvalues --   -0.70177  -0.69650  -0.69019  -0.68810  -0.67929
 Alpha  occ. eigenvalues --   -0.67778  -0.67534  -0.67268  -0.66177  -0.65909
 Alpha  occ. eigenvalues --   -0.65222  -0.65211  -0.64915  -0.63906  -0.63823
 Alpha  occ. eigenvalues --   -0.63602  -0.63116  -0.62846  -0.61892  -0.61174
 Alpha  occ. eigenvalues --   -0.61022  -0.60692  -0.59970  -0.59892  -0.59488
 Alpha  occ. eigenvalues --   -0.59116  -0.58952  -0.58876  -0.58577  -0.58133
 Alpha  occ. eigenvalues --   -0.57775  -0.57734  -0.57443  -0.57110  -0.56351
 Alpha  occ. eigenvalues --   -0.56047  -0.55850  -0.55387  -0.55088  -0.54830
 Alpha  occ. eigenvalues --   -0.54243  -0.54159  -0.53658  -0.53037  -0.52930
 Alpha  occ. eigenvalues --   -0.52437  -0.52380  -0.52007  -0.51877  -0.51723
 Alpha  occ. eigenvalues --   -0.51395  -0.51271  -0.50575  -0.50265  -0.50095
 Alpha  occ. eigenvalues --   -0.49735  -0.49531  -0.49117  -0.48975  -0.48824
 Alpha  occ. eigenvalues --   -0.48611  -0.48405  -0.48271  -0.48120  -0.47999
 Alpha  occ. eigenvalues --   -0.47871  -0.47240  -0.47076  -0.46722  -0.46553
 Alpha  occ. eigenvalues --   -0.46412  -0.45986  -0.45813  -0.45485  -0.45079
 Alpha  occ. eigenvalues --   -0.44972  -0.44795  -0.44348  -0.44064  -0.43852
 Alpha  occ. eigenvalues --   -0.43567  -0.43088  -0.42692  -0.42470  -0.41770
 Alpha  occ. eigenvalues --   -0.41741  -0.41429  -0.41202  -0.39440  -0.39069
 Alpha  occ. eigenvalues --   -0.38372  -0.37198  -0.35503  -0.34619  -0.33572
 Alpha  occ. eigenvalues --   -0.33291  -0.32525  -0.32152  -0.31488  -0.26470
 Alpha  occ. eigenvalues --   -0.22015
 Alpha virt. eigenvalues --   -0.08598  -0.02104  -0.00642  -0.00263   0.00971
 Alpha virt. eigenvalues --    0.01333   0.02627   0.03044   0.03512   0.05076
 Alpha virt. eigenvalues --    0.06344   0.06803   0.07405   0.08085   0.08226

 Mulliken charges:
               1
     1  Mg   0.447947
     2  C   -0.010878
     3  C   -0.054799
     4  C   -0.131918
     5  C   -0.091060
     6  N   -0.245167
     7  C    0.112745
     8  C   -0.002912
     9  C   -0.008612
    10  C    0.113043
    11  C   -0.051126
    12  C   -0.016056
    13  C    0.003032
    14  C    0.463020
    15  O   -0.515436
    16  O   -0.253242
    17  N   -0.314802
    18  C    0.069454
    19  C    0.057619
    20  C   -0.086029
    21  C    0.152558
    22  C   -0.038051
    23  C    0.339813
    24  O   -0.555515
    25  C   -0.020928
    26  N   -0.270206
    27  C    0.151681
    28  C    0.001911
    29  C    0.009531
    30  C    0.126750
    31  C   -0.052984
    32  C   -0.032646
    33  C   -0.060893
    34  N   -0.329532
    35  C    0.120146
    36  C    0.034734
    37  C   -0.043097
    38  C    0.085741
    39  C   -0.043340
    40  C    0.351037
    41  O   -0.502265
    42  C    0.067654
    43  C    0.495887
    44  O   -0.519012
    45  O   -0.266642
    46  C    0.076449
    47  C    0.116865
    48  C   -0.076007
    49  C   -0.009491
    50  C   -0.044956
    51  C   -0.024115
    52  C   -0.026685
    53  C   -0.034649
    54  C   -0.017653
    55  C   -0.059379
    56  C   -0.040140
    57  C   -0.037412
    58  C   -0.042989
    59  C   -0.017120
    60  C   -0.065104
    61  C   -0.037461
    62  C   -0.037939
    63  C   -0.033206
    64  C   -0.011717
    65  C   -0.063763
    66  C   -0.054718
    67  H    0.028901
    68  H    0.017996
    69  H    0.024475
    70  H    0.028367
    71  H    0.020761
    72  H    0.037885
    73  H    0.029874
    74  H    0.026466
    75  H    0.023770
    76  H    0.026277
    77  H    0.038049
    78  H    0.028493
    79  H    0.021035
    80  H    0.048697
    81  H    0.023075
    82  H    0.039806
    83  H    0.032660
    84  H    0.034781
    85  H    0.030801
    86  H    0.036153
    87  H    0.023748
    88  H    0.021779
    89  H    0.016875
    90  H    0.021803
    91  H    0.019390
    92  H    0.019100
    93  H    0.018418
    94  H    0.023245
    95  H    0.026846
    96  H    0.033629
    97  H    0.027282
    98  H    0.061164
    99  H    0.029353
   100  H    0.045983
   101  H    0.045111
   102  H    0.062589
   103  H    0.032932
   104  H    0.028058
   105  H    0.041494
   106  H    0.032056
   107  H   -0.001565
   108  H    0.004248
   109  H    0.030490
   110  H    0.024663
   111  H    0.015334
   112  H    0.023634
   113  H    0.017549
   114  H    0.022610
   115  H    0.022246
   116  H    0.016934
   117  H    0.017394
   118  H    0.015547
   119  H    0.014478
   120  H    0.016146
   121  H    0.020196
   122  H    0.021851
   123  H    0.012868
   124  H    0.025197
   125  H    0.026544
   126  H    0.016390
   127  H    0.017529
   128  H    0.030392
   129  H    0.020787
   130  H    0.018698
   131  H    0.025143
   132  H   -0.001118
   133  H    0.025112
   134  H    0.010599
   135  H    0.017087
   136  H    0.023764
   137  H    0.015374
   138  H    0.020488
   139  H    0.020848
   140  H    0.017400
 Sum of Mulliken charges =  -0.00000

 Dipole moment (field-independent basis, Debye):
    X=             -2.2045    Y=              0.9163    Z=              0.8822  Tot=              2.5452
 N-N= 4.547712597795D+03 E-N= 0.000000000000D+00  KE=-9.769684941614D+03
 Leave Link  601 at Thu May  5 06:40:40 2022, MaxMem=  6710886400 cpu:               0.8 elap:               0.0
 (Enter /sw/apps/gaussian-16.0/g16/l9999.exe)
 1\1\GINC-BP1-COMPUTE123\SP\RZINDO CIS\STO-3G\C55H74Mg1N4O6\OF15641\05-
 May-2022\0\\#p ZINDO=(nstates=5)\\step_701_chromophore_17 ZINDO\\0,1\M
 g,0,29.432,58.692,41.737\C,0,26.353,57.187,40.32\C,0,31.002,55.878,40.
 164\C,0,32.169,60.317,41.786\C,0,27.419,61.538,42.196\N,0,28.769,56.8,
 40.408\C,0,27.535,56.519,39.97\C,0,27.494,55.205,39.116\C,0,28.834,54.
 525,39.602\C,0,29.593,55.848,40.016\C,0,28.774,53.56,40.807\C,0,27.387
 ,55.434,37.573\C,0,26.453,54.533,36.742\C,0,25.536,55.24,35.67\O,0,24.

 Normal termination of Gaussian 16 at Thu May  5 06:40:41 2022.
