 Gaussian 16, Revision A.03,
 Gaussian 16:  ES64L-G16RevA.03 25-Dec-2016

 ------------------------------
 #p blyp/Def2SVP td=(nstates=5)
 ------------------------------

 --------------------------------------------------
 step_501_chromophore_14 TDDFT with blyp functional
 --------------------------------------------------
 Symbolic Z-matrix:
 Charge =  0 Multiplicity = 1

                         Standard orientation:
 ---------------------------------------------------------------------
 Center     Atomic      Atomic             Coordinates (Angstroms)
 Number     Number       Type             X           Y           Z
 ---------------------------------------------------------------------
      1         12           0        5.085678    0.954274   -0.053364
      2          6           0        4.943160   -2.443427    0.270953
      3          6           0        4.101591    0.517344   -3.445014
      4          6           0        4.828050    4.308892   -0.310432
      5          6           0        5.123226    1.253742    3.417377
      6          7           0        4.194819   -0.840533   -1.363274
      7          6           0        4.491701   -2.130970   -1.041788
      8          6           0        4.050930   -3.046649   -2.150031
      9          6           0        3.741475   -2.072213   -3.368331
     10          6           0        4.030561   -0.671019   -2.742811
     11          6           0        4.202750   -2.519544   -4.707228
     12          6           0        2.926861   -4.152912   -1.870688
     13          6           0        1.863934   -3.843485   -0.858557
     14          6           0        0.421411   -4.105257   -1.268306
     15          8           0       -0.029197   -5.220647   -1.524736
     16          8           0       -0.331875   -2.955507   -1.274451
     17          7           0        4.775567    2.213291   -1.708103
     18          6           0        4.424602    1.870029   -2.976863
     19          6           0        4.252152    3.017352   -3.818015
     20          6           0        4.584018    4.161217   -2.923173
     21          6           0        4.753946    3.583568   -1.571993
     22          6           0        3.890599    3.066443   -5.225440
     23          6           0        4.724003    5.636070   -3.271836
     24          8           0        4.415286    6.031971   -4.339384
     25          6           0        5.142812    6.739167   -2.339851
     26          7           0        4.860752    2.509068    1.335852
     27          6           0        4.962063    3.793331    0.960679
     28          6           0        4.738163    4.777507    2.224900
     29          6           0        5.220084    3.779130    3.386991
     30          6           0        5.002613    2.459613    2.685449
     31          6           0        5.516474    6.095732    2.190232
     32          6           0        4.493197    4.021781    4.722054
     33          6           0        5.277866    4.122197    6.035464
     34          7           0        4.931848   -0.322061    1.548389
     35          6           0        5.000478   -0.097680    2.917775
     36          6           0        5.085232   -1.307807    3.638882
     37          6           0        5.123543   -2.293942    2.666960
     38          6           0        5.026451   -1.650675    1.382400
     39          6           0        5.199713   -1.488285    5.121044
     40          6           0        5.260224   -3.653388    2.345858
     41          8           0        5.377036   -4.593838    3.128920
     42          6           0        4.980410   -3.846525    0.828209
     43          6           0        6.163628   -4.682761    0.363438
     44          8           0        6.059265   -5.749283   -0.278754
     45          8           0        7.307075   -3.976268    0.653240
     46          6           0        8.634246   -4.373587    0.122926
     47          6           0       -1.781294   -3.210680   -1.388386
     48          6           0       -2.563763   -2.170942   -0.572765
     49          6           0       -3.305130   -1.130099   -1.030948
     50          6           0       -3.479906   -0.824720   -2.568156
     51          6           0       -3.916975   -0.025072   -0.127182
     52          6           0       -5.355972    0.341185   -0.403030
     53          6           0       -6.259831    0.135437    0.886264
     54          6           0       -7.844560    0.239339    0.781228
     55          6           0       -8.512811    1.547080    1.336120
     56          6           0       -8.616889   -0.973081    1.209839
     57          6           0       -9.914416   -1.271057    0.262082
     58          6           0      -11.106588   -1.797535    1.031910
     59          6           0      -12.243475   -0.797557    1.209533
     60          6           0      -13.133943   -1.060143    2.530500
     61          6           0      -13.087505   -0.557883   -0.000865
     62          6           0      -13.229274    0.926238   -0.545750
     63          6           0      -14.421057    1.630885    0.048326
     64          6           0      -15.871046    1.340981   -0.564307
     65          6           0      -16.394103    2.620886   -1.216342
     66          6           0      -16.778069    0.829437    0.575677
     67          1           0        3.679248    0.323238   -4.433082
     68          1           0        4.544178    5.361439   -0.371861
     69          1           0        5.206665    1.358448    4.500802
     70          1           0        4.881386   -3.708386   -2.398807
     71          1           0        2.655644   -2.037718   -3.452283
     72          1           0        4.743422   -1.750732   -5.259099
     73          1           0        3.401993   -2.977658   -5.287783
     74          1           0        4.949661   -3.304092   -4.585581
     75          1           0        3.313377   -5.105295   -1.507635
     76          1           0        2.327271   -4.293268   -2.770616
     77          1           0        1.983089   -2.888222   -0.348393
     78          1           0        1.947319   -4.598289   -0.075930
     79          1           0        4.269107    2.169551   -5.714769
     80          1           0        4.268479    3.941965   -5.752079
     81          1           0        2.800825    3.074272   -5.267079
     82          1           0        5.809023    6.113426   -1.745476
     83          1           0        4.320284    7.119609   -1.735006
     84          1           0        5.650232    7.597758   -2.779986
     85          1           0        3.658396    4.902362    2.311710
     86          1           0        6.278306    3.750470    3.645515
     87          1           0        6.331042    5.999892    2.908661
     88          1           0        4.834141    6.941327    2.271748
     89          1           0        5.996833    6.284541    1.230637
     90          1           0        3.770548    3.212752    4.831890
     91          1           0        3.854242    4.896240    4.598025
     92          1           0        5.078425    4.963013    6.699980
     93          1           0        6.353991    4.008650    5.898060
     94          1           0        5.053142    3.163036    6.500859
     95          1           0        5.805858   -2.339720    5.431413
     96          1           0        4.196665   -1.607130    5.531420
     97          1           0        5.682301   -0.647820    5.621583
     98          1           0        4.033792   -4.385533    0.826832
     99          1           0        9.243799   -3.517258   -0.165073
    100          1           0        8.473574   -5.007298   -0.749403
    101          1           0        9.322290   -4.961568    0.729069
    102          1           0       -2.106261   -4.101541   -0.851217
    103          1           0       -2.099787   -3.338158   -2.422702
    104          1           0       -2.365013   -2.304324    0.491325
    105          1           0       -4.476901   -0.661246   -2.976509
    106          1           0       -2.938353   -1.491636   -3.239289
    107          1           0       -3.102137    0.191159   -2.687136
    108          1           0       -3.313472    0.882396   -0.134515
    109          1           0       -3.761852   -0.536985    0.822857
    110          1           0       -5.857560   -0.159974   -1.230893
    111          1           0       -5.430774    1.414203   -0.582456
    112          1           0       -5.881127    0.949174    1.503498
    113          1           0       -5.914121   -0.800855    1.323862
    114          1           0       -7.883801    0.404307   -0.294699
    115          1           0       -9.176865    1.586927    2.199930
    116          1           0       -9.251495    1.840470    0.589970
    117          1           0       -7.771970    2.325407    1.521562
    118          1           0       -8.948544   -0.825537    2.237815
    119          1           0       -7.988939   -1.858233    1.109977
    120          1           0       -9.670021   -1.915512   -0.582062
    121          1           0      -10.276448   -0.363383   -0.222084
    122          1           0      -10.629071   -2.088290    1.967094
    123          1           0      -11.497938   -2.711007    0.585726
    124          1           0      -11.744528    0.133247    1.478665
    125          1           0      -12.779769   -1.953167    3.045288
    126          1           0      -14.192185   -1.220866    2.323257
    127          1           0      -13.106185   -0.192262    3.190301
    128          1           0      -14.100354   -0.908065    0.197272
    129          1           0      -12.691263   -1.047454   -0.890958
    130          1           0      -13.246160    0.935524   -1.635153
    131          1           0      -12.378533    1.514652   -0.202128
    132          1           0      -14.213712    2.683933   -0.139612
    133          1           0      -14.431297    1.552049    1.135305
    134          1           0      -15.686009    0.560572   -1.302535
    135          1           0      -16.988464    3.189288   -0.500948
    136          1           0      -16.933758    2.447896   -2.148079
    137          1           0      -15.591916    3.333943   -1.407727
    138          1           0      -16.294355    0.201285    1.323555
    139          1           0      -17.614927    0.369079    0.050940
    140          1           0      -17.325797    1.555766    1.175980
 ---------------------------------------------------------------------

 SCF Done:  E(RB-LYP) =  -3007.31785970     A.U. after   21 cycles

 Excitation energies and oscillator strengths:

 Excited State   1:      Singlet-A      1.3325 eV  930.44 nm  f=0.0003  <S**2>=0.000
     244 -> 247        0.11017
     245 -> 247        0.69642
 This state for optimization and/or second-order correction.
 Total Energy, E(TD-HF/TD-DFT) =  -3007.26889027
 Copying the excited state density for this state as the 1-particle RhoCI density.

 Excited State   2:      Singlet-A      1.6039 eV  773.01 nm  f=0.0208  <S**2>=0.000
     243 -> 247        0.56078
     244 -> 247        0.36050
     246 -> 247        0.23118

 Excited State   3:      Singlet-A      1.7831 eV  695.32 nm  f=0.2847  <S**2>=0.000
     243 -> 247       -0.20991
     244 -> 248        0.17230
     246 -> 247        0.65516
     246 <- 247       -0.15460

 Excited State   4:      Singlet-A      1.9801 eV  626.17 nm  f=0.0861  <S**2>=0.000
     243 -> 247       -0.35477
     244 -> 247        0.54039
     246 -> 248       -0.23250

 Excited State   5:      Singlet-A      2.1913 eV  565.81 nm  f=0.0081  <S**2>=0.000
     242 -> 247        0.69443

 The electronic state is 1-A.
 Alpha  occ. eigenvalues --  -46.28405 -18.83207 -18.82229 -18.77203 -18.76482
 Alpha  occ. eigenvalues --  -18.75056 -18.74454 -14.03836 -14.03186 -14.01852
 Alpha  occ. eigenvalues --  -14.01179 -10.04904 -10.03735  -9.98952  -9.98822
 Alpha  occ. eigenvalues --   -9.98716  -9.97606  -9.97428  -9.97037  -9.96850
 Alpha  occ. eigenvalues --   -9.96687  -9.96618  -9.96356  -9.96198  -9.94929
 Alpha  occ. eigenvalues --   -9.94875  -9.94592  -9.94371  -9.94236  -9.94112
 Alpha  occ. eigenvalues --   -9.94091  -9.93978  -9.93915  -9.93765  -9.93578
 Alpha  occ. eigenvalues --   -9.93397  -9.93323  -9.93322  -9.93066  -9.92880
 Alpha  occ. eigenvalues --   -9.92785  -9.92762  -9.92721  -9.92591  -9.92553
 Alpha  occ. eigenvalues --   -9.92523  -9.92316  -9.92291  -9.92228  -9.92200
 Alpha  occ. eigenvalues --   -9.91967  -9.91730  -9.91671  -9.91612  -9.91451
 Alpha  occ. eigenvalues --   -9.91437  -9.91177  -9.91145  -9.91075  -9.91060
 Alpha  occ. eigenvalues --   -9.90811  -9.90755  -9.90729  -9.90634  -9.90483
 Alpha  occ. eigenvalues --   -9.90275  -2.92980  -1.73361  -1.72916  -1.72666
 Alpha  occ. eigenvalues --   -0.97358  -0.97167  -0.93303  -0.90760  -0.89284
 Alpha  occ. eigenvalues --   -0.89264  -0.87434  -0.86645  -0.85530  -0.84864
 Alpha  occ. eigenvalues --   -0.76420  -0.73194  -0.73166  -0.72880  -0.72643
 Alpha  occ. eigenvalues --   -0.71957  -0.71529  -0.71347  -0.70871  -0.70511
 Alpha  occ. eigenvalues --   -0.69890  -0.69216  -0.68171  -0.67848  -0.67582
 Alpha  occ. eigenvalues --   -0.66599  -0.66334  -0.65252  -0.64960  -0.64539
 Alpha  occ. eigenvalues --   -0.63755  -0.63031  -0.62700  -0.61912  -0.61233
 Alpha  occ. eigenvalues --   -0.60479  -0.60340  -0.60211  -0.59549  -0.58981
 Alpha  occ. eigenvalues --   -0.58696  -0.58071  -0.56985  -0.55861  -0.55416
 Alpha  occ. eigenvalues --   -0.54649  -0.53733  -0.52661  -0.52252  -0.52196
 Alpha  occ. eigenvalues --   -0.51708  -0.51525  -0.51089  -0.50855  -0.49871
 Alpha  occ. eigenvalues --   -0.49740  -0.49396  -0.49336  -0.48149  -0.46776
 Alpha  occ. eigenvalues --   -0.46496  -0.45928  -0.45601  -0.44870  -0.44564
 Alpha  occ. eigenvalues --   -0.44104  -0.43660  -0.43454  -0.43100  -0.42663
 Alpha  occ. eigenvalues --   -0.42219  -0.42137  -0.41576  -0.41380  -0.40996
 Alpha  occ. eigenvalues --   -0.40952  -0.40716  -0.40612  -0.40291  -0.40162
 Alpha  occ. eigenvalues --   -0.39675  -0.39571  -0.39379  -0.39291  -0.39259
 Alpha  occ. eigenvalues --   -0.39163  -0.38706  -0.38629  -0.38488  -0.38298
 Alpha  occ. eigenvalues --   -0.38161  -0.38052  -0.37712  -0.37461  -0.37429
 Alpha  occ. eigenvalues --   -0.37258  -0.36988  -0.36828  -0.36731  -0.36532
 Alpha  occ. eigenvalues --   -0.36359  -0.36171  -0.36097  -0.35650  -0.35611
 Alpha  occ. eigenvalues --   -0.35450  -0.35355  -0.35280  -0.35033  -0.34730
 Alpha  occ. eigenvalues --   -0.34484  -0.34361  -0.34328  -0.34207  -0.33913
 Alpha  occ. eigenvalues --   -0.33742  -0.33728  -0.33595  -0.33464  -0.33333
 Alpha  occ. eigenvalues --   -0.33273  -0.32997  -0.32845  -0.32670  -0.32425
 Alpha  occ. eigenvalues --   -0.32352  -0.32002  -0.31703  -0.31584  -0.31467
 Alpha  occ. eigenvalues --   -0.31301  -0.31168  -0.31042  -0.30709  -0.30654
 Alpha  occ. eigenvalues --   -0.30578  -0.30493  -0.30269  -0.30145  -0.29998
 Alpha  occ. eigenvalues --   -0.29774  -0.29704  -0.29391  -0.29303  -0.29085
 Alpha  occ. eigenvalues --   -0.29045  -0.28623  -0.28401  -0.27968  -0.27666
 Alpha  occ. eigenvalues --   -0.27649  -0.27379  -0.27009  -0.26934  -0.26423
 Alpha  occ. eigenvalues --   -0.26119  -0.25972  -0.25762  -0.25578  -0.25125
 Alpha  occ. eigenvalues --   -0.25014  -0.24561  -0.24299  -0.24160  -0.23944
 Alpha  occ. eigenvalues --   -0.23343  -0.22626  -0.22145  -0.21775  -0.21250
 Alpha  occ. eigenvalues --   -0.20514  -0.19966  -0.18388  -0.17740  -0.17234
 Alpha  occ. eigenvalues --   -0.16477
 Alpha virt. eigenvalues --   -0.12426  -0.07248  -0.06241  -0.04509  -0.04226
 Alpha virt. eigenvalues --   -0.03308  -0.03292  -0.02253  -0.01798  -0.00222
 Alpha virt. eigenvalues --    0.00945   0.01689   0.02253   0.02403   0.03007

 Mulliken charges:
               1
     1  Mg   0.697905
     2  C    0.045379
     3  C   -0.067366
     4  C   -0.056391
     5  C   -0.085106
     6  N   -0.210418
     7  C   -0.089261
     8  C    0.067428
     9  C    0.018456
    10  C   -0.006957
    11  C    0.155989
    12  C    0.098686
    13  C    0.111295
    14  C    0.042987
    15  O   -0.203775
    16  O   -0.258901
    17  N   -0.275264
    18  C    0.149269
    19  C   -0.163497
    20  C    0.020797
    21  C    0.089384
    22  C    0.199522
    23  C   -0.109922
    24  O   -0.138425
    25  C    0.124934
    26  N   -0.213269
    27  C    0.035531
    28  C   -0.028492
    29  C    0.021474
    30  C    0.022533
    31  C    0.156555
    32  C    0.091430
    33  C    0.072094
    34  N   -0.259736
    35  C    0.114522
    36  C   -0.177794
    37  C    0.185176
    38  C    0.038673
    39  C    0.168632
    40  C   -0.127298
    41  O   -0.143502
    42  C    0.042084
    43  C    0.152549
    44  O   -0.182944
    45  O   -0.283292
    46  C    0.214267
    47  C    0.304560
    48  C   -0.107315
    49  C   -0.112515
    50  C    0.121252
    51  C    0.141872
    52  C    0.057747
    53  C    0.033147
    54  C   -0.021500
    55  C    0.071426
    56  C    0.136986
    57  C    0.031188
    58  C    0.119239
    59  C   -0.058637
    60  C    0.083508
    61  C    0.129448
    62  C    0.058652
    63  C    0.066583
    64  C   -0.053983
    65  C    0.109548
    66  C    0.091046
    67  H   -0.050625
    68  H   -0.053280
    69  H   -0.070777
    70  H   -0.019157
    71  H   -0.011348
    72  H   -0.012100
    73  H   -0.004566
    74  H   -0.019375
    75  H    0.008039
    76  H   -0.010632
    77  H    0.000770
    78  H    0.006752
    79  H   -0.012398
    80  H    0.009304
    81  H    0.003217
    82  H   -0.009103
    83  H    0.024218
    84  H   -0.002183
    85  H   -0.004805
    86  H   -0.018574
    87  H   -0.008170
    88  H   -0.008853
    89  H   -0.011790
    90  H   -0.025884
    91  H   -0.028826
    92  H    0.007911
    93  H   -0.018635
    94  H   -0.010061
    95  H    0.008535
    96  H    0.008937
    97  H   -0.014531
    98  H    0.001130
    99  H    0.013065
   100  H    0.012884
   101  H    0.020874
   102  H    0.000113
   103  H   -0.005796
   104  H   -0.036671
   105  H   -0.005185
   106  H   -0.010040
   107  H   -0.017114
   108  H   -0.003714
   109  H   -0.025858
   110  H   -0.010051
   111  H   -0.032827
   112  H   -0.038976
   113  H   -0.027519
   114  H   -0.040153
   115  H   -0.015999
   116  H   -0.016128
   117  H   -0.018524
   118  H   -0.018391
   119  H   -0.028958
   120  H   -0.034112
   121  H   -0.031735
   122  H   -0.042619
   123  H   -0.040106
   124  H   -0.044330
   125  H   -0.018813
   126  H   -0.020038
   127  H   -0.011695
   128  H   -0.030019
   129  H   -0.041245
   130  H   -0.033102
   131  H   -0.029400
   132  H   -0.052792
   133  H   -0.041259
   134  H   -0.031984
   135  H   -0.022048
   136  H   -0.008874
   137  H   -0.021965
   138  H   -0.002736
   139  H   -0.023668
   140  H   -0.023825
 Sum of Mulliken charges =  -0.00000

 Dipole moment (field-independent basis, Debye):
    X=              1.4133    Y=              5.6144    Z=              1.5439  Tot=              5.9918
 Quadrupole moment (field-independent basis, Debye-Ang):
   XX=           -367.7822   YY=           -456.0213   ZZ=           -403.6859
   XY=             11.4892   XZ=             10.6005   YZ=             37.6383

 Normal termination of Gaussian 16 at Fri Apr 29 21:47:26 2022.
