 Gaussian 16, Revision A.03,
 Gaussian 16:  ES64L-G16RevA.03 25-Dec-2016

 -----------------------------------
 #p cam-b3lyp/Def2SVP td=(nstates=5)
 -----------------------------------

 -------------------------------------------------------
 step_501_chromophore_14 TDDFT with cam-b3lyp functional
 -------------------------------------------------------
 Symbolic Z-matrix:
 Charge =  0 Multiplicity = 1

                         Standard orientation:
 ---------------------------------------------------------------------
 Center     Atomic      Atomic             Coordinates (Angstroms)
 Number     Number       Type             X           Y           Z
 ---------------------------------------------------------------------
      1         12           0        5.085678    0.954274   -0.053364
      2          6           0        4.943160   -2.443427    0.270953
      3          6           0        4.101591    0.517344   -3.445014
      4          6           0        4.828050    4.308892   -0.310432
      5          6           0        5.123226    1.253742    3.417377
      6          7           0        4.194819   -0.840533   -1.363274
      7          6           0        4.491701   -2.130970   -1.041788
      8          6           0        4.050930   -3.046649   -2.150031
      9          6           0        3.741475   -2.072213   -3.368331
     10          6           0        4.030561   -0.671019   -2.742811
     11          6           0        4.202750   -2.519544   -4.707228
     12          6           0        2.926861   -4.152912   -1.870688
     13          6           0        1.863934   -3.843485   -0.858557
     14          6           0        0.421411   -4.105257   -1.268306
     15          8           0       -0.029197   -5.220647   -1.524736
     16          8           0       -0.331875   -2.955507   -1.274451
     17          7           0        4.775567    2.213291   -1.708103
     18          6           0        4.424602    1.870029   -2.976863
     19          6           0        4.252152    3.017352   -3.818015
     20          6           0        4.584018    4.161217   -2.923173
     21          6           0        4.753946    3.583568   -1.571993
     22          6           0        3.890599    3.066443   -5.225440
     23          6           0        4.724003    5.636070   -3.271836
     24          8           0        4.415286    6.031971   -4.339384
     25          6           0        5.142812    6.739167   -2.339851
     26          7           0        4.860752    2.509068    1.335852
     27          6           0        4.962063    3.793331    0.960679
     28          6           0        4.738163    4.777507    2.224900
     29          6           0        5.220084    3.779130    3.386991
     30          6           0        5.002613    2.459613    2.685449
     31          6           0        5.516474    6.095732    2.190232
     32          6           0        4.493197    4.021781    4.722054
     33          6           0        5.277866    4.122197    6.035464
     34          7           0        4.931848   -0.322061    1.548389
     35          6           0        5.000478   -0.097680    2.917775
     36          6           0        5.085232   -1.307807    3.638882
     37          6           0        5.123543   -2.293942    2.666960
     38          6           0        5.026451   -1.650675    1.382400
     39          6           0        5.199713   -1.488285    5.121044
     40          6           0        5.260224   -3.653388    2.345858
     41          8           0        5.377036   -4.593838    3.128920
     42          6           0        4.980410   -3.846525    0.828209
     43          6           0        6.163628   -4.682761    0.363438
     44          8           0        6.059265   -5.749283   -0.278754
     45          8           0        7.307075   -3.976268    0.653240
     46          6           0        8.634246   -4.373587    0.122926
     47          6           0       -1.781294   -3.210680   -1.388386
     48          6           0       -2.563763   -2.170942   -0.572765
     49          6           0       -3.305130   -1.130099   -1.030948
     50          6           0       -3.479906   -0.824720   -2.568156
     51          6           0       -3.916975   -0.025072   -0.127182
     52          6           0       -5.355972    0.341185   -0.403030
     53          6           0       -6.259831    0.135437    0.886264
     54          6           0       -7.844560    0.239339    0.781228
     55          6           0       -8.512811    1.547080    1.336120
     56          6           0       -8.616889   -0.973081    1.209839
     57          6           0       -9.914416   -1.271057    0.262082
     58          6           0      -11.106588   -1.797535    1.031910
     59          6           0      -12.243475   -0.797557    1.209533
     60          6           0      -13.133943   -1.060143    2.530500
     61          6           0      -13.087505   -0.557883   -0.000865
     62          6           0      -13.229274    0.926238   -0.545750
     63          6           0      -14.421057    1.630885    0.048326
     64          6           0      -15.871046    1.340981   -0.564307
     65          6           0      -16.394103    2.620886   -1.216342
     66          6           0      -16.778069    0.829437    0.575677
     67          1           0        3.679248    0.323238   -4.433082
     68          1           0        4.544178    5.361439   -0.371861
     69          1           0        5.206665    1.358448    4.500802
     70          1           0        4.881386   -3.708386   -2.398807
     71          1           0        2.655644   -2.037718   -3.452283
     72          1           0        4.743422   -1.750732   -5.259099
     73          1           0        3.401993   -2.977658   -5.287783
     74          1           0        4.949661   -3.304092   -4.585581
     75          1           0        3.313377   -5.105295   -1.507635
     76          1           0        2.327271   -4.293268   -2.770616
     77          1           0        1.983089   -2.888222   -0.348393
     78          1           0        1.947319   -4.598289   -0.075930
     79          1           0        4.269107    2.169551   -5.714769
     80          1           0        4.268479    3.941965   -5.752079
     81          1           0        2.800825    3.074272   -5.267079
     82          1           0        5.809023    6.113426   -1.745476
     83          1           0        4.320284    7.119609   -1.735006
     84          1           0        5.650232    7.597758   -2.779986
     85          1           0        3.658396    4.902362    2.311710
     86          1           0        6.278306    3.750470    3.645515
     87          1           0        6.331042    5.999892    2.908661
     88          1           0        4.834141    6.941327    2.271748
     89          1           0        5.996833    6.284541    1.230637
     90          1           0        3.770548    3.212752    4.831890
     91          1           0        3.854242    4.896240    4.598025
     92          1           0        5.078425    4.963013    6.699980
     93          1           0        6.353991    4.008650    5.898060
     94          1           0        5.053142    3.163036    6.500859
     95          1           0        5.805858   -2.339720    5.431413
     96          1           0        4.196665   -1.607130    5.531420
     97          1           0        5.682301   -0.647820    5.621583
     98          1           0        4.033792   -4.385533    0.826832
     99          1           0        9.243799   -3.517258   -0.165073
    100          1           0        8.473574   -5.007298   -0.749403
    101          1           0        9.322290   -4.961568    0.729069
    102          1           0       -2.106261   -4.101541   -0.851217
    103          1           0       -2.099787   -3.338158   -2.422702
    104          1           0       -2.365013   -2.304324    0.491325
    105          1           0       -4.476901   -0.661246   -2.976509
    106          1           0       -2.938353   -1.491636   -3.239289
    107          1           0       -3.102137    0.191159   -2.687136
    108          1           0       -3.313472    0.882396   -0.134515
    109          1           0       -3.761852   -0.536985    0.822857
    110          1           0       -5.857560   -0.159974   -1.230893
    111          1           0       -5.430774    1.414203   -0.582456
    112          1           0       -5.881127    0.949174    1.503498
    113          1           0       -5.914121   -0.800855    1.323862
    114          1           0       -7.883801    0.404307   -0.294699
    115          1           0       -9.176865    1.586927    2.199930
    116          1           0       -9.251495    1.840470    0.589970
    117          1           0       -7.771970    2.325407    1.521562
    118          1           0       -8.948544   -0.825537    2.237815
    119          1           0       -7.988939   -1.858233    1.109977
    120          1           0       -9.670021   -1.915512   -0.582062
    121          1           0      -10.276448   -0.363383   -0.222084
    122          1           0      -10.629071   -2.088290    1.967094
    123          1           0      -11.497938   -2.711007    0.585726
    124          1           0      -11.744528    0.133247    1.478665
    125          1           0      -12.779769   -1.953167    3.045288
    126          1           0      -14.192185   -1.220866    2.323257
    127          1           0      -13.106185   -0.192262    3.190301
    128          1           0      -14.100354   -0.908065    0.197272
    129          1           0      -12.691263   -1.047454   -0.890958
    130          1           0      -13.246160    0.935524   -1.635153
    131          1           0      -12.378533    1.514652   -0.202128
    132          1           0      -14.213712    2.683933   -0.139612
    133          1           0      -14.431297    1.552049    1.135305
    134          1           0      -15.686009    0.560572   -1.302535
    135          1           0      -16.988464    3.189288   -0.500948
    136          1           0      -16.933758    2.447896   -2.148079
    137          1           0      -15.591916    3.333943   -1.407727
    138          1           0      -16.294355    0.201285    1.323555
    139          1           0      -17.614927    0.369079    0.050940
    140          1           0      -17.325797    1.555766    1.175980
 ---------------------------------------------------------------------

 SCF Done:  E(RCAM-B3LYP) =  -3007.10387922     A.U. after   18 cycles

 Excitation energies and oscillator strengths:

 Excited State   1:      Singlet-A      1.6348 eV  758.40 nm  f=0.3729  <S**2>=0.000
     245 -> 248       -0.16945
     246 -> 247        0.68873
     245 <- 248       -0.10881
 This state for optimization and/or second-order correction.
 Total Energy, E(TD-HF/TD-DFT) =  -3007.04380113
 Copying the excited state density for this state as the 1-particle RhoCI density.

 Excited State   2:      Singlet-A      2.1481 eV  577.18 nm  f=0.1436  <S**2>=0.000
     245 -> 247        0.65215
     246 -> 248        0.25544

 Excited State   3:      Singlet-A      2.9475 eV  420.64 nm  f=0.0079  <S**2>=0.000
     243 -> 247        0.14121
     244 -> 247        0.66754

 Excited State   4:      Singlet-A      3.1597 eV  392.39 nm  f=0.0005  <S**2>=0.000
     240 -> 247       -0.25483
     240 -> 249        0.13755
     241 -> 247        0.55959
     241 -> 249       -0.19973
     241 -> 250        0.11282

 Excited State   5:      Singlet-A      3.3237 eV  373.03 nm  f=0.0060  <S**2>=0.000
     240 -> 247       -0.15662
     243 -> 247        0.58116
     243 -> 249        0.14152
     243 -> 251       -0.16512
     244 -> 251        0.14109

 The electronic state is 1-A.
 Alpha  occ. eigenvalues --  -46.90060 -19.26285 -19.25114 -19.20386 -19.19469
 Alpha  occ. eigenvalues --  -19.18576 -19.17348 -14.42692 -14.42170 -14.40165
 Alpha  occ. eigenvalues --  -14.39771 -10.40549 -10.39062 -10.34381 -10.33685
 Alpha  occ. eigenvalues --  -10.32865 -10.32239 -10.31714 -10.31712 -10.31138
 Alpha  occ. eigenvalues --  -10.31040 -10.30864 -10.30815 -10.30295 -10.29503
 Alpha  occ. eigenvalues --  -10.29003 -10.28957 -10.28708 -10.28606 -10.28397
 Alpha  occ. eigenvalues --  -10.28334 -10.28314 -10.28139 -10.27921 -10.27629
 Alpha  occ. eigenvalues --  -10.27628 -10.27345 -10.27320 -10.26890 -10.26865
 Alpha  occ. eigenvalues --  -10.26807 -10.26742 -10.26445 -10.26311 -10.26266
 Alpha  occ. eigenvalues --  -10.26251 -10.26152 -10.26032 -10.25920 -10.25883
 Alpha  occ. eigenvalues --  -10.25653 -10.25622 -10.25384 -10.25300 -10.25269
 Alpha  occ. eigenvalues --  -10.25186 -10.25176 -10.24868 -10.24740 -10.24676
 Alpha  occ. eigenvalues --  -10.24467 -10.24347 -10.24304 -10.24281 -10.24094
 Alpha  occ. eigenvalues --  -10.23945  -3.18531  -1.93389  -1.93023  -1.92806
 Alpha  occ. eigenvalues --   -1.15804  -1.15746  -1.11525  -1.09456  -1.07315
 Alpha  occ. eigenvalues --   -1.07145  -1.05280  -1.04478  -1.03072  -1.02283
 Alpha  occ. eigenvalues --   -0.93819  -0.90024  -0.89948  -0.89686  -0.89419
 Alpha  occ. eigenvalues --   -0.88637  -0.88192  -0.88102  -0.87481  -0.87057
 Alpha  occ. eigenvalues --   -0.86233  -0.85553  -0.84411  -0.84102  -0.83764
 Alpha  occ. eigenvalues --   -0.82676  -0.82409  -0.81084  -0.80887  -0.80401
 Alpha  occ. eigenvalues --   -0.79541  -0.78764  -0.78319  -0.77437  -0.76805
 Alpha  occ. eigenvalues --   -0.75812  -0.75654  -0.75573  -0.74832  -0.74221
 Alpha  occ. eigenvalues --   -0.73801  -0.73113  -0.71882  -0.70722  -0.70132
 Alpha  occ. eigenvalues --   -0.69401  -0.68303  -0.66960  -0.66534  -0.66382
 Alpha  occ. eigenvalues --   -0.65787  -0.65601  -0.65239  -0.64826  -0.63755
 Alpha  occ. eigenvalues --   -0.63732  -0.63304  -0.63138  -0.61974  -0.60410
 Alpha  occ. eigenvalues --   -0.59987  -0.59536  -0.59036  -0.58273  -0.58214
 Alpha  occ. eigenvalues --   -0.57433  -0.57149  -0.56666  -0.56287  -0.55869
 Alpha  occ. eigenvalues --   -0.55394  -0.55027  -0.54600  -0.54263  -0.54041
 Alpha  occ. eigenvalues --   -0.53621  -0.53568  -0.53321  -0.53231  -0.53180
 Alpha  occ. eigenvalues --   -0.52494  -0.52201  -0.52099  -0.51950  -0.51836
 Alpha  occ. eigenvalues --   -0.51583  -0.51494  -0.51174  -0.50981  -0.50796
 Alpha  occ. eigenvalues --   -0.50601  -0.50367  -0.50088  -0.49854  -0.49734
 Alpha  occ. eigenvalues --   -0.49445  -0.49415  -0.49253  -0.49130  -0.48880
 Alpha  occ. eigenvalues --   -0.48524  -0.48348  -0.48213  -0.47938  -0.47661
 Alpha  occ. eigenvalues --   -0.47553  -0.47389  -0.47225  -0.47174  -0.46651
 Alpha  occ. eigenvalues --   -0.46452  -0.46228  -0.46146  -0.45936  -0.45857
 Alpha  occ. eigenvalues --   -0.45682  -0.45455  -0.45386  -0.45359  -0.45170
 Alpha  occ. eigenvalues --   -0.44947  -0.44832  -0.44391  -0.44301  -0.44174
 Alpha  occ. eigenvalues --   -0.44022  -0.43600  -0.43312  -0.43019  -0.42947
 Alpha  occ. eigenvalues --   -0.42785  -0.42606  -0.42500  -0.42443  -0.42109
 Alpha  occ. eigenvalues --   -0.42073  -0.41941  -0.41782  -0.41632  -0.41461
 Alpha  occ. eigenvalues --   -0.41409  -0.41141  -0.40671  -0.40380  -0.40204
 Alpha  occ. eigenvalues --   -0.40143  -0.39629  -0.39439  -0.39153  -0.38777
 Alpha  occ. eigenvalues --   -0.38554  -0.38251  -0.38089  -0.37829  -0.37404
 Alpha  occ. eigenvalues --   -0.36917  -0.36884  -0.36666  -0.36423  -0.36228
 Alpha  occ. eigenvalues --   -0.35839  -0.35043  -0.34877  -0.34693  -0.34385
 Alpha  occ. eigenvalues --   -0.34099  -0.33985  -0.33200  -0.31692  -0.31011
 Alpha  occ. eigenvalues --   -0.30611  -0.30408  -0.29659  -0.28465  -0.24578
 Alpha  occ. eigenvalues --   -0.21843
 Alpha virt. eigenvalues --   -0.09780  -0.02090   0.00029   0.00892   0.02573
 Alpha virt. eigenvalues --    0.04208   0.04494   0.04935   0.05910   0.06768
 Alpha virt. eigenvalues --    0.07860   0.08146   0.08494   0.08673   0.09499

 Mulliken charges:
               1
     1  Mg   0.826654
     2  C    0.018150
     3  C   -0.076718
     4  C   -0.075335
     5  C   -0.091064
     6  N   -0.271201
     7  C   -0.043634
     8  C    0.020859
     9  C   -0.040146
    10  C    0.013869
    11  C    0.090763
    12  C    0.046399
    13  C    0.037118
    14  C    0.129635
    15  O   -0.245252
    16  O   -0.321803
    17  N   -0.363564
    18  C    0.156026
    19  C   -0.164790
    20  C   -0.053338
    21  C    0.114211
    22  C    0.136344
    23  C   -0.034845
    24  O   -0.178609
    25  C    0.046386
    26  N   -0.288350
    27  C    0.057983
    28  C   -0.083566
    29  C   -0.035940
    30  C    0.048005
    31  C    0.096426
    32  C    0.030957
    33  C    0.010178
    34  N   -0.351303
    35  C    0.123644
    36  C   -0.173461
    37  C    0.108496
    38  C    0.076810
    39  C    0.118755
    40  C   -0.023685
    41  O   -0.179853
    42  C   -0.044653
    43  C    0.244827
    44  O   -0.223763
    45  O   -0.349408
    46  C    0.180294
    47  C    0.267689
    48  C   -0.130110
    49  C   -0.129744
    50  C    0.060294
    51  C    0.084467
    52  C   -0.001630
    53  C   -0.007845
    54  C   -0.082911
    55  C    0.018563
    56  C    0.078006
    57  C   -0.016251
    58  C    0.064536
    59  C   -0.114872
    60  C    0.031137
    61  C    0.069073
    62  C    0.008181
    63  C    0.016891
    64  C   -0.117945
    65  C    0.050012
    66  C    0.034869
    67  H   -0.015614
    68  H   -0.017665
    69  H   -0.037696
    70  H    0.015422
    71  H    0.022428
    72  H    0.014569
    73  H    0.020987
    74  H    0.006215
    75  H    0.039330
    76  H    0.020469
    77  H    0.035973
    78  H    0.036862
    79  H    0.011061
    80  H    0.039707
    81  H    0.029550
    82  H    0.015189
    83  H    0.048872
    84  H    0.031332
    85  H    0.029118
    86  H    0.016334
    87  H    0.016912
    88  H    0.016713
    89  H    0.012838
    90  H    0.005957
    91  H    0.002030
    92  H    0.033275
    93  H    0.005281
    94  H    0.011031
    95  H    0.037667
    96  H    0.037032
    97  H    0.011112
    98  H    0.040915
    99  H    0.035799
   100  H    0.038359
   101  H    0.041786
   102  H    0.030483
   103  H    0.021978
   104  H   -0.003199
   105  H    0.019005
   106  H    0.014307
   107  H    0.007892
   108  H    0.026154
   109  H    0.003446
   110  H    0.015400
   111  H   -0.003664
   112  H   -0.011022
   113  H   -0.000740
   114  H   -0.007440
   115  H    0.007271
   116  H    0.005121
   117  H    0.005895
   118  H    0.008601
   119  H    0.001531
   120  H   -0.004038
   121  H   -0.008273
   122  H   -0.012754
   123  H   -0.009847
   124  H   -0.014585
   125  H    0.006349
   126  H    0.001191
   127  H    0.011197
   128  H   -0.004194
   129  H   -0.010153
   130  H   -0.004131
   131  H   -0.003649
   132  H   -0.022550
   133  H   -0.014153
   134  H   -0.000815
   135  H    0.002063
   136  H    0.015536
   137  H    0.002686
   138  H    0.016505
   139  H    0.001729
   140  H    0.000795
 Sum of Mulliken charges =  -0.00000

 Dipole moment (field-independent basis, Debye):
    X=              1.6542    Y=              5.5349    Z=              2.0980  Tot=              6.1460
 Quadrupole moment (field-independent basis, Debye-Ang):
   XX=           -364.1183   YY=           -455.2401   ZZ=           -401.8860
   XY=              9.9208   XZ=             12.8671   YZ=             39.3365

 Normal termination of Gaussian 16 at Fri Apr 29 20:52:52 2022.
