 Gaussian 16, Revision A.03,
 Gaussian 16:  ES64L-G16RevA.03 25-Dec-2016

 ---------------------------------
 #p PBE1PBE/Def2SVP td=(nstates=5)
 ---------------------------------

 -----------------------------------------------------
 step_501_chromophore_14 TDDFT with PBE1PBE functional
 -----------------------------------------------------
 Symbolic Z-matrix:
 Charge =  0 Multiplicity = 1

                         Standard orientation:
 ---------------------------------------------------------------------
 Center     Atomic      Atomic             Coordinates (Angstroms)
 Number     Number       Type             X           Y           Z
 ---------------------------------------------------------------------
      1         12           0        5.085678    0.954274   -0.053364
      2          6           0        4.943160   -2.443427    0.270953
      3          6           0        4.101591    0.517344   -3.445014
      4          6           0        4.828050    4.308892   -0.310432
      5          6           0        5.123226    1.253742    3.417377
      6          7           0        4.194819   -0.840533   -1.363274
      7          6           0        4.491701   -2.130970   -1.041788
      8          6           0        4.050930   -3.046649   -2.150031
      9          6           0        3.741475   -2.072213   -3.368331
     10          6           0        4.030561   -0.671019   -2.742811
     11          6           0        4.202750   -2.519544   -4.707228
     12          6           0        2.926861   -4.152912   -1.870688
     13          6           0        1.863934   -3.843485   -0.858557
     14          6           0        0.421411   -4.105257   -1.268306
     15          8           0       -0.029197   -5.220647   -1.524736
     16          8           0       -0.331875   -2.955507   -1.274451
     17          7           0        4.775567    2.213291   -1.708103
     18          6           0        4.424602    1.870029   -2.976863
     19          6           0        4.252152    3.017352   -3.818015
     20          6           0        4.584018    4.161217   -2.923173
     21          6           0        4.753946    3.583568   -1.571993
     22          6           0        3.890599    3.066443   -5.225440
     23          6           0        4.724003    5.636070   -3.271836
     24          8           0        4.415286    6.031971   -4.339384
     25          6           0        5.142812    6.739167   -2.339851
     26          7           0        4.860752    2.509068    1.335852
     27          6           0        4.962063    3.793331    0.960679
     28          6           0        4.738163    4.777507    2.224900
     29          6           0        5.220084    3.779130    3.386991
     30          6           0        5.002613    2.459613    2.685449
     31          6           0        5.516474    6.095732    2.190232
     32          6           0        4.493197    4.021781    4.722054
     33          6           0        5.277866    4.122197    6.035464
     34          7           0        4.931848   -0.322061    1.548389
     35          6           0        5.000478   -0.097680    2.917775
     36          6           0        5.085232   -1.307807    3.638882
     37          6           0        5.123543   -2.293942    2.666960
     38          6           0        5.026451   -1.650675    1.382400
     39          6           0        5.199713   -1.488285    5.121044
     40          6           0        5.260224   -3.653388    2.345858
     41          8           0        5.377036   -4.593838    3.128920
     42          6           0        4.980410   -3.846525    0.828209
     43          6           0        6.163628   -4.682761    0.363438
     44          8           0        6.059265   -5.749283   -0.278754
     45          8           0        7.307075   -3.976268    0.653240
     46          6           0        8.634246   -4.373587    0.122926
     47          6           0       -1.781294   -3.210680   -1.388386
     48          6           0       -2.563763   -2.170942   -0.572765
     49          6           0       -3.305130   -1.130099   -1.030948
     50          6           0       -3.479906   -0.824720   -2.568156
     51          6           0       -3.916975   -0.025072   -0.127182
     52          6           0       -5.355972    0.341185   -0.403030
     53          6           0       -6.259831    0.135437    0.886264
     54          6           0       -7.844560    0.239339    0.781228
     55          6           0       -8.512811    1.547080    1.336120
     56          6           0       -8.616889   -0.973081    1.209839
     57          6           0       -9.914416   -1.271057    0.262082
     58          6           0      -11.106588   -1.797535    1.031910
     59          6           0      -12.243475   -0.797557    1.209533
     60          6           0      -13.133943   -1.060143    2.530500
     61          6           0      -13.087505   -0.557883   -0.000865
     62          6           0      -13.229274    0.926238   -0.545750
     63          6           0      -14.421057    1.630885    0.048326
     64          6           0      -15.871046    1.340981   -0.564307
     65          6           0      -16.394103    2.620886   -1.216342
     66          6           0      -16.778069    0.829437    0.575677
     67          1           0        3.679248    0.323238   -4.433082
     68          1           0        4.544178    5.361439   -0.371861
     69          1           0        5.206665    1.358448    4.500802
     70          1           0        4.881386   -3.708386   -2.398807
     71          1           0        2.655644   -2.037718   -3.452283
     72          1           0        4.743422   -1.750732   -5.259099
     73          1           0        3.401993   -2.977658   -5.287783
     74          1           0        4.949661   -3.304092   -4.585581
     75          1           0        3.313377   -5.105295   -1.507635
     76          1           0        2.327271   -4.293268   -2.770616
     77          1           0        1.983089   -2.888222   -0.348393
     78          1           0        1.947319   -4.598289   -0.075930
     79          1           0        4.269107    2.169551   -5.714769
     80          1           0        4.268479    3.941965   -5.752079
     81          1           0        2.800825    3.074272   -5.267079
     82          1           0        5.809023    6.113426   -1.745476
     83          1           0        4.320284    7.119609   -1.735006
     84          1           0        5.650232    7.597758   -2.779986
     85          1           0        3.658396    4.902362    2.311710
     86          1           0        6.278306    3.750470    3.645515
     87          1           0        6.331042    5.999892    2.908661
     88          1           0        4.834141    6.941327    2.271748
     89          1           0        5.996833    6.284541    1.230637
     90          1           0        3.770548    3.212752    4.831890
     91          1           0        3.854242    4.896240    4.598025
     92          1           0        5.078425    4.963013    6.699980
     93          1           0        6.353991    4.008650    5.898060
     94          1           0        5.053142    3.163036    6.500859
     95          1           0        5.805858   -2.339720    5.431413
     96          1           0        4.196665   -1.607130    5.531420
     97          1           0        5.682301   -0.647820    5.621583
     98          1           0        4.033792   -4.385533    0.826832
     99          1           0        9.243799   -3.517258   -0.165073
    100          1           0        8.473574   -5.007298   -0.749403
    101          1           0        9.322290   -4.961568    0.729069
    102          1           0       -2.106261   -4.101541   -0.851217
    103          1           0       -2.099787   -3.338158   -2.422702
    104          1           0       -2.365013   -2.304324    0.491325
    105          1           0       -4.476901   -0.661246   -2.976509
    106          1           0       -2.938353   -1.491636   -3.239289
    107          1           0       -3.102137    0.191159   -2.687136
    108          1           0       -3.313472    0.882396   -0.134515
    109          1           0       -3.761852   -0.536985    0.822857
    110          1           0       -5.857560   -0.159974   -1.230893
    111          1           0       -5.430774    1.414203   -0.582456
    112          1           0       -5.881127    0.949174    1.503498
    113          1           0       -5.914121   -0.800855    1.323862
    114          1           0       -7.883801    0.404307   -0.294699
    115          1           0       -9.176865    1.586927    2.199930
    116          1           0       -9.251495    1.840470    0.589970
    117          1           0       -7.771970    2.325407    1.521562
    118          1           0       -8.948544   -0.825537    2.237815
    119          1           0       -7.988939   -1.858233    1.109977
    120          1           0       -9.670021   -1.915512   -0.582062
    121          1           0      -10.276448   -0.363383   -0.222084
    122          1           0      -10.629071   -2.088290    1.967094
    123          1           0      -11.497938   -2.711007    0.585726
    124          1           0      -11.744528    0.133247    1.478665
    125          1           0      -12.779769   -1.953167    3.045288
    126          1           0      -14.192185   -1.220866    2.323257
    127          1           0      -13.106185   -0.192262    3.190301
    128          1           0      -14.100354   -0.908065    0.197272
    129          1           0      -12.691263   -1.047454   -0.890958
    130          1           0      -13.246160    0.935524   -1.635153
    131          1           0      -12.378533    1.514652   -0.202128
    132          1           0      -14.213712    2.683933   -0.139612
    133          1           0      -14.431297    1.552049    1.135305
    134          1           0      -15.686009    0.560572   -1.302535
    135          1           0      -16.988464    3.189288   -0.500948
    136          1           0      -16.933758    2.447896   -2.148079
    137          1           0      -15.591916    3.333943   -1.407727
    138          1           0      -16.294355    0.201285    1.323555
    139          1           0      -17.614927    0.369079    0.050940
    140          1           0      -17.325797    1.555766    1.175980
 ---------------------------------------------------------------------

 SCF Done:  E(RPBE1PBE) =  -3005.29415414     A.U. after   15 cycles

 Excitation energies and oscillator strengths:

 Excited State   1:      Singlet-A      1.7951 eV  690.70 nm  f=0.3570  <S**2>=0.000
     245 -> 248        0.16593
     246 -> 247        0.69582
     246 <- 247       -0.11726
 This state for optimization and/or second-order correction.
 Total Energy, E(TD-HF/TD-DFT) =  -3005.22818714
 Copying the excited state density for this state as the 1-particle RhoCI density.

 Excited State   2:      Singlet-A      2.1553 eV  575.26 nm  f=0.1262  <S**2>=0.000
     244 -> 247       -0.10090
     245 -> 247        0.65388
     246 -> 248       -0.23173

 Excited State   3:      Singlet-A      2.4356 eV  509.04 nm  f=0.0086  <S**2>=0.000
     244 -> 247        0.68879

 Excited State   4:      Singlet-A      2.6539 eV  467.17 nm  f=0.0031  <S**2>=0.000
     242 -> 247        0.66697
     242 -> 249       -0.14652
     243 -> 247        0.11223

 Excited State   5:      Singlet-A      2.7510 eV  450.69 nm  f=0.0050  <S**2>=0.000
     242 -> 247       -0.11944
     243 -> 247        0.68442

 The electronic state is 1-A.
 Alpha  occ. eigenvalues --  -46.93451 -19.26820 -19.25787 -19.20554 -19.19752
 Alpha  occ. eigenvalues --  -19.18604 -19.17712 -14.42213 -14.41630 -14.39928
 Alpha  occ. eigenvalues --  -14.39323 -10.37498 -10.36092 -10.31349 -10.31008
 Alpha  occ. eigenvalues --  -10.29972 -10.29795 -10.29297 -10.29112 -10.29005
 Alpha  occ. eigenvalues --  -10.28882 -10.28756 -10.28332 -10.28280 -10.26966
 Alpha  occ. eigenvalues --  -10.26865 -10.26500 -10.26332 -10.26210 -10.26095
 Alpha  occ. eigenvalues --  -10.26023 -10.26015 -10.25964 -10.25880 -10.25353
 Alpha  occ. eigenvalues --  -10.25240 -10.25110 -10.24905 -10.24848 -10.24486
 Alpha  occ. eigenvalues --  -10.24179 -10.24124 -10.23922 -10.23822 -10.23812
 Alpha  occ. eigenvalues --  -10.23726 -10.23722 -10.23627 -10.23586 -10.23303
 Alpha  occ. eigenvalues --  -10.23202 -10.23078 -10.23064 -10.22853 -10.22795
 Alpha  occ. eigenvalues --  -10.22764 -10.22713 -10.22410 -10.22268 -10.22086
 Alpha  occ. eigenvalues --  -10.21886 -10.21820 -10.21741 -10.21687 -10.21619
 Alpha  occ. eigenvalues --  -10.21504  -3.15502  -1.88298  -1.87913  -1.87700
 Alpha  occ. eigenvalues --   -1.10601  -1.10380  -1.06478  -1.03998  -1.02032
 Alpha  occ. eigenvalues --   -1.02000  -0.99852  -0.99041  -0.97745  -0.97030
 Alpha  occ. eigenvalues --   -0.88052  -0.84203  -0.84119  -0.83821  -0.83552
 Alpha  occ. eigenvalues --   -0.82963  -0.82377  -0.82263  -0.81765  -0.81178
 Alpha  occ. eigenvalues --   -0.80625  -0.79913  -0.78612  -0.78318  -0.78033
 Alpha  occ. eigenvalues --   -0.76835  -0.76630  -0.75398  -0.75174  -0.74590
 Alpha  occ. eigenvalues --   -0.73694  -0.72994  -0.72593  -0.71830  -0.71065
 Alpha  occ. eigenvalues --   -0.70127  -0.69855  -0.69656  -0.68950  -0.68383
 Alpha  occ. eigenvalues --   -0.68244  -0.67424  -0.66320  -0.65022  -0.64456
 Alpha  occ. eigenvalues --   -0.63820  -0.62541  -0.61517  -0.60823  -0.60754
 Alpha  occ. eigenvalues --   -0.60219  -0.60044  -0.59622  -0.59348  -0.58234
 Alpha  occ. eigenvalues --   -0.57882  -0.57661  -0.57468  -0.56127  -0.54951
 Alpha  occ. eigenvalues --   -0.54336  -0.54113  -0.53661  -0.52832  -0.52548
 Alpha  occ. eigenvalues --   -0.52049  -0.51524  -0.51247  -0.50687  -0.50407
 Alpha  occ. eigenvalues --   -0.49983  -0.49472  -0.49095  -0.48761  -0.48494
 Alpha  occ. eigenvalues --   -0.48157  -0.48011  -0.47876  -0.47771  -0.47686
 Alpha  occ. eigenvalues --   -0.47061  -0.46689  -0.46530  -0.46463  -0.46327
 Alpha  occ. eigenvalues --   -0.46104  -0.46057  -0.45756  -0.45530  -0.45461
 Alpha  occ. eigenvalues --   -0.45163  -0.44962  -0.44692  -0.44440  -0.44348
 Alpha  occ. eigenvalues --   -0.44075  -0.43953  -0.43849  -0.43720  -0.43521
 Alpha  occ. eigenvalues --   -0.43078  -0.43037  -0.42811  -0.42533  -0.42389
 Alpha  occ. eigenvalues --   -0.42133  -0.42071  -0.41973  -0.41899  -0.41381
 Alpha  occ. eigenvalues --   -0.41227  -0.41016  -0.40749  -0.40540  -0.40496
 Alpha  occ. eigenvalues --   -0.40227  -0.40199  -0.40108  -0.39971  -0.39821
 Alpha  occ. eigenvalues --   -0.39629  -0.39521  -0.39119  -0.39020  -0.38930
 Alpha  occ. eigenvalues --   -0.38770  -0.38454  -0.38188  -0.37776  -0.37662
 Alpha  occ. eigenvalues --   -0.37584  -0.37365  -0.37194  -0.37159  -0.37006
 Alpha  occ. eigenvalues --   -0.36777  -0.36709  -0.36631  -0.36442  -0.36321
 Alpha  occ. eigenvalues --   -0.36258  -0.35997  -0.35568  -0.35206  -0.35101
 Alpha  occ. eigenvalues --   -0.34875  -0.34383  -0.34223  -0.34013  -0.33734
 Alpha  occ. eigenvalues --   -0.33324  -0.33133  -0.33012  -0.32667  -0.32357
 Alpha  occ. eigenvalues --   -0.31876  -0.31770  -0.31480  -0.31340  -0.31146
 Alpha  occ. eigenvalues --   -0.30930  -0.29967  -0.29902  -0.29618  -0.29254
 Alpha  occ. eigenvalues --   -0.29094  -0.28880  -0.28659  -0.27268  -0.26432
 Alpha  occ. eigenvalues --   -0.25700  -0.25360  -0.25039  -0.23839  -0.21514
 Alpha  occ. eigenvalues --   -0.19466
 Alpha virt. eigenvalues --   -0.12155  -0.05599  -0.03996  -0.01981  -0.01893
 Alpha virt. eigenvalues --   -0.00244  -0.00110   0.00538   0.01411   0.02796
 Alpha virt. eigenvalues --    0.03965   0.04478   0.05098   0.05272   0.05936

 Mulliken charges:
               1
     1  Mg   0.967466
     2  C    0.011129
     3  C   -0.067869
     4  C   -0.078270
     5  C   -0.079696
     6  N   -0.360132
     7  C    0.023820
     8  C   -0.034073
     9  C   -0.124996
    10  C    0.054428
    11  C    0.031767
    12  C   -0.010222
    13  C   -0.040074
    14  C    0.198818
    15  O   -0.276838
    16  O   -0.350326
    17  N   -0.482864
    18  C    0.184344
    19  C   -0.190477
    20  C   -0.102248
    21  C    0.150443
    22  C    0.073093
    23  C    0.021422
    24  O   -0.212027
    25  C   -0.035686
    26  N   -0.394235
    27  C    0.102295
    28  C   -0.171157
    29  C   -0.107007
    30  C    0.082553
    31  C    0.040533
    32  C   -0.027272
    33  C   -0.061039
    34  N   -0.476721
    35  C    0.144249
    36  C   -0.195414
    37  C    0.053623
    38  C    0.123089
    39  C    0.070564
    40  C    0.081805
    41  O   -0.226741
    42  C   -0.176344
    43  C    0.338256
    44  O   -0.262838
    45  O   -0.377271
    46  C    0.129004
    47  C    0.220733
    48  C   -0.147119
    49  C   -0.163294
    50  C   -0.000229
    51  C    0.020194
    52  C   -0.070850
    53  C   -0.054607
    54  C   -0.171210
    55  C   -0.037602
    56  C    0.015527
    57  C   -0.073514
    58  C    0.007951
    59  C   -0.204973
    60  C   -0.028188
    61  C    0.015399
    62  C   -0.061201
    63  C   -0.034735
    64  C   -0.212668
    65  C   -0.008137
    66  C   -0.026984
    67  H    0.015667
    68  H    0.018191
    69  H   -0.003110
    70  H    0.055169
    71  H    0.063101
    72  H    0.041375
    73  H    0.047743
    74  H    0.034503
    75  H    0.069396
    76  H    0.053767
    77  H    0.069955
    78  H    0.070013
    79  H    0.039268
    80  H    0.067668
    81  H    0.059670
    82  H    0.045320
    83  H    0.075380
    84  H    0.059888
    85  H    0.066070
    86  H    0.053521
    87  H    0.045058
    88  H    0.043947
    89  H    0.040069
    90  H    0.039427
    91  H    0.035039
    92  H    0.059967
    93  H    0.032694
    94  H    0.038093
    95  H    0.063413
    96  H    0.064103
    97  H    0.036117
    98  H    0.081832
    99  H    0.056804
   100  H    0.057789
   101  H    0.062471
   102  H    0.058184
   103  H    0.047913
   104  H    0.026583
   105  H    0.045193
   106  H    0.041304
   107  H    0.036431
   108  H    0.057997
   109  H    0.035775
   110  H    0.046832
   111  H    0.030394
   112  H    0.022537
   113  H    0.031490
   114  H    0.032967
   115  H    0.033258
   116  H    0.032003
   117  H    0.033106
   118  H    0.040226
   119  H    0.035215
   120  H    0.028134
   121  H    0.026891
   122  H    0.020888
   123  H    0.023412
   124  H    0.027213
   125  H    0.033540
   126  H    0.029052
   127  H    0.037362
   128  H    0.030607
   129  H    0.022526
   130  H    0.027798
   131  H    0.029033
   132  H    0.010718
   133  H    0.020032
   134  H    0.036207
   135  H    0.029154
   136  H    0.042936
   137  H    0.029467
   138  H    0.044407
   139  H    0.030623
   140  H    0.027853
 Sum of Mulliken charges =  -0.00000

 Dipole moment (field-independent basis, Debye):
    X=              1.5604    Y=              5.9335    Z=              1.7762  Tot=              6.3872
 Quadrupole moment (field-independent basis, Debye-Ang):
   XX=           -362.5266   YY=           -451.5042   ZZ=           -397.1464
   XY=             11.4014   XZ=             11.6767   YZ=             39.8483

 Normal termination of Gaussian 16 at Fri Apr 29 21:08:56 2022.
