 Gaussian 16, Revision A.03,
 Gaussian 16:  ES64L-G16RevA.03 25-Dec-2016

 --------------------------------
 #p wB97XD/Def2SVP td=(nstates=5)
 --------------------------------

 ----------------------------------------------------
 step_501_chromophore_14 TDDFT with wB97XD functional
 ----------------------------------------------------
 Symbolic Z-matrix:
 Charge =  0 Multiplicity = 1

                         Standard orientation:
 ---------------------------------------------------------------------
 Center     Atomic      Atomic             Coordinates (Angstroms)
 Number     Number       Type             X           Y           Z
 ---------------------------------------------------------------------
      1         12           0        5.085678    0.954274   -0.053364
      2          6           0        4.943160   -2.443427    0.270953
      3          6           0        4.101591    0.517344   -3.445014
      4          6           0        4.828050    4.308892   -0.310432
      5          6           0        5.123226    1.253742    3.417377
      6          7           0        4.194819   -0.840533   -1.363274
      7          6           0        4.491701   -2.130970   -1.041788
      8          6           0        4.050930   -3.046649   -2.150031
      9          6           0        3.741475   -2.072213   -3.368331
     10          6           0        4.030561   -0.671019   -2.742811
     11          6           0        4.202750   -2.519544   -4.707228
     12          6           0        2.926861   -4.152912   -1.870688
     13          6           0        1.863934   -3.843485   -0.858557
     14          6           0        0.421411   -4.105257   -1.268306
     15          8           0       -0.029197   -5.220647   -1.524736
     16          8           0       -0.331875   -2.955507   -1.274451
     17          7           0        4.775567    2.213291   -1.708103
     18          6           0        4.424602    1.870029   -2.976863
     19          6           0        4.252152    3.017352   -3.818015
     20          6           0        4.584018    4.161217   -2.923173
     21          6           0        4.753946    3.583568   -1.571993
     22          6           0        3.890599    3.066443   -5.225440
     23          6           0        4.724003    5.636070   -3.271836
     24          8           0        4.415286    6.031971   -4.339384
     25          6           0        5.142812    6.739167   -2.339851
     26          7           0        4.860752    2.509068    1.335852
     27          6           0        4.962063    3.793331    0.960679
     28          6           0        4.738163    4.777507    2.224900
     29          6           0        5.220084    3.779130    3.386991
     30          6           0        5.002613    2.459613    2.685449
     31          6           0        5.516474    6.095732    2.190232
     32          6           0        4.493197    4.021781    4.722054
     33          6           0        5.277866    4.122197    6.035464
     34          7           0        4.931848   -0.322061    1.548389
     35          6           0        5.000478   -0.097680    2.917775
     36          6           0        5.085232   -1.307807    3.638882
     37          6           0        5.123543   -2.293942    2.666960
     38          6           0        5.026451   -1.650675    1.382400
     39          6           0        5.199713   -1.488285    5.121044
     40          6           0        5.260224   -3.653388    2.345858
     41          8           0        5.377036   -4.593838    3.128920
     42          6           0        4.980410   -3.846525    0.828209
     43          6           0        6.163628   -4.682761    0.363438
     44          8           0        6.059265   -5.749283   -0.278754
     45          8           0        7.307075   -3.976268    0.653240
     46          6           0        8.634246   -4.373587    0.122926
     47          6           0       -1.781294   -3.210680   -1.388386
     48          6           0       -2.563763   -2.170942   -0.572765
     49          6           0       -3.305130   -1.130099   -1.030948
     50          6           0       -3.479906   -0.824720   -2.568156
     51          6           0       -3.916975   -0.025072   -0.127182
     52          6           0       -5.355972    0.341185   -0.403030
     53          6           0       -6.259831    0.135437    0.886264
     54          6           0       -7.844560    0.239339    0.781228
     55          6           0       -8.512811    1.547080    1.336120
     56          6           0       -8.616889   -0.973081    1.209839
     57          6           0       -9.914416   -1.271057    0.262082
     58          6           0      -11.106588   -1.797535    1.031910
     59          6           0      -12.243475   -0.797557    1.209533
     60          6           0      -13.133943   -1.060143    2.530500
     61          6           0      -13.087505   -0.557883   -0.000865
     62          6           0      -13.229274    0.926238   -0.545750
     63          6           0      -14.421057    1.630885    0.048326
     64          6           0      -15.871046    1.340981   -0.564307
     65          6           0      -16.394103    2.620886   -1.216342
     66          6           0      -16.778069    0.829437    0.575677
     67          1           0        3.679248    0.323238   -4.433082
     68          1           0        4.544178    5.361439   -0.371861
     69          1           0        5.206665    1.358448    4.500802
     70          1           0        4.881386   -3.708386   -2.398807
     71          1           0        2.655644   -2.037718   -3.452283
     72          1           0        4.743422   -1.750732   -5.259099
     73          1           0        3.401993   -2.977658   -5.287783
     74          1           0        4.949661   -3.304092   -4.585581
     75          1           0        3.313377   -5.105295   -1.507635
     76          1           0        2.327271   -4.293268   -2.770616
     77          1           0        1.983089   -2.888222   -0.348393
     78          1           0        1.947319   -4.598289   -0.075930
     79          1           0        4.269107    2.169551   -5.714769
     80          1           0        4.268479    3.941965   -5.752079
     81          1           0        2.800825    3.074272   -5.267079
     82          1           0        5.809023    6.113426   -1.745476
     83          1           0        4.320284    7.119609   -1.735006
     84          1           0        5.650232    7.597758   -2.779986
     85          1           0        3.658396    4.902362    2.311710
     86          1           0        6.278306    3.750470    3.645515
     87          1           0        6.331042    5.999892    2.908661
     88          1           0        4.834141    6.941327    2.271748
     89          1           0        5.996833    6.284541    1.230637
     90          1           0        3.770548    3.212752    4.831890
     91          1           0        3.854242    4.896240    4.598025
     92          1           0        5.078425    4.963013    6.699980
     93          1           0        6.353991    4.008650    5.898060
     94          1           0        5.053142    3.163036    6.500859
     95          1           0        5.805858   -2.339720    5.431413
     96          1           0        4.196665   -1.607130    5.531420
     97          1           0        5.682301   -0.647820    5.621583
     98          1           0        4.033792   -4.385533    0.826832
     99          1           0        9.243799   -3.517258   -0.165073
    100          1           0        8.473574   -5.007298   -0.749403
    101          1           0        9.322290   -4.961568    0.729069
    102          1           0       -2.106261   -4.101541   -0.851217
    103          1           0       -2.099787   -3.338158   -2.422702
    104          1           0       -2.365013   -2.304324    0.491325
    105          1           0       -4.476901   -0.661246   -2.976509
    106          1           0       -2.938353   -1.491636   -3.239289
    107          1           0       -3.102137    0.191159   -2.687136
    108          1           0       -3.313472    0.882396   -0.134515
    109          1           0       -3.761852   -0.536985    0.822857
    110          1           0       -5.857560   -0.159974   -1.230893
    111          1           0       -5.430774    1.414203   -0.582456
    112          1           0       -5.881127    0.949174    1.503498
    113          1           0       -5.914121   -0.800855    1.323862
    114          1           0       -7.883801    0.404307   -0.294699
    115          1           0       -9.176865    1.586927    2.199930
    116          1           0       -9.251495    1.840470    0.589970
    117          1           0       -7.771970    2.325407    1.521562
    118          1           0       -8.948544   -0.825537    2.237815
    119          1           0       -7.988939   -1.858233    1.109977
    120          1           0       -9.670021   -1.915512   -0.582062
    121          1           0      -10.276448   -0.363383   -0.222084
    122          1           0      -10.629071   -2.088290    1.967094
    123          1           0      -11.497938   -2.711007    0.585726
    124          1           0      -11.744528    0.133247    1.478665
    125          1           0      -12.779769   -1.953167    3.045288
    126          1           0      -14.192185   -1.220866    2.323257
    127          1           0      -13.106185   -0.192262    3.190301
    128          1           0      -14.100354   -0.908065    0.197272
    129          1           0      -12.691263   -1.047454   -0.890958
    130          1           0      -13.246160    0.935524   -1.635153
    131          1           0      -12.378533    1.514652   -0.202128
    132          1           0      -14.213712    2.683933   -0.139612
    133          1           0      -14.431297    1.552049    1.135305
    134          1           0      -15.686009    0.560572   -1.302535
    135          1           0      -16.988464    3.189288   -0.500948
    136          1           0      -16.933758    2.447896   -2.148079
    137          1           0      -15.591916    3.333943   -1.407727
    138          1           0      -16.294355    0.201285    1.323555
    139          1           0      -17.614927    0.369079    0.050940
    140          1           0      -17.325797    1.555766    1.175980
 ---------------------------------------------------------------------

 SCF Done:  E(RwB97XD) =  -3007.80229409     A.U. after   19 cycles

 Excitation energies and oscillator strengths:

 Excited State   1:      Singlet-A      1.5769 eV  786.23 nm  f=0.3732  <S**2>=0.000
     245 -> 248       -0.17523
     246 -> 247        0.68649
     245 <- 248       -0.11863
 This state for optimization and/or second-order correction.
 Total Energy, E(TD-HF/TD-DFT) =  -3007.74434235
 Copying the excited state density for this state as the 1-particle RhoCI density.

 Excited State   2:      Singlet-A      2.0914 eV  592.83 nm  f=0.1402  <S**2>=0.000
     245 -> 247        0.64998
     246 -> 248        0.25865

 Excited State   3:      Singlet-A      3.0057 eV  412.50 nm  f=0.0073  <S**2>=0.000
     243 -> 247       -0.21873
     244 -> 247        0.63565
     244 -> 249        0.12474

 Excited State   4:      Singlet-A      3.1786 eV  390.06 nm  f=0.0008  <S**2>=0.000
     240 -> 247       -0.13317
     240 -> 249        0.11655
     241 -> 247        0.58895
     241 -> 249       -0.26729

 Excited State   5:      Singlet-A      3.3737 eV  367.50 nm  f=0.0142  <S**2>=0.000
     240 -> 247       -0.34751
     243 -> 247        0.46035
     243 -> 249        0.14595
     243 -> 251       -0.14838
     244 -> 247        0.13969
     244 -> 249        0.10736
     244 -> 251       -0.15540
     246 -> 248        0.15367

 The electronic state is 1-A.
 Alpha  occ. eigenvalues --  -46.96414 -19.31538 -19.30358 -19.25386 -19.24435
 Alpha  occ. eigenvalues --  -19.23704 -19.22292 -14.47285 -14.46785 -14.44721
 Alpha  occ. eigenvalues --  -14.44396 -10.44466 -10.42894 -10.38454 -10.37574
 Alpha  occ. eigenvalues --  -10.36609 -10.36292 -10.35764 -10.35621 -10.35139
 Alpha  occ. eigenvalues --  -10.35037 -10.34960 -10.34814 -10.34269 -10.33557
 Alpha  occ. eigenvalues --  -10.33141 -10.33062 -10.32788 -10.32719 -10.32498
 Alpha  occ. eigenvalues --  -10.32463 -10.32350 -10.32163 -10.31992 -10.31699
 Alpha  occ. eigenvalues --  -10.31677 -10.31392 -10.31310 -10.30866 -10.30851
 Alpha  occ. eigenvalues --  -10.30791 -10.30663 -10.30306 -10.30202 -10.30184
 Alpha  occ. eigenvalues --  -10.30153 -10.30015 -10.29993 -10.29866 -10.29733
 Alpha  occ. eigenvalues --  -10.29726 -10.29573 -10.29356 -10.29230 -10.29120
 Alpha  occ. eigenvalues --  -10.29105 -10.29040 -10.28784 -10.28633 -10.28510
 Alpha  occ. eigenvalues --  -10.28306 -10.28194 -10.28171 -10.28110 -10.28001
 Alpha  occ. eigenvalues --  -10.27853  -3.22348  -1.95888  -1.95503  -1.95288
 Alpha  occ. eigenvalues --   -1.17992  -1.17951  -1.13686  -1.11751  -1.09548
 Alpha  occ. eigenvalues --   -1.09359  -1.07320  -1.06541  -1.05069  -1.04287
 Alpha  occ. eigenvalues --   -0.95868  -0.91823  -0.91798  -0.91491  -0.91221
 Alpha  occ. eigenvalues --   -0.90580  -0.90066  -0.89945  -0.89410  -0.88838
 Alpha  occ. eigenvalues --   -0.88122  -0.87453  -0.86266  -0.86018  -0.85656
 Alpha  occ. eigenvalues --   -0.84504  -0.84317  -0.83035  -0.82811  -0.82281
 Alpha  occ. eigenvalues --   -0.81375  -0.80692  -0.80239  -0.79369  -0.78757
 Alpha  occ. eigenvalues --   -0.77730  -0.77521  -0.77351  -0.76640  -0.76042
 Alpha  occ. eigenvalues --   -0.75784  -0.75040  -0.73864  -0.72646  -0.72065
 Alpha  occ. eigenvalues --   -0.71414  -0.70172  -0.68934  -0.68422  -0.68307
 Alpha  occ. eigenvalues --   -0.67718  -0.67571  -0.67180  -0.66821  -0.65740
 Alpha  occ. eigenvalues --   -0.65552  -0.65145  -0.65107  -0.63778  -0.62408
 Alpha  occ. eigenvalues --   -0.61881  -0.61584  -0.60999  -0.60218  -0.60175
 Alpha  occ. eigenvalues --   -0.59429  -0.59068  -0.58631  -0.58206  -0.57849
 Alpha  occ. eigenvalues --   -0.57359  -0.56904  -0.56527  -0.56196  -0.55959
 Alpha  occ. eigenvalues --   -0.55525  -0.55466  -0.55234  -0.55161  -0.55100
 Alpha  occ. eigenvalues --   -0.54410  -0.54173  -0.54004  -0.53853  -0.53703
 Alpha  occ. eigenvalues --   -0.53467  -0.53439  -0.53133  -0.52884  -0.52740
 Alpha  occ. eigenvalues --   -0.52514  -0.52274  -0.52015  -0.51766  -0.51651
 Alpha  occ. eigenvalues --   -0.51387  -0.51278  -0.51180  -0.51048  -0.50777
 Alpha  occ. eigenvalues --   -0.50383  -0.50245  -0.50092  -0.49880  -0.49571
 Alpha  occ. eigenvalues --   -0.49431  -0.49344  -0.49178  -0.49089  -0.48603
 Alpha  occ. eigenvalues --   -0.48383  -0.48136  -0.48015  -0.47816  -0.47755
 Alpha  occ. eigenvalues --   -0.47635  -0.47368  -0.47297  -0.47216  -0.47108
 Alpha  occ. eigenvalues --   -0.46829  -0.46720  -0.46292  -0.46200  -0.46088
 Alpha  occ. eigenvalues --   -0.45927  -0.45525  -0.45215  -0.44860  -0.44850
 Alpha  occ. eigenvalues --   -0.44694  -0.44518  -0.44503  -0.44304  -0.44090
 Alpha  occ. eigenvalues --   -0.44025  -0.43819  -0.43688  -0.43546  -0.43378
 Alpha  occ. eigenvalues --   -0.43314  -0.43053  -0.42561  -0.42265  -0.42135
 Alpha  occ. eigenvalues --   -0.41972  -0.41463  -0.41298  -0.41063  -0.40710
 Alpha  occ. eigenvalues --   -0.40377  -0.40085  -0.40036  -0.39691  -0.39483
 Alpha  occ. eigenvalues --   -0.39023  -0.38803  -0.38515  -0.38315  -0.38100
 Alpha  occ. eigenvalues --   -0.37775  -0.36889  -0.36878  -0.36541  -0.36215
 Alpha  occ. eigenvalues --   -0.36027  -0.35970  -0.35428  -0.33919  -0.33181
 Alpha  occ. eigenvalues --   -0.32678  -0.32417  -0.31638  -0.30508  -0.26497
 Alpha  occ. eigenvalues --   -0.23642
 Alpha virt. eigenvalues --   -0.08150  -0.00152   0.02221   0.03979   0.04718
 Alpha virt. eigenvalues --    0.06469   0.06583   0.07295   0.08226   0.09438
 Alpha virt. eigenvalues --    0.10499   0.11252   0.11820   0.11938   0.12641

 Mulliken charges:
               1
     1  Mg   0.960233
     2  C    0.007148
     3  C   -0.083133
     4  C   -0.084011
     5  C   -0.096454
     6  N   -0.329928
     7  C   -0.003132
     8  C   -0.017193
     9  C   -0.094125
    10  C    0.037823
    11  C    0.041577
    12  C    0.003010
    13  C   -0.024054
    14  C    0.189657
    15  O   -0.274862
    16  O   -0.350461
    17  N   -0.448397
    18  C    0.171874
    19  C   -0.181649
    20  C   -0.096712
    21  C    0.137595
    22  C    0.086364
    23  C    0.013468
    24  O   -0.209685
    25  C   -0.015020
    26  N   -0.361584
    27  C    0.084424
    28  C   -0.139146
    29  C   -0.084202
    30  C    0.074773
    31  C    0.050080
    32  C   -0.015357
    33  C   -0.044791
    34  N   -0.441788
    35  C    0.139456
    36  C   -0.188530
    37  C    0.059112
    38  C    0.108311
    39  C    0.078483
    40  C    0.062281
    41  O   -0.215360
    42  C   -0.125919
    43  C    0.313356
    44  O   -0.255134
    45  O   -0.379400
    46  C    0.144843
    47  C    0.235995
    48  C   -0.152410
    49  C   -0.155966
    50  C    0.012827
    51  C    0.040178
    52  C   -0.052380
    53  C   -0.040518
    54  C   -0.138663
    55  C   -0.027057
    56  C    0.032414
    57  C   -0.056226
    58  C    0.022705
    59  C   -0.169340
    60  C   -0.014278
    61  C    0.027897
    62  C   -0.039888
    63  C   -0.018059
    64  C   -0.186655
    65  C    0.004381
    66  C   -0.012695
    67  H    0.008977
    68  H    0.003726
    69  H   -0.014029
    70  H    0.042754
    71  H    0.050174
    72  H    0.035838
    73  H    0.043448
    74  H    0.027671
    75  H    0.064558
    76  H    0.045447
    77  H    0.061489
    78  H    0.062685
    79  H    0.031946
    80  H    0.063358
    81  H    0.053718
    82  H    0.032537
    83  H    0.070788
    84  H    0.058209
    85  H    0.055895
    86  H    0.040812
    87  H    0.039103
    88  H    0.039529
    89  H    0.032434
    90  H    0.030157
    91  H    0.027615
    92  H    0.056506
    93  H    0.025991
    94  H    0.030958
    95  H    0.061302
    96  H    0.060842
    97  H    0.032078
    98  H    0.069992
    99  H    0.053533
   100  H    0.054377
   101  H    0.058672
   102  H    0.052652
   103  H    0.043577
   104  H    0.024083
   105  H    0.039864
   106  H    0.035740
   107  H    0.029798
   108  H    0.052630
   109  H    0.024697
   110  H    0.036048
   111  H    0.022284
   112  H    0.012593
   113  H    0.021073
   114  H    0.018141
   115  H    0.027688
   116  H    0.024800
   117  H    0.027805
   118  H    0.029950
   119  H    0.027638
   120  H    0.022439
   121  H    0.009669
   122  H    0.009845
   123  H    0.016146
   124  H    0.007641
   125  H    0.028351
   126  H    0.021051
   127  H    0.032432
   128  H    0.016168
   129  H    0.014962
   130  H    0.021154
   131  H    0.019197
   132  H    0.000867
   133  H    0.008643
   134  H    0.025945
   135  H    0.022373
   136  H    0.038407
   137  H    0.022332
   138  H    0.035926
   139  H    0.024485
   140  H    0.021719
 Sum of Mulliken charges =  -0.00000

 Dipole moment (field-independent basis, Debye):
    X=              1.7007    Y=              5.5696    Z=              2.2107  Tot=              6.2290
 Quadrupole moment (field-independent basis, Debye-Ang):
   XX=           -359.9974   YY=           -451.6890   ZZ=           -397.2823
   XY=              9.4507   XZ=             13.5686   YZ=             39.7956

 Normal termination of Gaussian 16 at Fri Apr 29 21:33:53 2022.
