 Gaussian 16, Revision A.03,
 Gaussian 16:  ES64L-G16RevA.03 25-Dec-2016

 --------------------
 #p ZINDO=(nstates=5)
 --------------------

 -----------------------------
 step_501_chromophore_14 ZINDO
 -----------------------------
 Symbolic Z-matrix:
 Charge =  0 Multiplicity = 1

                         Standard orientation:
 ---------------------------------------------------------------------
 Center     Atomic      Atomic             Coordinates (Angstroms)
 Number     Number       Type             X           Y           Z
 ---------------------------------------------------------------------
      1         12           0        5.085678    0.954274   -0.053364
      2          6           0        4.943160   -2.443427    0.270953
      3          6           0        4.101591    0.517344   -3.445014
      4          6           0        4.828050    4.308892   -0.310432
      5          6           0        5.123226    1.253742    3.417377
      6          7           0        4.194819   -0.840533   -1.363274
      7          6           0        4.491701   -2.130970   -1.041788
      8          6           0        4.050930   -3.046649   -2.150031
      9          6           0        3.741475   -2.072213   -3.368331
     10          6           0        4.030561   -0.671019   -2.742811
     11          6           0        4.202750   -2.519544   -4.707228
     12          6           0        2.926861   -4.152912   -1.870688
     13          6           0        1.863934   -3.843485   -0.858557
     14          6           0        0.421411   -4.105257   -1.268306
     15          8           0       -0.029197   -5.220647   -1.524736
     16          8           0       -0.331875   -2.955507   -1.274451
     17          7           0        4.775567    2.213291   -1.708103
     18          6           0        4.424602    1.870029   -2.976863
     19          6           0        4.252152    3.017352   -3.818015
     20          6           0        4.584018    4.161217   -2.923173
     21          6           0        4.753946    3.583568   -1.571993
     22          6           0        3.890599    3.066443   -5.225440
     23          6           0        4.724003    5.636070   -3.271836
     24          8           0        4.415286    6.031971   -4.339384
     25          6           0        5.142812    6.739167   -2.339851
     26          7           0        4.860752    2.509068    1.335852
     27          6           0        4.962063    3.793331    0.960679
     28          6           0        4.738163    4.777507    2.224900
     29          6           0        5.220084    3.779130    3.386991
     30          6           0        5.002613    2.459613    2.685449
     31          6           0        5.516474    6.095732    2.190232
     32          6           0        4.493197    4.021781    4.722054
     33          6           0        5.277866    4.122197    6.035464
     34          7           0        4.931848   -0.322061    1.548389
     35          6           0        5.000478   -0.097680    2.917775
     36          6           0        5.085232   -1.307807    3.638882
     37          6           0        5.123543   -2.293942    2.666960
     38          6           0        5.026451   -1.650675    1.382400
     39          6           0        5.199713   -1.488285    5.121044
     40          6           0        5.260224   -3.653388    2.345858
     41          8           0        5.377036   -4.593838    3.128920
     42          6           0        4.980410   -3.846525    0.828209
     43          6           0        6.163628   -4.682761    0.363438
     44          8           0        6.059265   -5.749283   -0.278754
     45          8           0        7.307075   -3.976268    0.653240
     46          6           0        8.634246   -4.373587    0.122926
     47          6           0       -1.781294   -3.210680   -1.388386
     48          6           0       -2.563763   -2.170942   -0.572765
     49          6           0       -3.305130   -1.130099   -1.030948
     50          6           0       -3.479906   -0.824720   -2.568156
     51          6           0       -3.916975   -0.025072   -0.127182
     52          6           0       -5.355972    0.341185   -0.403030
     53          6           0       -6.259831    0.135437    0.886264
     54          6           0       -7.844560    0.239339    0.781228
     55          6           0       -8.512811    1.547080    1.336120
     56          6           0       -8.616889   -0.973081    1.209839
     57          6           0       -9.914416   -1.271057    0.262082
     58          6           0      -11.106588   -1.797535    1.031910
     59          6           0      -12.243475   -0.797557    1.209533
     60          6           0      -13.133943   -1.060143    2.530500
     61          6           0      -13.087505   -0.557883   -0.000865
     62          6           0      -13.229274    0.926238   -0.545750
     63          6           0      -14.421057    1.630885    0.048326
     64          6           0      -15.871046    1.340981   -0.564307
     65          6           0      -16.394103    2.620886   -1.216342
     66          6           0      -16.778069    0.829437    0.575677
     67          1           0        3.679248    0.323238   -4.433082
     68          1           0        4.544178    5.361439   -0.371861
     69          1           0        5.206665    1.358448    4.500802
     70          1           0        4.881386   -3.708386   -2.398807
     71          1           0        2.655644   -2.037718   -3.452283
     72          1           0        4.743422   -1.750732   -5.259099
     73          1           0        3.401993   -2.977658   -5.287783
     74          1           0        4.949661   -3.304092   -4.585581
     75          1           0        3.313377   -5.105295   -1.507635
     76          1           0        2.327271   -4.293268   -2.770616
     77          1           0        1.983089   -2.888222   -0.348393
     78          1           0        1.947319   -4.598289   -0.075930
     79          1           0        4.269107    2.169551   -5.714769
     80          1           0        4.268479    3.941965   -5.752079
     81          1           0        2.800825    3.074272   -5.267079
     82          1           0        5.809023    6.113426   -1.745476
     83          1           0        4.320284    7.119609   -1.735006
     84          1           0        5.650232    7.597758   -2.779986
     85          1           0        3.658396    4.902362    2.311710
     86          1           0        6.278306    3.750470    3.645515
     87          1           0        6.331042    5.999892    2.908661
     88          1           0        4.834141    6.941327    2.271748
     89          1           0        5.996833    6.284541    1.230637
     90          1           0        3.770548    3.212752    4.831890
     91          1           0        3.854242    4.896240    4.598025
     92          1           0        5.078425    4.963013    6.699980
     93          1           0        6.353991    4.008650    5.898060
     94          1           0        5.053142    3.163036    6.500859
     95          1           0        5.805858   -2.339720    5.431413
     96          1           0        4.196665   -1.607130    5.531420
     97          1           0        5.682301   -0.647820    5.621583
     98          1           0        4.033792   -4.385533    0.826832
     99          1           0        9.243799   -3.517258   -0.165073
    100          1           0        8.473574   -5.007298   -0.749403
    101          1           0        9.322290   -4.961568    0.729069
    102          1           0       -2.106261   -4.101541   -0.851217
    103          1           0       -2.099787   -3.338158   -2.422702
    104          1           0       -2.365013   -2.304324    0.491325
    105          1           0       -4.476901   -0.661246   -2.976509
    106          1           0       -2.938353   -1.491636   -3.239289
    107          1           0       -3.102137    0.191159   -2.687136
    108          1           0       -3.313472    0.882396   -0.134515
    109          1           0       -3.761852   -0.536985    0.822857
    110          1           0       -5.857560   -0.159974   -1.230893
    111          1           0       -5.430774    1.414203   -0.582456
    112          1           0       -5.881127    0.949174    1.503498
    113          1           0       -5.914121   -0.800855    1.323862
    114          1           0       -7.883801    0.404307   -0.294699
    115          1           0       -9.176865    1.586927    2.199930
    116          1           0       -9.251495    1.840470    0.589970
    117          1           0       -7.771970    2.325407    1.521562
    118          1           0       -8.948544   -0.825537    2.237815
    119          1           0       -7.988939   -1.858233    1.109977
    120          1           0       -9.670021   -1.915512   -0.582062
    121          1           0      -10.276448   -0.363383   -0.222084
    122          1           0      -10.629071   -2.088290    1.967094
    123          1           0      -11.497938   -2.711007    0.585726
    124          1           0      -11.744528    0.133247    1.478665
    125          1           0      -12.779769   -1.953167    3.045288
    126          1           0      -14.192185   -1.220866    2.323257
    127          1           0      -13.106185   -0.192262    3.190301
    128          1           0      -14.100354   -0.908065    0.197272
    129          1           0      -12.691263   -1.047454   -0.890958
    130          1           0      -13.246160    0.935524   -1.635153
    131          1           0      -12.378533    1.514652   -0.202128
    132          1           0      -14.213712    2.683933   -0.139612
    133          1           0      -14.431297    1.552049    1.135305
    134          1           0      -15.686009    0.560572   -1.302535
    135          1           0      -16.988464    3.189288   -0.500948
    136          1           0      -16.933758    2.447896   -2.148079
    137          1           0      -15.591916    3.333943   -1.407727
    138          1           0      -16.294355    0.201285    1.323555
    139          1           0      -17.614927    0.369079    0.050940
    140          1           0      -17.325797    1.555766    1.175980
 ---------------------------------------------------------------------

 SCF Done:  E(RZINDO/S) =  -474.127340864     A.U. after   20 cycles

 Excitation energies and oscillator strengths:

 Excited State   1:      Singlet-A      1.1816 eV 1049.26 nm  f=0.5804  <S**2>=0.000
     175 ->178         0.18015
     176 ->177         0.66642
 This state for optimization and/or second-order correction.
 Total Energy, E(CIS/TDA) =  -474.083916722
 Copying the excited state density for this state as the 1-particle RhoCI density.

 Excited State   2:      Singlet-A      1.8465 eV  671.44 nm  f=0.0894  <S**2>=0.000
     175 ->177         0.57653
     176 ->178        -0.37626

 Excited State   3:      Singlet-A      2.7155 eV  456.58 nm  f=0.0031  <S**2>=0.000
     168 ->177         0.35972
     168 ->179        -0.34493
     168 ->182         0.13304
     168 ->185        -0.14704
     169 ->177        -0.12490
     169 ->179         0.11547
     170 ->177         0.21880
     170 ->179        -0.15817

 Excited State   4:      Singlet-A      2.7900 eV  444.39 nm  f=0.0025  <S**2>=0.000
     171 ->177        -0.16801
     171 ->178         0.10828
     171 ->179        -0.16529
     171 ->181         0.19511
     171 ->182        -0.19341
     171 ->184         0.13860
     171 ->185        -0.18861
     171 ->187        -0.19027
     171 ->190         0.11605
     171 ->198         0.11683
     172 ->177        -0.10574
     174 ->177         0.38831
     174 ->179         0.11223

 Excited State   5:      Singlet-A      2.9454 eV  420.94 nm  f=0.0064  <S**2>=0.000
     171 ->177         0.23797
     171 ->179         0.12838
     171 ->181        -0.12813
     171 ->182         0.12255
     171 ->185         0.11636
     171 ->187         0.11992
     172 ->177        -0.11988
     174 ->177         0.52787

 The electronic state is 1-A.
 Alpha  occ. eigenvalues --   -1.87169  -1.80951  -1.78087  -1.72696  -1.71311
 Alpha  occ. eigenvalues --   -1.70050  -1.64797  -1.62052  -1.59206  -1.58567
 Alpha  occ. eigenvalues --   -1.54512  -1.51001  -1.49361  -1.48313  -1.47611
 Alpha  occ. eigenvalues --   -1.45789  -1.43059  -1.41183  -1.38991  -1.37493
 Alpha  occ. eigenvalues --   -1.36604  -1.35379  -1.32507  -1.30718  -1.28852
 Alpha  occ. eigenvalues --   -1.27444  -1.26707  -1.22560  -1.20054  -1.19585
 Alpha  occ. eigenvalues --   -1.16627  -1.16144  -1.14972  -1.14310  -1.13882
 Alpha  occ. eigenvalues --   -1.13407  -1.10301  -1.09192  -1.06573  -1.04963
 Alpha  occ. eigenvalues --   -1.02867  -1.01876  -0.99681  -0.98233  -0.97691
 Alpha  occ. eigenvalues --   -0.95629  -0.94438  -0.94043  -0.92839  -0.91871
 Alpha  occ. eigenvalues --   -0.90825  -0.89710  -0.89429  -0.88105  -0.87267
 Alpha  occ. eigenvalues --   -0.86264  -0.85760  -0.84115  -0.83031  -0.80546
 Alpha  occ. eigenvalues --   -0.80033  -0.79125  -0.78199  -0.77574  -0.77249
 Alpha  occ. eigenvalues --   -0.76522  -0.75927  -0.74514  -0.74111  -0.73790
 Alpha  occ. eigenvalues --   -0.73186  -0.72848  -0.72537  -0.71713  -0.71238
 Alpha  occ. eigenvalues --   -0.70989  -0.69436  -0.69197  -0.68747  -0.68122
 Alpha  occ. eigenvalues --   -0.67173  -0.67121  -0.66070  -0.65603  -0.65314
 Alpha  occ. eigenvalues --   -0.64466  -0.64328  -0.64242  -0.64068  -0.63705
 Alpha  occ. eigenvalues --   -0.63613  -0.63400  -0.62897  -0.62480  -0.61992
 Alpha  occ. eigenvalues --   -0.61614  -0.61419  -0.61084  -0.60776  -0.59537
 Alpha  occ. eigenvalues --   -0.59264  -0.59011  -0.58533  -0.58404  -0.58204
 Alpha  occ. eigenvalues --   -0.58028  -0.57798  -0.57098  -0.57046  -0.56315
 Alpha  occ. eigenvalues --   -0.56062  -0.55838  -0.55404  -0.54804  -0.54637
 Alpha  occ. eigenvalues --   -0.53897  -0.53562  -0.53373  -0.53067  -0.53009
 Alpha  occ. eigenvalues --   -0.52858  -0.52714  -0.52361  -0.52323  -0.51796
 Alpha  occ. eigenvalues --   -0.51780  -0.51340  -0.50998  -0.50750  -0.50289
 Alpha  occ. eigenvalues --   -0.49975  -0.49860  -0.49697  -0.49463  -0.49317
 Alpha  occ. eigenvalues --   -0.48989  -0.48786  -0.48458  -0.48204  -0.48118
 Alpha  occ. eigenvalues --   -0.47728  -0.47287  -0.47245  -0.46941  -0.46662
 Alpha  occ. eigenvalues --   -0.45875  -0.45808  -0.45548  -0.45444  -0.45314
 Alpha  occ. eigenvalues --   -0.45079  -0.44826  -0.44695  -0.44511  -0.44198
 Alpha  occ. eigenvalues --   -0.44174  -0.43448  -0.42821  -0.42425  -0.42309
 Alpha  occ. eigenvalues --   -0.42167  -0.41983  -0.41924  -0.39584  -0.38851
 Alpha  occ. eigenvalues --   -0.38816  -0.37486  -0.35760  -0.35106  -0.34359
 Alpha  occ. eigenvalues --   -0.33589  -0.33084  -0.32833  -0.31107  -0.27275
 Alpha  occ. eigenvalues --   -0.22542
 Alpha virt. eigenvalues --   -0.09690  -0.02571  -0.01113   0.00201   0.01110
 Alpha virt. eigenvalues --    0.01639   0.01996   0.02665   0.04028   0.04396
 Alpha virt. eigenvalues --    0.05509   0.06507   0.06933   0.07602   0.07809

 Mulliken charges:
               1
     1  Mg   0.443544
     2  C   -0.061320
     3  C   -0.075401
     4  C   -0.072872
     5  C   -0.086295
     6  N   -0.310117
     7  C    0.173938
     8  C    0.008445
     9  C    0.006056
    10  C    0.100037
    11  C   -0.043001
    12  C   -0.019003
    13  C    0.003443
    14  C    0.470716
    15  O   -0.524087
    16  O   -0.262204
    17  N   -0.307620
    18  C    0.095878
    19  C    0.018465
    20  C   -0.079266
    21  C    0.097452
    22  C   -0.027587
    23  C    0.323953
    24  O   -0.518286
    25  C   -0.031799
    26  N   -0.255273
    27  C    0.093299
    28  C   -0.008329
    29  C    0.000411
    30  C    0.152748
    31  C   -0.054411
    32  C   -0.028709
    33  C   -0.059237
    34  N   -0.341473
    35  C    0.116195
    36  C    0.066266
    37  C   -0.043182
    38  C    0.140953
    39  C   -0.034268
    40  C    0.329749
    41  O   -0.527097
    42  C    0.049342
    43  C    0.491414
    44  O   -0.524682
    45  O   -0.263728
    46  C    0.072941
    47  C    0.101372
    48  C   -0.082008
    49  C   -0.011976
    50  C   -0.056115
    51  C   -0.015389
    52  C   -0.029349
    53  C   -0.048609
    54  C   -0.007657
    55  C   -0.063545
    56  C   -0.025883
    57  C   -0.045174
    58  C   -0.027374
    59  C   -0.002440
    60  C   -0.067927
    61  C   -0.030644
    62  C   -0.035566
    63  C   -0.042773
    64  C   -0.006208
    65  C   -0.053816
    66  C   -0.058520
    67  H    0.031696
    68  H    0.036307
    69  H    0.026821
    70  H    0.031660
    71  H    0.026479
    72  H    0.024752
    73  H    0.026387
    74  H    0.014063
    75  H    0.042192
    76  H    0.033296
    77  H    0.034616
    78  H    0.037049
    79  H    0.019407
    80  H    0.041340
    81  H    0.035569
    82  H    0.021931
    83  H    0.041749
    84  H    0.043331
    85  H    0.041193
    86  H    0.042592
    87  H    0.026891
    88  H    0.025866
    89  H    0.017890
    90  H    0.016148
    91  H    0.015904
    92  H    0.033878
    93  H    0.017085
    94  H    0.014787
    95  H    0.036923
    96  H    0.037863
    97  H    0.021745
    98  H    0.066897
    99  H    0.034364
   100  H    0.041465
   101  H    0.047601
   102  H    0.045772
   103  H    0.050768
   104  H    0.031396
   105  H    0.030126
   106  H    0.024447
   107  H    0.019010
   108  H    0.032925
   109  H    0.021569
   110  H    0.026927
   111  H    0.014247
   112  H    0.012074
   113  H    0.019428
   114  H    0.015699
   115  H    0.023086
   116  H    0.012928
   117  H    0.017159
   118  H    0.028082
   119  H    0.018390
   120  H    0.019153
   121  H    0.015731
   122  H    0.014668
   123  H    0.015299
   124  H    0.013833
   125  H    0.018768
   126  H    0.018057
   127  H    0.019166
   128  H    0.021572
   129  H    0.012108
   130  H    0.022604
   131  H    0.014541
   132  H    0.003949
   133  H    0.019651
   134  H    0.026224
   135  H    0.018025
   136  H    0.020178
   137  H    0.015987
   138  H    0.024323
   139  H    0.009772
   140  H    0.018225
 Sum of Mulliken charges =  -0.00000

 Dipole moment (field-independent basis, Debye):
    X=              2.0424    Y=              6.3555    Z=              4.9476  Tot=              8.3092
 N-N= 4.297141499859D+03 E-N= 0.000000000000D+00  KE=-9.267669773979D+03
 Leave Link  601 at Fri Apr 29 21:47:32 2022, MaxMem=  6710886400 cpu:               0.8 elap:               0.0
 (Enter /sw/apps/gaussian-16.0/g16/l9999.exe)
 1\1\GINC-BP1-COMPUTE082\SP\RZINDO CIS\STO-3G\C55H74Mg1N4O6\OF15641\29-
 Apr-2022\0\\#p ZINDO=(nstates=5)\\step_501_chromophore_14 ZINDO\\0,1\M
 g,0,46.488,44.181,43.475\C,0,43.153,43.461,43.304\C,0,47.108,40.756,42
 .735\C,0,49.771,44.925,43.242\C,0,45.735,47.576,43.265\N,0,45.188,42.3
 36,42.677\C,0,43.854,42.275,42.948\C,0,43.322,40.916,42.586\C,0,44.623
 ,40.028,42.366\C,0,45.766,41.063,42.612\C,0,44.586,38.651,42.921\C,0,4
 2.209,40.774,41.443\C,0,42.226,41.758,40.311\C,0,42.132,41.192,38.901\

 Normal termination of Gaussian 16 at Fri Apr 29 21:47:32 2022.
