 Gaussian 16, Revision A.03,
 Gaussian 16:  ES64L-G16RevA.03 25-Dec-2016

 ------------------------------
 #p blyp/Def2SVP td=(nstates=5)
 ------------------------------

 --------------------------------------------------
 step_401_chromophore_23 TDDFT with blyp functional
 --------------------------------------------------
 Symbolic Z-matrix:
 Charge =  0 Multiplicity = 1

                         Standard orientation:
 ---------------------------------------------------------------------
 Center     Atomic      Atomic             Coordinates (Angstroms)
 Number     Number       Type             X           Y           Z
 ---------------------------------------------------------------------
      1         12           0        4.737604    0.982316   -0.590313
      2          6           0        3.833720   -2.279194   -0.701320
      3          6           0        1.738806    1.853385   -2.048106
      4          6           0        5.146758    4.295789    0.369361
      5          6           0        7.326378    0.163017    1.620049
      6          7           0        2.888036   -0.101070   -1.091963
      7          6           0        2.785633   -1.464607   -1.203263
      8          6           0        1.496244   -1.938554   -1.791177
      9          6           0        0.870348   -0.571498   -2.317380
     10          6           0        1.881701    0.482022   -1.851568
     11          6           0        0.642674   -0.494376   -3.908055
     12          6           0        0.647158   -2.610230   -0.678018
     13          6           0        0.012298   -3.987286   -0.943385
     14          6           0       -1.363473   -3.942829   -1.633401
     15          8           0       -1.632675   -3.486269   -2.741172
     16          8           0       -2.322747   -4.287382   -0.650541
     17          7           0        3.688527    2.898068   -0.989432
     18          6           0        2.467282    2.996827   -1.676736
     19          6           0        2.097133    4.385291   -1.699077
     20          6           0        3.072605    5.149808   -0.985234
     21          6           0        4.091098    4.103373   -0.488954
     22          6           0        0.761306    4.932107   -2.229905
     23          6           0        2.926245    6.658445   -0.680077
     24          8           0        1.925468    7.242663   -1.115706
     25          6           0        3.945363    7.520871    0.026774
     26          7           0        5.994055    2.155844    0.815227
     27          6           0        6.037257    3.426389    0.975072
     28          6           0        7.084910    3.763777    2.118707
     29          6           0        7.712913    2.451768    2.474032
     30          6           0        6.978155    1.493103    1.576703
     31          6           0        8.158332    4.835006    1.682310
     32          6           0        7.588410    2.048275    3.977509
     33          6           0        8.825533    1.376263    4.640527
     34          7           0        5.613803   -0.780709    0.145845
     35          6           0        6.636766   -0.965861    1.015253
     36          6           0        6.892881   -2.399228    1.176997
     37          6           0        5.750744   -3.015718    0.407795
     38          6           0        5.018536   -1.923374   -0.097350
     39          6           0        7.922858   -3.059971    2.058358
     40          6           0        5.066507   -4.275056    0.042081
     41          8           0        5.301646   -5.417921    0.302133
     42          6           0        3.913535   -3.851370   -0.902536
     43          6           0        4.302086   -4.187778   -2.316523
     44          8           0        4.938081   -3.583071   -3.162677
     45          8           0        4.059616   -5.528899   -2.487697
     46          6           0        4.199177   -6.012274   -3.854291
     47          6           0       -3.730832   -3.888912   -0.804318
     48          6           0       -4.352623   -3.734799    0.610202
     49          6           0       -4.116048   -2.677940    1.443244
     50          6           0       -3.151957   -1.536503    1.091265
     51          6           0       -4.793123   -2.532970    2.825421
     52          6           0       -6.320231   -2.072034    2.801407
     53          6           0       -7.263531   -3.210561    3.278451
     54          6           0       -8.590292   -3.273014    2.402708
     55          6           0       -9.421524   -4.555482    2.803398
     56          6           0       -9.464005   -2.076991    2.587198
     57          6           0       -9.391560   -0.993091    1.497687
     58          6           0       -9.149127    0.422007    2.138252
     59          6           0       -8.744566    1.429965    1.045606
     60          6           0       -7.206422    1.594820    0.862534
     61          6           0       -9.578026    2.779696    1.041873
     62          6           0       -9.932731    3.175843   -0.412761
     63          6           0      -11.371683    2.977407   -0.908373
     64          6           0      -12.103605    4.123445   -1.695085
     65          6           0      -13.647260    4.198394   -1.352873
     66          6           0      -11.761098    4.102695   -3.163973
     67          1           0        0.995994    2.210089   -2.764479
     68          1           0        5.185389    5.295972    0.806099
     69          1           0        8.201791   -0.082506    2.225293
     70          1           0        1.668128   -2.681614   -2.571112
     71          1           0       -0.088827   -0.379109   -1.835486
     72          1           0        1.614321   -0.138235   -4.248554
     73          1           0       -0.093355    0.205172   -4.302648
     74          1           0        0.437008   -1.499110   -4.277269
     75          1           0       -0.205534   -1.991180   -0.400179
     76          1           0        1.249781   -2.740360    0.221319
     77          1           0        0.041986   -4.753873   -0.169227
     78          1           0        0.559796   -4.406299   -1.787823
     79          1           0        0.044485    5.239982   -1.467802
     80          1           0        0.211378    4.186579   -2.804937
     81          1           0        0.918376    5.697949   -2.989437
     82          1           0        3.687511    8.580266    0.053981
     83          1           0        4.889953    7.432066   -0.509006
     84          1           0        3.957303    7.224500    1.075549
     85          1           0        6.438197    4.178544    2.891904
     86          1           0        8.749318    2.323621    2.162187
     87          1           0        9.143100    4.499403    2.007927
     88          1           0        8.013656    5.783609    2.198465
     89          1           0        8.087548    5.088663    0.625178
     90          1           0        6.707462    1.412042    4.069259
     91          1           0        7.567728    3.000322    4.507257
     92          1           0        9.335511    0.742786    3.914604
     93          1           0        8.573007    0.759650    5.504000
     94          1           0        9.501020    2.115296    5.070550
     95          1           0        8.900229   -3.102708    1.578248
     96          1           0        7.551243   -3.986593    2.496923
     97          1           0        8.112893   -2.474384    2.957899
     98          1           0        2.939267   -4.210175   -0.571366
     99          1           0        5.078534   -6.649960   -3.948003
    100          1           0        4.257058   -5.172035   -4.545883
    101          1           0        3.276349   -6.580061   -3.976017
    102          1           0       -4.185885   -4.740044   -1.310788
    103          1           0       -3.909587   -2.943506   -1.316997
    104          1           0       -5.126498   -4.439339    0.915294
    105          1           0       -2.659839   -1.753127    0.143069
    106          1           0       -2.430692   -1.493010    1.907262
    107          1           0       -3.722858   -0.608448    1.099223
    108          1           0       -4.157280   -1.802336    3.325149
    109          1           0       -4.615584   -3.482138    3.331905
    110          1           0       -6.450349   -1.839459    1.744026
    111          1           0       -6.461328   -1.232295    3.481415
    112          1           0       -7.572427   -2.911184    4.279738
    113          1           0       -6.706006   -4.145651    3.330498
    114          1           0       -8.277346   -3.373108    1.363423
    115          1           0       -9.536881   -5.210167    1.939049
    116          1           0      -10.265451   -4.282686    3.437581
    117          1           0       -8.802678   -5.157082    3.468244
    118          1           0       -9.306717   -1.632801    3.570937
    119          1           0      -10.517402   -2.354941    2.626383
    120          1           0      -10.404069   -1.053083    1.098378
    121          1           0       -8.725388   -1.154851    0.650531
    122          1           0       -8.330919    0.349978    2.855057
    123          1           0      -10.025986    0.789022    2.670532
    124          1           0       -8.951845    0.874347    0.131419
    125          1           0       -6.673769    1.062210    1.651095
    126          1           0       -6.982302    2.660780    0.826624
    127          1           0       -6.924530    1.121367   -0.078138
    128          1           0       -8.999577    3.554136    1.545326
    129          1           0      -10.447565    2.758248    1.699097
    130          1           0       -9.212158    2.785391   -1.129830
    131          1           0       -9.642032    4.221987   -0.503631
    132          1           0      -11.913218    2.485828   -0.100696
    133          1           0      -11.277098    2.134398   -1.593566
    134          1           0      -11.656125    5.033355   -1.296419
    135          1           0      -13.825439    4.063158   -0.285973
    136          1           0      -14.044024    3.360330   -1.927794
    137          1           0      -13.983594    5.109247   -1.848499
    138          1           0      -12.689139    4.359993   -3.674826
    139          1           0      -11.540393    3.076732   -3.459551
    140          1           0      -11.116748    4.925027   -3.472845
 ---------------------------------------------------------------------

 SCF Done:  E(RB-LYP) =  -3007.35331490     A.U. after   20 cycles

 Excitation energies and oscillator strengths:

 Excited State   1:      Singlet-A      1.7484 eV  709.14 nm  f=0.0030  <S**2>=0.000
     244 -> 247        0.69844
 This state for optimization and/or second-order correction.
 Total Energy, E(TD-HF/TD-DFT) =  -3007.28906352
 Copying the excited state density for this state as the 1-particle RhoCI density.

 Excited State   2:      Singlet-A      1.8452 eV  671.93 nm  f=0.3357  <S**2>=0.000
     245 -> 248        0.18381
     246 -> 247        0.68526
     246 <- 247       -0.14869

 Excited State   3:      Singlet-A      1.9411 eV  638.74 nm  f=0.0369  <S**2>=0.000
     243 -> 247       -0.43242
     245 -> 247        0.52804
     246 -> 248       -0.13874

 Excited State   4:      Singlet-A      2.1078 eV  588.21 nm  f=0.0394  <S**2>=0.000
     243 -> 247        0.55283
     245 -> 247        0.38087
     246 -> 248       -0.18054

 Excited State   5:      Singlet-A      2.4292 eV  510.39 nm  f=0.0013  <S**2>=0.000
     240 -> 247        0.63692
     242 -> 247        0.28645

 The electronic state is 1-A.
 Alpha  occ. eigenvalues --  -46.28834 -18.81410 -18.80784 -18.77979 -18.76748
 Alpha  occ. eigenvalues --  -18.75827 -18.75036 -14.03861 -14.03122 -14.00941
 Alpha  occ. eigenvalues --  -14.00868 -10.04645 -10.03860  -9.99987  -9.99826
 Alpha  occ. eigenvalues --   -9.98207  -9.97040  -9.96824  -9.96745  -9.96419
 Alpha  occ. eigenvalues --   -9.96360  -9.96147  -9.95857  -9.95760  -9.94903
 Alpha  occ. eigenvalues --   -9.94814  -9.94417  -9.94414  -9.94260  -9.94260
 Alpha  occ. eigenvalues --   -9.94156  -9.93989  -9.93971  -9.93592  -9.93512
 Alpha  occ. eigenvalues --   -9.93378  -9.93318  -9.93149  -9.93019  -9.92939
 Alpha  occ. eigenvalues --   -9.92757  -9.92702  -9.92547  -9.92452  -9.92440
 Alpha  occ. eigenvalues --   -9.92383  -9.92299  -9.92296  -9.92258  -9.92129
 Alpha  occ. eigenvalues --   -9.92065  -9.91897  -9.91687  -9.91673  -9.91564
 Alpha  occ. eigenvalues --   -9.91257  -9.91251  -9.91209  -9.91157  -9.90923
 Alpha  occ. eigenvalues --   -9.90859  -9.90806  -9.90776  -9.90767  -9.90672
 Alpha  occ. eigenvalues --   -9.90637  -2.93152  -1.73558  -1.73041  -1.72874
 Alpha  occ. eigenvalues --   -0.97679  -0.96363  -0.92738  -0.90534  -0.89804
 Alpha  occ. eigenvalues --   -0.89179  -0.87354  -0.86783  -0.85731  -0.83941
 Alpha  occ. eigenvalues --   -0.75505  -0.73704  -0.73429  -0.73199  -0.72457
 Alpha  occ. eigenvalues --   -0.71770  -0.71572  -0.70589  -0.70561  -0.69544
 Alpha  occ. eigenvalues --   -0.68850  -0.68466  -0.67787  -0.67404  -0.67298
 Alpha  occ. eigenvalues --   -0.66437  -0.65996  -0.65262  -0.65162  -0.64608
 Alpha  occ. eigenvalues --   -0.63990  -0.62524  -0.62260  -0.60981  -0.60410
 Alpha  occ. eigenvalues --   -0.60293  -0.60127  -0.59830  -0.59465  -0.58984
 Alpha  occ. eigenvalues --   -0.58257  -0.57635  -0.56960  -0.55896  -0.55038
 Alpha  occ. eigenvalues --   -0.53949  -0.53757  -0.53039  -0.52332  -0.51870
 Alpha  occ. eigenvalues --   -0.51340  -0.51315  -0.50835  -0.50593  -0.50044
 Alpha  occ. eigenvalues --   -0.49368  -0.49038  -0.48600  -0.48152  -0.46331
 Alpha  occ. eigenvalues --   -0.46034  -0.45762  -0.45308  -0.45206  -0.45142
 Alpha  occ. eigenvalues --   -0.44215  -0.43624  -0.43053  -0.42911  -0.42601
 Alpha  occ. eigenvalues --   -0.42406  -0.42054  -0.41906  -0.41441  -0.41160
 Alpha  occ. eigenvalues --   -0.40739  -0.40381  -0.40214  -0.40136  -0.39743
 Alpha  occ. eigenvalues --   -0.39567  -0.39546  -0.39374  -0.39264  -0.39071
 Alpha  occ. eigenvalues --   -0.38857  -0.38598  -0.38504  -0.38410  -0.38218
 Alpha  occ. eigenvalues --   -0.37969  -0.37692  -0.37341  -0.37228  -0.37202
 Alpha  occ. eigenvalues --   -0.36994  -0.36770  -0.36645  -0.36448  -0.36381
 Alpha  occ. eigenvalues --   -0.36191  -0.35959  -0.35796  -0.35700  -0.35671
 Alpha  occ. eigenvalues --   -0.35403  -0.35321  -0.35228  -0.34941  -0.34827
 Alpha  occ. eigenvalues --   -0.34692  -0.34410  -0.34256  -0.34095  -0.33866
 Alpha  occ. eigenvalues --   -0.33688  -0.33537  -0.33404  -0.33225  -0.33090
 Alpha  occ. eigenvalues --   -0.33053  -0.32802  -0.32723  -0.32583  -0.32419
 Alpha  occ. eigenvalues --   -0.32215  -0.32056  -0.31798  -0.31669  -0.31266
 Alpha  occ. eigenvalues --   -0.31147  -0.31096  -0.30825  -0.30756  -0.30467
 Alpha  occ. eigenvalues --   -0.30222  -0.30178  -0.29976  -0.29817  -0.29756
 Alpha  occ. eigenvalues --   -0.29680  -0.29495  -0.29472  -0.29282  -0.29195
 Alpha  occ. eigenvalues --   -0.28952  -0.28756  -0.28502  -0.28452  -0.28419
 Alpha  occ. eigenvalues --   -0.27684  -0.27406  -0.27317  -0.26707  -0.26470
 Alpha  occ. eigenvalues --   -0.26155  -0.26090  -0.25603  -0.25366  -0.24740
 Alpha  occ. eigenvalues --   -0.24711  -0.24437  -0.24226  -0.24050  -0.23287
 Alpha  occ. eigenvalues --   -0.23246  -0.22755  -0.22233  -0.22088  -0.20609
 Alpha  occ. eigenvalues --   -0.20248  -0.20025  -0.19027  -0.18017  -0.17392
 Alpha  occ. eigenvalues --   -0.16040
 Alpha virt. eigenvalues --   -0.11677  -0.06748  -0.06255  -0.04836  -0.04205
 Alpha virt. eigenvalues --   -0.03492  -0.02830  -0.02544  -0.01881   0.00211
 Alpha virt. eigenvalues --    0.01185   0.01647   0.02173   0.02541   0.02766

 Mulliken charges:
               1
     1  Mg   0.684427
     2  C   -0.063877
     3  C   -0.037315
     4  C   -0.046883
     5  C   -0.065410
     6  N   -0.244224
     7  C   -0.101138
     8  C    0.076984
     9  C    0.020833
    10  C    0.053388
    11  C    0.096429
    12  C    0.112767
    13  C    0.127689
    14  C    0.073675
    15  O   -0.190105
    16  O   -0.306349
    17  N   -0.272918
    18  C    0.083242
    19  C   -0.118635
    20  C    0.021605
    21  C    0.121220
    22  C    0.199567
    23  C   -0.083137
    24  O   -0.184188
    25  C    0.153348
    26  N   -0.182131
    27  C   -0.040832
    28  C    0.041572
    29  C    0.040562
    30  C    0.021395
    31  C    0.117459
    32  C    0.097692
    33  C    0.046532
    34  N   -0.225423
    35  C    0.087039
    36  C   -0.161353
    37  C    0.021403
    38  C    0.137428
    39  C    0.170749
    40  C   -0.053305
    41  O   -0.088657
    42  C    0.041156
    43  C    0.145341
    44  O   -0.178209
    45  O   -0.271705
    46  C    0.202434
    47  C    0.308024
    48  C   -0.093438
    49  C   -0.197018
    50  C    0.132068
    51  C    0.125311
    52  C    0.068410
    53  C    0.093717
    54  C   -0.101624
    55  C    0.133362
    56  C    0.136403
    57  C    0.045427
    58  C    0.098429
    59  C   -0.103011
    60  C    0.113157
    61  C    0.121606
    62  C    0.064209
    63  C    0.109182
    64  C   -0.102769
    65  C    0.104670
    66  C    0.146458
    67  H   -0.050826
    68  H   -0.085155
    69  H   -0.073866
    70  H   -0.019565
    71  H   -0.009244
    72  H   -0.006995
    73  H    0.005591
    74  H    0.011243
    75  H   -0.016545
    76  H   -0.001469
    77  H    0.002459
    78  H   -0.012063
    79  H    0.012265
    80  H   -0.052421
    81  H    0.002735
    82  H   -0.013265
    83  H    0.014090
    84  H    0.015658
    85  H   -0.016851
    86  H   -0.024767
    87  H   -0.006356
    88  H   -0.018284
    89  H    0.000665
    90  H   -0.001731
    91  H   -0.019708
    92  H   -0.003900
    93  H   -0.008206
    94  H   -0.010448
    95  H    0.005601
    96  H    0.011069
    97  H   -0.023066
    98  H   -0.008391
    99  H    0.021772
   100  H    0.023461
   101  H    0.010667
   102  H   -0.013592
   103  H    0.013792
   104  H   -0.037543
   105  H    0.007385
   106  H    0.006056
   107  H    0.007102
   108  H   -0.051254
   109  H   -0.010745
   110  H   -0.004337
   111  H   -0.003646
   112  H   -0.036119
   113  H   -0.020274
   114  H   -0.037673
   115  H   -0.010473
   116  H   -0.011407
   117  H   -0.044786
   118  H   -0.040579
   119  H   -0.041200
   120  H   -0.032943
   121  H   -0.017306
   122  H   -0.037388
   123  H   -0.038393
   124  H   -0.030733
   125  H   -0.017232
   126  H   -0.015756
   127  H   -0.016951
   128  H   -0.040778
   129  H   -0.041728
   130  H   -0.038244
   131  H   -0.053543
   132  H   -0.048866
   133  H   -0.049090
   134  H   -0.037504
   135  H    0.001170
   136  H   -0.019006
   137  H   -0.007857
   138  H   -0.045571
   139  H   -0.012039
   140  H   -0.007818
 Sum of Mulliken charges =  -0.00000

 Dipole moment (field-independent basis, Debye):
    X=             -0.0683    Y=              1.7344    Z=              3.0848  Tot=              3.5396
 Quadrupole moment (field-independent basis, Debye-Ang):
   XX=           -373.3726   YY=           -438.1955   ZZ=           -396.9218
   XY=             32.8841   XZ=             13.9008   YZ=             13.3498

 Normal termination of Gaussian 16 at Wed May  4 21:01:24 2022.
