 Gaussian 16, Revision A.03,
 Gaussian 16:  ES64L-G16RevA.03 25-Dec-2016

 -----------------------------------
 #p cam-b3lyp/Def2SVP td=(nstates=5)
 -----------------------------------

 -------------------------------------------------------
 step_401_chromophore_23 TDDFT with cam-b3lyp functional
 -------------------------------------------------------
 Symbolic Z-matrix:
 Charge =  0 Multiplicity = 1

                         Standard orientation:
 ---------------------------------------------------------------------
 Center     Atomic      Atomic             Coordinates (Angstroms)
 Number     Number       Type             X           Y           Z
 ---------------------------------------------------------------------
      1         12           0        4.737604    0.982316   -0.590313
      2          6           0        3.833720   -2.279194   -0.701320
      3          6           0        1.738806    1.853385   -2.048106
      4          6           0        5.146758    4.295789    0.369361
      5          6           0        7.326378    0.163017    1.620049
      6          7           0        2.888036   -0.101070   -1.091963
      7          6           0        2.785633   -1.464607   -1.203263
      8          6           0        1.496244   -1.938554   -1.791177
      9          6           0        0.870348   -0.571498   -2.317380
     10          6           0        1.881701    0.482022   -1.851568
     11          6           0        0.642674   -0.494376   -3.908055
     12          6           0        0.647158   -2.610230   -0.678018
     13          6           0        0.012298   -3.987286   -0.943385
     14          6           0       -1.363473   -3.942829   -1.633401
     15          8           0       -1.632675   -3.486269   -2.741172
     16          8           0       -2.322747   -4.287382   -0.650541
     17          7           0        3.688527    2.898068   -0.989432
     18          6           0        2.467282    2.996827   -1.676736
     19          6           0        2.097133    4.385291   -1.699077
     20          6           0        3.072605    5.149808   -0.985234
     21          6           0        4.091098    4.103373   -0.488954
     22          6           0        0.761306    4.932107   -2.229905
     23          6           0        2.926245    6.658445   -0.680077
     24          8           0        1.925468    7.242663   -1.115706
     25          6           0        3.945363    7.520871    0.026774
     26          7           0        5.994055    2.155844    0.815227
     27          6           0        6.037257    3.426389    0.975072
     28          6           0        7.084910    3.763777    2.118707
     29          6           0        7.712913    2.451768    2.474032
     30          6           0        6.978155    1.493103    1.576703
     31          6           0        8.158332    4.835006    1.682310
     32          6           0        7.588410    2.048275    3.977509
     33          6           0        8.825533    1.376263    4.640527
     34          7           0        5.613803   -0.780709    0.145845
     35          6           0        6.636766   -0.965861    1.015253
     36          6           0        6.892881   -2.399228    1.176997
     37          6           0        5.750744   -3.015718    0.407795
     38          6           0        5.018536   -1.923374   -0.097350
     39          6           0        7.922858   -3.059971    2.058358
     40          6           0        5.066507   -4.275056    0.042081
     41          8           0        5.301646   -5.417921    0.302133
     42          6           0        3.913535   -3.851370   -0.902536
     43          6           0        4.302086   -4.187778   -2.316523
     44          8           0        4.938081   -3.583071   -3.162677
     45          8           0        4.059616   -5.528899   -2.487697
     46          6           0        4.199177   -6.012274   -3.854291
     47          6           0       -3.730832   -3.888912   -0.804318
     48          6           0       -4.352623   -3.734799    0.610202
     49          6           0       -4.116048   -2.677940    1.443244
     50          6           0       -3.151957   -1.536503    1.091265
     51          6           0       -4.793123   -2.532970    2.825421
     52          6           0       -6.320231   -2.072034    2.801407
     53          6           0       -7.263531   -3.210561    3.278451
     54          6           0       -8.590292   -3.273014    2.402708
     55          6           0       -9.421524   -4.555482    2.803398
     56          6           0       -9.464005   -2.076991    2.587198
     57          6           0       -9.391560   -0.993091    1.497687
     58          6           0       -9.149127    0.422007    2.138252
     59          6           0       -8.744566    1.429965    1.045606
     60          6           0       -7.206422    1.594820    0.862534
     61          6           0       -9.578026    2.779696    1.041873
     62          6           0       -9.932731    3.175843   -0.412761
     63          6           0      -11.371683    2.977407   -0.908373
     64          6           0      -12.103605    4.123445   -1.695085
     65          6           0      -13.647260    4.198394   -1.352873
     66          6           0      -11.761098    4.102695   -3.163973
     67          1           0        0.995994    2.210089   -2.764479
     68          1           0        5.185389    5.295972    0.806099
     69          1           0        8.201791   -0.082506    2.225293
     70          1           0        1.668128   -2.681614   -2.571112
     71          1           0       -0.088827   -0.379109   -1.835486
     72          1           0        1.614321   -0.138235   -4.248554
     73          1           0       -0.093355    0.205172   -4.302648
     74          1           0        0.437008   -1.499110   -4.277269
     75          1           0       -0.205534   -1.991180   -0.400179
     76          1           0        1.249781   -2.740360    0.221319
     77          1           0        0.041986   -4.753873   -0.169227
     78          1           0        0.559796   -4.406299   -1.787823
     79          1           0        0.044485    5.239982   -1.467802
     80          1           0        0.211378    4.186579   -2.804937
     81          1           0        0.918376    5.697949   -2.989437
     82          1           0        3.687511    8.580266    0.053981
     83          1           0        4.889953    7.432066   -0.509006
     84          1           0        3.957303    7.224500    1.075549
     85          1           0        6.438197    4.178544    2.891904
     86          1           0        8.749318    2.323621    2.162187
     87          1           0        9.143100    4.499403    2.007927
     88          1           0        8.013656    5.783609    2.198465
     89          1           0        8.087548    5.088663    0.625178
     90          1           0        6.707462    1.412042    4.069259
     91          1           0        7.567728    3.000322    4.507257
     92          1           0        9.335511    0.742786    3.914604
     93          1           0        8.573007    0.759650    5.504000
     94          1           0        9.501020    2.115296    5.070550
     95          1           0        8.900229   -3.102708    1.578248
     96          1           0        7.551243   -3.986593    2.496923
     97          1           0        8.112893   -2.474384    2.957899
     98          1           0        2.939267   -4.210175   -0.571366
     99          1           0        5.078534   -6.649960   -3.948003
    100          1           0        4.257058   -5.172035   -4.545883
    101          1           0        3.276349   -6.580061   -3.976017
    102          1           0       -4.185885   -4.740044   -1.310788
    103          1           0       -3.909587   -2.943506   -1.316997
    104          1           0       -5.126498   -4.439339    0.915294
    105          1           0       -2.659839   -1.753127    0.143069
    106          1           0       -2.430692   -1.493010    1.907262
    107          1           0       -3.722858   -0.608448    1.099223
    108          1           0       -4.157280   -1.802336    3.325149
    109          1           0       -4.615584   -3.482138    3.331905
    110          1           0       -6.450349   -1.839459    1.744026
    111          1           0       -6.461328   -1.232295    3.481415
    112          1           0       -7.572427   -2.911184    4.279738
    113          1           0       -6.706006   -4.145651    3.330498
    114          1           0       -8.277346   -3.373108    1.363423
    115          1           0       -9.536881   -5.210167    1.939049
    116          1           0      -10.265451   -4.282686    3.437581
    117          1           0       -8.802678   -5.157082    3.468244
    118          1           0       -9.306717   -1.632801    3.570937
    119          1           0      -10.517402   -2.354941    2.626383
    120          1           0      -10.404069   -1.053083    1.098378
    121          1           0       -8.725388   -1.154851    0.650531
    122          1           0       -8.330919    0.349978    2.855057
    123          1           0      -10.025986    0.789022    2.670532
    124          1           0       -8.951845    0.874347    0.131419
    125          1           0       -6.673769    1.062210    1.651095
    126          1           0       -6.982302    2.660780    0.826624
    127          1           0       -6.924530    1.121367   -0.078138
    128          1           0       -8.999577    3.554136    1.545326
    129          1           0      -10.447565    2.758248    1.699097
    130          1           0       -9.212158    2.785391   -1.129830
    131          1           0       -9.642032    4.221987   -0.503631
    132          1           0      -11.913218    2.485828   -0.100696
    133          1           0      -11.277098    2.134398   -1.593566
    134          1           0      -11.656125    5.033355   -1.296419
    135          1           0      -13.825439    4.063158   -0.285973
    136          1           0      -14.044024    3.360330   -1.927794
    137          1           0      -13.983594    5.109247   -1.848499
    138          1           0      -12.689139    4.359993   -3.674826
    139          1           0      -11.540393    3.076732   -3.459551
    140          1           0      -11.116748    4.925027   -3.472845
 ---------------------------------------------------------------------

 SCF Done:  E(RCAM-B3LYP) =  -3007.13576591     A.U. after   16 cycles

 Excitation energies and oscillator strengths:

 Excited State   1:      Singlet-A      1.7866 eV  693.96 nm  f=0.4209  <S**2>=0.000
     245 -> 248        0.16988
     246 -> 247        0.68776
     245 <- 248        0.10152
 This state for optimization and/or second-order correction.
 Total Energy, E(TD-HF/TD-DFT) =  -3007.07010914
 Copying the excited state density for this state as the 1-particle RhoCI density.

 Excited State   2:      Singlet-A      2.2590 eV  548.83 nm  f=0.1149  <S**2>=0.000
     245 -> 247        0.64411
     246 -> 248       -0.26928

 Excited State   3:      Singlet-A      3.3000 eV  375.71 nm  f=0.0136  <S**2>=0.000
     240 -> 247        0.11111
     241 -> 247       -0.11358
     243 -> 247        0.62356
     244 -> 247       -0.16183
     246 -> 248        0.13421

 Excited State   4:      Singlet-A      3.3592 eV  369.09 nm  f=0.0082  <S**2>=0.000
     240 -> 247        0.21802
     240 -> 249       -0.12234
     241 -> 247       -0.13831
     244 -> 247        0.61326

 Excited State   5:      Singlet-A      3.4127 eV  363.30 nm  f=0.0080  <S**2>=0.000
     240 -> 247        0.50337
     240 -> 249       -0.23577
     240 -> 251        0.20528
     243 -> 247       -0.20948
     244 -> 247       -0.23711
     246 -> 248       -0.11697

 The electronic state is 1-A.
 Alpha  occ. eigenvalues --  -46.90517 -19.24231 -19.23578 -19.21060 -19.19822
 Alpha  occ. eigenvalues --  -19.18677 -19.18558 -14.42898 -14.41891 -14.39609
 Alpha  occ. eigenvalues --  -14.38953 -10.40133 -10.39286 -10.35586 -10.34716
 Alpha  occ. eigenvalues --  -10.32319 -10.31940 -10.31423 -10.31233 -10.30976
 Alpha  occ. eigenvalues --  -10.30715 -10.30589 -10.30222 -10.29509 -10.29198
 Alpha  occ. eigenvalues --  -10.28986 -10.28921 -10.28631 -10.28345 -10.28327
 Alpha  occ. eigenvalues --  -10.28244 -10.28117 -10.27992 -10.27876 -10.27759
 Alpha  occ. eigenvalues --  -10.27729 -10.27292 -10.27116 -10.26882 -10.26770
 Alpha  occ. eigenvalues --  -10.26633 -10.26527 -10.26426 -10.26346 -10.26251
 Alpha  occ. eigenvalues --  -10.26200 -10.26039 -10.26024 -10.25996 -10.25823
 Alpha  occ. eigenvalues --  -10.25784 -10.25771 -10.25629 -10.25391 -10.25300
 Alpha  occ. eigenvalues --  -10.24984 -10.24976 -10.24883 -10.24829 -10.24558
 Alpha  occ. eigenvalues --  -10.24552 -10.24445 -10.24402 -10.24353 -10.24347
 Alpha  occ. eigenvalues --  -10.24268  -3.18720  -1.93608  -1.93173  -1.93016
 Alpha  occ. eigenvalues --   -1.16183  -1.14821  -1.10781  -1.09303  -1.07649
 Alpha  occ. eigenvalues --   -1.07008  -1.05045  -1.04202  -1.03310  -1.01830
 Alpha  occ. eigenvalues --   -0.92424  -0.90429  -0.90257  -0.89968  -0.89218
 Alpha  occ. eigenvalues --   -0.88468  -0.88400  -0.87167  -0.87118  -0.85997
 Alpha  occ. eigenvalues --   -0.85309  -0.84971  -0.84034  -0.83615  -0.83306
 Alpha  occ. eigenvalues --   -0.82508  -0.82214  -0.81428  -0.80982  -0.80437
 Alpha  occ. eigenvalues --   -0.79750  -0.77946  -0.77741  -0.76831  -0.75693
 Alpha  occ. eigenvalues --   -0.75608  -0.75479  -0.75211  -0.74772  -0.74247
 Alpha  occ. eigenvalues --   -0.73281  -0.72557  -0.71888  -0.70712  -0.69603
 Alpha  occ. eigenvalues --   -0.68424  -0.68307  -0.67562  -0.66689  -0.65900
 Alpha  occ. eigenvalues --   -0.65744  -0.65613  -0.64901  -0.64513  -0.64083
 Alpha  occ. eigenvalues --   -0.63074  -0.63004  -0.62502  -0.61799  -0.59913
 Alpha  occ. eigenvalues --   -0.59625  -0.59107  -0.58850  -0.58670  -0.58528
 Alpha  occ. eigenvalues --   -0.57718  -0.56947  -0.56379  -0.56214  -0.55629
 Alpha  occ. eigenvalues --   -0.55575  -0.54907  -0.54660  -0.54226  -0.53899
 Alpha  occ. eigenvalues --   -0.53744  -0.53466  -0.52858  -0.52813  -0.52621
 Alpha  occ. eigenvalues --   -0.52568  -0.52163  -0.51879  -0.51728  -0.51690
 Alpha  occ. eigenvalues --   -0.51351  -0.51204  -0.51128  -0.50819  -0.50635
 Alpha  occ. eigenvalues --   -0.50345  -0.50220  -0.49861  -0.49736  -0.49312
 Alpha  occ. eigenvalues --   -0.49203  -0.49185  -0.48983  -0.48839  -0.48724
 Alpha  occ. eigenvalues --   -0.48451  -0.48358  -0.48015  -0.47785  -0.47607
 Alpha  occ. eigenvalues --   -0.47367  -0.47293  -0.47143  -0.46924  -0.46750
 Alpha  occ. eigenvalues --   -0.46714  -0.46204  -0.45982  -0.45762  -0.45712
 Alpha  occ. eigenvalues --   -0.45627  -0.45533  -0.45267  -0.45115  -0.45067
 Alpha  occ. eigenvalues --   -0.44742  -0.44606  -0.44261  -0.44096  -0.44012
 Alpha  occ. eigenvalues --   -0.43751  -0.43618  -0.43485  -0.43168  -0.42835
 Alpha  occ. eigenvalues --   -0.42606  -0.42473  -0.42387  -0.42144  -0.42026
 Alpha  occ. eigenvalues --   -0.41823  -0.41618  -0.41457  -0.41085  -0.41070
 Alpha  occ. eigenvalues --   -0.41009  -0.40862  -0.40634  -0.40570  -0.40219
 Alpha  occ. eigenvalues --   -0.40083  -0.39958  -0.39541  -0.39494  -0.39399
 Alpha  occ. eigenvalues --   -0.38619  -0.38289  -0.38187  -0.37450  -0.37397
 Alpha  occ. eigenvalues --   -0.37014  -0.36827  -0.36711  -0.36139  -0.36045
 Alpha  occ. eigenvalues --   -0.35713  -0.35253  -0.34934  -0.34695  -0.34478
 Alpha  occ. eigenvalues --   -0.34216  -0.33612  -0.33382  -0.31576  -0.30754
 Alpha  occ. eigenvalues --   -0.30442  -0.30269  -0.29902  -0.28745  -0.24289
 Alpha  occ. eigenvalues --   -0.21408
 Alpha virt. eigenvalues --   -0.08760  -0.01484   0.00288   0.01512   0.02187
 Alpha virt. eigenvalues --    0.03516   0.04666   0.05004   0.05157   0.07011
 Alpha virt. eigenvalues --    0.07850   0.08325   0.08596   0.08817   0.09110

 Mulliken charges:
               1
     1  Mg   0.812163
     2  C   -0.083769
     3  C   -0.053780
     4  C   -0.077643
     5  C   -0.070729
     6  N   -0.309222
     7  C   -0.067939
     8  C    0.026364
     9  C   -0.030533
    10  C    0.071299
    11  C    0.042480
    12  C    0.063793
    13  C    0.055255
    14  C    0.159004
    15  O   -0.230424
    16  O   -0.370969
    17  N   -0.360826
    18  C    0.101409
    19  C   -0.128345
    20  C   -0.040571
    21  C    0.162553
    22  C    0.145319
    23  C   -0.008214
    24  O   -0.221326
    25  C    0.070624
    26  N   -0.256450
    27  C   -0.002858
    28  C   -0.018211
    29  C   -0.021539
    30  C    0.041703
    31  C    0.060753
    32  C    0.039387
    33  C   -0.009004
    34  N   -0.316272
    35  C    0.085247
    36  C   -0.157668
    37  C   -0.054935
    38  C    0.172012
    39  C    0.117220
    40  C    0.042945
    41  O   -0.130285
    42  C   -0.033226
    43  C    0.231048
    44  O   -0.215351
    45  O   -0.332964
    46  C    0.164660
    47  C    0.272637
    48  C   -0.114671
    49  C   -0.213972
    50  C    0.078936
    51  C    0.070100
    52  C    0.015784
    53  C    0.044354
    54  C   -0.156249
    55  C    0.072057
    56  C    0.078333
    57  C   -0.010498
    58  C    0.051901
    59  C   -0.157698
    60  C    0.059586
    61  C    0.065856
    62  C    0.009711
    63  C    0.052582
    64  C   -0.160088
    65  C    0.047691
    66  C    0.079001
    67  H   -0.018943
    68  H   -0.051614
    69  H   -0.039220
    70  H    0.013031
    71  H    0.025010
    72  H    0.016871
    73  H    0.028966
    74  H    0.036712
    75  H    0.009501
    76  H    0.031421
    77  H    0.039773
    78  H    0.016233
    79  H    0.041675
    80  H   -0.022468
    81  H    0.032480
    82  H    0.024660
    83  H    0.041910
    84  H    0.042447
    85  H    0.018616
    86  H    0.012018
    87  H    0.019130
    88  H    0.006280
    89  H    0.025585
    90  H    0.028368
    91  H    0.007051
    92  H    0.014017
    93  H    0.016972
    94  H    0.012548
    95  H    0.029458
    96  H    0.035879
    97  H   -0.000761
    98  H    0.030824
    99  H    0.043290
   100  H    0.048114
   101  H    0.032117
   102  H    0.017009
   103  H    0.041183
   104  H   -0.006639
   105  H    0.022173
   106  H    0.029157
   107  H    0.028807
   108  H   -0.019128
   109  H    0.018853
   110  H    0.019243
   111  H    0.021694
   112  H   -0.007599
   113  H    0.006213
   114  H   -0.006917
   115  H    0.014574
   116  H    0.012866
   117  H   -0.018305
   118  H   -0.011601
   119  H   -0.009074
   120  H   -0.003578
   121  H    0.007705
   122  H   -0.012320
   123  H   -0.009034
   124  H    0.000168
   125  H    0.003460
   126  H    0.008103
   127  H    0.005368
   128  H   -0.010463
   129  H   -0.012031
   130  H   -0.010314
   131  H   -0.023438
   132  H   -0.019017
   133  H   -0.020938
   134  H   -0.006340
   135  H    0.024454
   136  H    0.003496
   137  H    0.015586
   138  H   -0.018599
   139  H    0.012139
   140  H    0.017592
 Sum of Mulliken charges =  -0.00000

 Dipole moment (field-independent basis, Debye):
    X=             -0.5249    Y=              3.0423    Z=              2.8005  Tot=              4.1682
 Quadrupole moment (field-independent basis, Debye-Ang):
   XX=           -377.1226   YY=           -433.1730   ZZ=           -395.5547
   XY=             39.5819   XZ=             13.7724   YZ=             13.9832

 Normal termination of Gaussian 16 at Wed May  4 19:34:21 2022.
