 Gaussian 16, Revision A.03,
 Gaussian 16:  ES64L-G16RevA.03 25-Dec-2016

 ---------------------------------
 #p PBE1PBE/Def2SVP td=(nstates=5)
 ---------------------------------

 -----------------------------------------------------
 step_401_chromophore_23 TDDFT with PBE1PBE functional
 -----------------------------------------------------
 Symbolic Z-matrix:
 Charge =  0 Multiplicity = 1

                         Standard orientation:
 ---------------------------------------------------------------------
 Center     Atomic      Atomic             Coordinates (Angstroms)
 Number     Number       Type             X           Y           Z
 ---------------------------------------------------------------------
      1         12           0        4.737604    0.982316   -0.590313
      2          6           0        3.833720   -2.279194   -0.701320
      3          6           0        1.738806    1.853385   -2.048106
      4          6           0        5.146758    4.295789    0.369361
      5          6           0        7.326378    0.163017    1.620049
      6          7           0        2.888036   -0.101070   -1.091963
      7          6           0        2.785633   -1.464607   -1.203263
      8          6           0        1.496244   -1.938554   -1.791177
      9          6           0        0.870348   -0.571498   -2.317380
     10          6           0        1.881701    0.482022   -1.851568
     11          6           0        0.642674   -0.494376   -3.908055
     12          6           0        0.647158   -2.610230   -0.678018
     13          6           0        0.012298   -3.987286   -0.943385
     14          6           0       -1.363473   -3.942829   -1.633401
     15          8           0       -1.632675   -3.486269   -2.741172
     16          8           0       -2.322747   -4.287382   -0.650541
     17          7           0        3.688527    2.898068   -0.989432
     18          6           0        2.467282    2.996827   -1.676736
     19          6           0        2.097133    4.385291   -1.699077
     20          6           0        3.072605    5.149808   -0.985234
     21          6           0        4.091098    4.103373   -0.488954
     22          6           0        0.761306    4.932107   -2.229905
     23          6           0        2.926245    6.658445   -0.680077
     24          8           0        1.925468    7.242663   -1.115706
     25          6           0        3.945363    7.520871    0.026774
     26          7           0        5.994055    2.155844    0.815227
     27          6           0        6.037257    3.426389    0.975072
     28          6           0        7.084910    3.763777    2.118707
     29          6           0        7.712913    2.451768    2.474032
     30          6           0        6.978155    1.493103    1.576703
     31          6           0        8.158332    4.835006    1.682310
     32          6           0        7.588410    2.048275    3.977509
     33          6           0        8.825533    1.376263    4.640527
     34          7           0        5.613803   -0.780709    0.145845
     35          6           0        6.636766   -0.965861    1.015253
     36          6           0        6.892881   -2.399228    1.176997
     37          6           0        5.750744   -3.015718    0.407795
     38          6           0        5.018536   -1.923374   -0.097350
     39          6           0        7.922858   -3.059971    2.058358
     40          6           0        5.066507   -4.275056    0.042081
     41          8           0        5.301646   -5.417921    0.302133
     42          6           0        3.913535   -3.851370   -0.902536
     43          6           0        4.302086   -4.187778   -2.316523
     44          8           0        4.938081   -3.583071   -3.162677
     45          8           0        4.059616   -5.528899   -2.487697
     46          6           0        4.199177   -6.012274   -3.854291
     47          6           0       -3.730832   -3.888912   -0.804318
     48          6           0       -4.352623   -3.734799    0.610202
     49          6           0       -4.116048   -2.677940    1.443244
     50          6           0       -3.151957   -1.536503    1.091265
     51          6           0       -4.793123   -2.532970    2.825421
     52          6           0       -6.320231   -2.072034    2.801407
     53          6           0       -7.263531   -3.210561    3.278451
     54          6           0       -8.590292   -3.273014    2.402708
     55          6           0       -9.421524   -4.555482    2.803398
     56          6           0       -9.464005   -2.076991    2.587198
     57          6           0       -9.391560   -0.993091    1.497687
     58          6           0       -9.149127    0.422007    2.138252
     59          6           0       -8.744566    1.429965    1.045606
     60          6           0       -7.206422    1.594820    0.862534
     61          6           0       -9.578026    2.779696    1.041873
     62          6           0       -9.932731    3.175843   -0.412761
     63          6           0      -11.371683    2.977407   -0.908373
     64          6           0      -12.103605    4.123445   -1.695085
     65          6           0      -13.647260    4.198394   -1.352873
     66          6           0      -11.761098    4.102695   -3.163973
     67          1           0        0.995994    2.210089   -2.764479
     68          1           0        5.185389    5.295972    0.806099
     69          1           0        8.201791   -0.082506    2.225293
     70          1           0        1.668128   -2.681614   -2.571112
     71          1           0       -0.088827   -0.379109   -1.835486
     72          1           0        1.614321   -0.138235   -4.248554
     73          1           0       -0.093355    0.205172   -4.302648
     74          1           0        0.437008   -1.499110   -4.277269
     75          1           0       -0.205534   -1.991180   -0.400179
     76          1           0        1.249781   -2.740360    0.221319
     77          1           0        0.041986   -4.753873   -0.169227
     78          1           0        0.559796   -4.406299   -1.787823
     79          1           0        0.044485    5.239982   -1.467802
     80          1           0        0.211378    4.186579   -2.804937
     81          1           0        0.918376    5.697949   -2.989437
     82          1           0        3.687511    8.580266    0.053981
     83          1           0        4.889953    7.432066   -0.509006
     84          1           0        3.957303    7.224500    1.075549
     85          1           0        6.438197    4.178544    2.891904
     86          1           0        8.749318    2.323621    2.162187
     87          1           0        9.143100    4.499403    2.007927
     88          1           0        8.013656    5.783609    2.198465
     89          1           0        8.087548    5.088663    0.625178
     90          1           0        6.707462    1.412042    4.069259
     91          1           0        7.567728    3.000322    4.507257
     92          1           0        9.335511    0.742786    3.914604
     93          1           0        8.573007    0.759650    5.504000
     94          1           0        9.501020    2.115296    5.070550
     95          1           0        8.900229   -3.102708    1.578248
     96          1           0        7.551243   -3.986593    2.496923
     97          1           0        8.112893   -2.474384    2.957899
     98          1           0        2.939267   -4.210175   -0.571366
     99          1           0        5.078534   -6.649960   -3.948003
    100          1           0        4.257058   -5.172035   -4.545883
    101          1           0        3.276349   -6.580061   -3.976017
    102          1           0       -4.185885   -4.740044   -1.310788
    103          1           0       -3.909587   -2.943506   -1.316997
    104          1           0       -5.126498   -4.439339    0.915294
    105          1           0       -2.659839   -1.753127    0.143069
    106          1           0       -2.430692   -1.493010    1.907262
    107          1           0       -3.722858   -0.608448    1.099223
    108          1           0       -4.157280   -1.802336    3.325149
    109          1           0       -4.615584   -3.482138    3.331905
    110          1           0       -6.450349   -1.839459    1.744026
    111          1           0       -6.461328   -1.232295    3.481415
    112          1           0       -7.572427   -2.911184    4.279738
    113          1           0       -6.706006   -4.145651    3.330498
    114          1           0       -8.277346   -3.373108    1.363423
    115          1           0       -9.536881   -5.210167    1.939049
    116          1           0      -10.265451   -4.282686    3.437581
    117          1           0       -8.802678   -5.157082    3.468244
    118          1           0       -9.306717   -1.632801    3.570937
    119          1           0      -10.517402   -2.354941    2.626383
    120          1           0      -10.404069   -1.053083    1.098378
    121          1           0       -8.725388   -1.154851    0.650531
    122          1           0       -8.330919    0.349978    2.855057
    123          1           0      -10.025986    0.789022    2.670532
    124          1           0       -8.951845    0.874347    0.131419
    125          1           0       -6.673769    1.062210    1.651095
    126          1           0       -6.982302    2.660780    0.826624
    127          1           0       -6.924530    1.121367   -0.078138
    128          1           0       -8.999577    3.554136    1.545326
    129          1           0      -10.447565    2.758248    1.699097
    130          1           0       -9.212158    2.785391   -1.129830
    131          1           0       -9.642032    4.221987   -0.503631
    132          1           0      -11.913218    2.485828   -0.100696
    133          1           0      -11.277098    2.134398   -1.593566
    134          1           0      -11.656125    5.033355   -1.296419
    135          1           0      -13.825439    4.063158   -0.285973
    136          1           0      -14.044024    3.360330   -1.927794
    137          1           0      -13.983594    5.109247   -1.848499
    138          1           0      -12.689139    4.359993   -3.674826
    139          1           0      -11.540393    3.076732   -3.459551
    140          1           0      -11.116748    4.925027   -3.472845
 ---------------------------------------------------------------------

 SCF Done:  E(RPBE1PBE) =  -3005.32435415     A.U. after   15 cycles

 Excitation energies and oscillator strengths:

 Excited State   1:      Singlet-A      1.8999 eV  652.57 nm  f=0.4054  <S**2>=0.000
     245 -> 248        0.16974
     246 -> 247        0.69303
     246 <- 247       -0.10682
 This state for optimization and/or second-order correction.
 Total Energy, E(TD-HF/TD-DFT) =  -3005.25453325
 Copying the excited state density for this state as the 1-particle RhoCI density.

 Excited State   2:      Singlet-A      2.2454 eV  552.16 nm  f=0.1080  <S**2>=0.000
     245 -> 247        0.65445
     246 -> 248       -0.24440

 Excited State   3:      Singlet-A      2.8646 eV  432.81 nm  f=0.0024  <S**2>=0.000
     242 -> 247        0.25415
     243 -> 247        0.62265
     243 -> 249       -0.11028

 Excited State   4:      Singlet-A      2.9351 eV  422.42 nm  f=0.0050  <S**2>=0.000
     240 -> 247       -0.13581
     242 -> 247        0.23519
     243 -> 247       -0.11959
     244 -> 247        0.63189

 Excited State   5:      Singlet-A      3.0407 eV  407.75 nm  f=0.0237  <S**2>=0.000
     242 -> 247        0.59160
     243 -> 247       -0.24769
     244 -> 247       -0.25562

 The electronic state is 1-A.
 Alpha  occ. eigenvalues --  -46.93892 -19.24967 -19.24332 -19.21313 -19.20130
 Alpha  occ. eigenvalues --  -19.19066 -19.18625 -14.42359 -14.41400 -14.39134
 Alpha  occ. eigenvalues --  -14.38759 -10.37187 -10.36368 -10.32491 -10.32121
 Alpha  occ. eigenvalues --  -10.29718 -10.29390 -10.28971 -10.28696 -10.28635
 Alpha  occ. eigenvalues --  -10.28187 -10.27980 -10.27888 -10.27672 -10.26771
 Alpha  occ. eigenvalues --  -10.26735 -10.26472 -10.26451 -10.26428 -10.26074
 Alpha  occ. eigenvalues --  -10.25861 -10.25831 -10.25727 -10.25632 -10.25538
 Alpha  occ. eigenvalues --  -10.25459 -10.25009 -10.24769 -10.24694 -10.24494
 Alpha  occ. eigenvalues --  -10.23945 -10.23903 -10.23816 -10.23794 -10.23733
 Alpha  occ. eigenvalues --  -10.23664 -10.23639 -10.23593 -10.23540 -10.23521
 Alpha  occ. eigenvalues --  -10.23493 -10.23487 -10.23273 -10.22981 -10.22954
 Alpha  occ. eigenvalues --  -10.22679 -10.22540 -10.22375 -10.22262 -10.22108
 Alpha  occ. eigenvalues --  -10.21954 -10.21920 -10.21890 -10.21833 -10.21817
 Alpha  occ. eigenvalues --  -10.21700  -3.15684  -1.88509  -1.88054  -1.87901
 Alpha  occ. eigenvalues --   -1.11032  -1.09603  -1.05826  -1.03761  -1.02523
 Alpha  occ. eigenvalues --   -1.01917  -0.99694  -0.99032  -0.97984  -0.96214
 Alpha  occ. eigenvalues --   -0.86929  -0.84782  -0.84406  -0.84174  -0.83333
 Alpha  occ. eigenvalues --   -0.82605  -0.82551  -0.81421  -0.81259  -0.80305
 Alpha  occ. eigenvalues --   -0.79444  -0.79335  -0.78248  -0.77819  -0.77665
 Alpha  occ. eigenvalues --   -0.76672  -0.76333  -0.75580  -0.75330  -0.74700
 Alpha  occ. eigenvalues --   -0.73915  -0.72378  -0.72081  -0.70925  -0.70079
 Alpha  occ. eigenvalues --   -0.69796  -0.69557  -0.69491  -0.68889  -0.68407
 Alpha  occ. eigenvalues --   -0.67631  -0.67039  -0.66313  -0.65018  -0.63979
 Alpha  occ. eigenvalues --   -0.62939  -0.62555  -0.61954  -0.60905  -0.60369
 Alpha  occ. eigenvalues --   -0.60080  -0.59796  -0.59479  -0.59115  -0.58193
 Alpha  occ. eigenvalues --   -0.57611  -0.57158  -0.56677  -0.56457  -0.54485
 Alpha  occ. eigenvalues --   -0.54132  -0.53783  -0.53419  -0.53188  -0.52904
 Alpha  occ. eigenvalues --   -0.52273  -0.51394  -0.50789  -0.50660  -0.50297
 Alpha  occ. eigenvalues --   -0.50143  -0.49360  -0.49163  -0.48782  -0.48394
 Alpha  occ. eigenvalues --   -0.48237  -0.48125  -0.47541  -0.47373  -0.47189
 Alpha  occ. eigenvalues --   -0.46833  -0.46684  -0.46371  -0.46237  -0.46178
 Alpha  occ. eigenvalues --   -0.45970  -0.45807  -0.45689  -0.45396  -0.45118
 Alpha  occ. eigenvalues --   -0.44920  -0.44741  -0.44466  -0.44173  -0.44032
 Alpha  occ. eigenvalues --   -0.43960  -0.43747  -0.43517  -0.43417  -0.43293
 Alpha  occ. eigenvalues --   -0.43072  -0.42990  -0.42673  -0.42442  -0.42315
 Alpha  occ. eigenvalues --   -0.41993  -0.41977  -0.41767  -0.41535  -0.41471
 Alpha  occ. eigenvalues --   -0.41352  -0.41035  -0.40568  -0.40431  -0.40375
 Alpha  occ. eigenvalues --   -0.40222  -0.40062  -0.39949  -0.39810  -0.39730
 Alpha  occ. eigenvalues --   -0.39513  -0.39305  -0.39176  -0.38984  -0.38875
 Alpha  occ. eigenvalues --   -0.38596  -0.38387  -0.38137  -0.37877  -0.37605
 Alpha  occ. eigenvalues --   -0.37339  -0.37311  -0.37224  -0.36944  -0.36787
 Alpha  occ. eigenvalues --   -0.36583  -0.36373  -0.36226  -0.36051  -0.36008
 Alpha  occ. eigenvalues --   -0.35867  -0.35676  -0.35582  -0.35309  -0.35140
 Alpha  occ. eigenvalues --   -0.35022  -0.34861  -0.34441  -0.34333  -0.34167
 Alpha  occ. eigenvalues --   -0.33418  -0.33091  -0.32987  -0.32386  -0.32282
 Alpha  occ. eigenvalues --   -0.32136  -0.31759  -0.31616  -0.31092  -0.30824
 Alpha  occ. eigenvalues --   -0.30706  -0.30129  -0.29811  -0.29619  -0.29476
 Alpha  occ. eigenvalues --   -0.29203  -0.28972  -0.28568  -0.27177  -0.25675
 Alpha  occ. eigenvalues --   -0.25588  -0.25384  -0.25075  -0.24731  -0.21152
 Alpha  occ. eigenvalues --   -0.19000
 Alpha virt. eigenvalues --   -0.11270  -0.05054  -0.03959  -0.02285  -0.01261
 Alpha virt. eigenvalues --   -0.01028   0.00183   0.00445   0.00898   0.03160
 Alpha virt. eigenvalues --    0.04184   0.04409   0.05046   0.05421   0.05736

 Mulliken charges:
               1
     1  Mg   0.945724
     2  C   -0.095663
     3  C   -0.051794
     4  C   -0.077751
     5  C   -0.064240
     6  N   -0.407324
     7  C    0.006774
     8  C   -0.049244
     9  C   -0.100981
    10  C    0.098169
    11  C   -0.016116
    12  C    0.015125
    13  C   -0.025031
    14  C    0.225672
    15  O   -0.263475
    16  O   -0.396856
    17  N   -0.466175
    18  C    0.127187
    19  C   -0.162746
    20  C   -0.084022
    21  C    0.189310
    22  C    0.089395
    23  C    0.036111
    24  O   -0.254379
    25  C   -0.004919
    26  N   -0.360784
    27  C    0.050613
    28  C   -0.101122
    29  C   -0.098550
    30  C    0.077762
    31  C    0.005139
    32  C   -0.024771
    33  C   -0.079181
    34  N   -0.446646
    35  C    0.109599
    36  C   -0.168323
    37  C   -0.096234
    38  C    0.229598
    39  C    0.061950
    40  C    0.136225
    41  O   -0.173967
    42  C   -0.144782
    43  C    0.316278
    44  O   -0.249388
    45  O   -0.363677
    46  C    0.111294
    47  C    0.223799
    48  C   -0.122417
    49  C   -0.252959
    50  C    0.006731
    51  C    0.013770
    52  C   -0.049707
    53  C   -0.011259
    54  C   -0.245008
    55  C    0.011794
    56  C    0.029937
    57  C   -0.076857
    58  C   -0.001840
    59  C   -0.240661
    60  C   -0.000039
    61  C    0.010831
    62  C   -0.051876
    63  C    0.000035
    64  C   -0.250888
    65  C   -0.021081
    66  C    0.017247
    67  H    0.013419
    68  H   -0.013977
    69  H   -0.003233
    70  H    0.051679
    71  H    0.060198
    72  H    0.045792
    73  H    0.055155
    74  H    0.063436
    75  H    0.047604
    76  H    0.064068
    77  H    0.069615
    78  H    0.048855
    79  H    0.067237
    80  H    0.004070
    81  H    0.058908
    82  H    0.051724
    83  H    0.067425
    84  H    0.066751
    85  H    0.054761
    86  H    0.048992
    87  H    0.045306
    88  H    0.033848
    89  H    0.052542
    90  H    0.060478
    91  H    0.042793
    92  H    0.039821
    93  H    0.045244
    94  H    0.040973
    95  H    0.059007
    96  H    0.064101
    97  H    0.028171
    98  H    0.072721
    99  H    0.065297
   100  H    0.069066
   101  H    0.054760
   102  H    0.044949
   103  H    0.066699
   104  H    0.023980
   105  H    0.053106
   106  H    0.057183
   107  H    0.057702
   108  H    0.014120
   109  H    0.050251
   110  H    0.054463
   111  H    0.052598
   112  H    0.026292
   113  H    0.036645
   114  H    0.031207
   115  H    0.042245
   116  H    0.039600
   117  H    0.010217
   118  H    0.019951
   119  H    0.023447
   120  H    0.030834
   121  H    0.037291
   122  H    0.022128
   123  H    0.023360
   124  H    0.040826
   125  H    0.031847
   126  H    0.035419
   127  H    0.031858
   128  H    0.022034
   129  H    0.018556
   130  H    0.021735
   131  H    0.009388
   132  H    0.012727
   133  H    0.012821
   134  H    0.033001
   135  H    0.051529
   136  H    0.032812
   137  H    0.043950
   138  H    0.010177
   139  H    0.038542
   140  H    0.044573
 Sum of Mulliken charges =  -0.00000

 Dipole moment (field-independent basis, Debye):
    X=             -0.1769    Y=              2.3902    Z=              3.0931  Tot=              3.9130
 Quadrupole moment (field-independent basis, Debye-Ang):
   XX=           -369.1859   YY=           -431.8436   ZZ=           -392.1381
   XY=             37.2584   XZ=             16.0297   YZ=             14.4571

 Normal termination of Gaussian 16 at Wed May  4 20:04:03 2022.
