 Gaussian 16, Revision A.03,
 Gaussian 16:  ES64L-G16RevA.03 25-Dec-2016

 --------------------------------
 #p wB97XD/Def2SVP td=(nstates=5)
 --------------------------------

 ----------------------------------------------------
 step_401_chromophore_23 TDDFT with wB97XD functional
 ----------------------------------------------------
 Symbolic Z-matrix:
 Charge =  0 Multiplicity = 1

                         Standard orientation:
 ---------------------------------------------------------------------
 Center     Atomic      Atomic             Coordinates (Angstroms)
 Number     Number       Type             X           Y           Z
 ---------------------------------------------------------------------
      1         12           0        4.737604    0.982316   -0.590313
      2          6           0        3.833720   -2.279194   -0.701320
      3          6           0        1.738806    1.853385   -2.048106
      4          6           0        5.146758    4.295789    0.369361
      5          6           0        7.326378    0.163017    1.620049
      6          7           0        2.888036   -0.101070   -1.091963
      7          6           0        2.785633   -1.464607   -1.203263
      8          6           0        1.496244   -1.938554   -1.791177
      9          6           0        0.870348   -0.571498   -2.317380
     10          6           0        1.881701    0.482022   -1.851568
     11          6           0        0.642674   -0.494376   -3.908055
     12          6           0        0.647158   -2.610230   -0.678018
     13          6           0        0.012298   -3.987286   -0.943385
     14          6           0       -1.363473   -3.942829   -1.633401
     15          8           0       -1.632675   -3.486269   -2.741172
     16          8           0       -2.322747   -4.287382   -0.650541
     17          7           0        3.688527    2.898068   -0.989432
     18          6           0        2.467282    2.996827   -1.676736
     19          6           0        2.097133    4.385291   -1.699077
     20          6           0        3.072605    5.149808   -0.985234
     21          6           0        4.091098    4.103373   -0.488954
     22          6           0        0.761306    4.932107   -2.229905
     23          6           0        2.926245    6.658445   -0.680077
     24          8           0        1.925468    7.242663   -1.115706
     25          6           0        3.945363    7.520871    0.026774
     26          7           0        5.994055    2.155844    0.815227
     27          6           0        6.037257    3.426389    0.975072
     28          6           0        7.084910    3.763777    2.118707
     29          6           0        7.712913    2.451768    2.474032
     30          6           0        6.978155    1.493103    1.576703
     31          6           0        8.158332    4.835006    1.682310
     32          6           0        7.588410    2.048275    3.977509
     33          6           0        8.825533    1.376263    4.640527
     34          7           0        5.613803   -0.780709    0.145845
     35          6           0        6.636766   -0.965861    1.015253
     36          6           0        6.892881   -2.399228    1.176997
     37          6           0        5.750744   -3.015718    0.407795
     38          6           0        5.018536   -1.923374   -0.097350
     39          6           0        7.922858   -3.059971    2.058358
     40          6           0        5.066507   -4.275056    0.042081
     41          8           0        5.301646   -5.417921    0.302133
     42          6           0        3.913535   -3.851370   -0.902536
     43          6           0        4.302086   -4.187778   -2.316523
     44          8           0        4.938081   -3.583071   -3.162677
     45          8           0        4.059616   -5.528899   -2.487697
     46          6           0        4.199177   -6.012274   -3.854291
     47          6           0       -3.730832   -3.888912   -0.804318
     48          6           0       -4.352623   -3.734799    0.610202
     49          6           0       -4.116048   -2.677940    1.443244
     50          6           0       -3.151957   -1.536503    1.091265
     51          6           0       -4.793123   -2.532970    2.825421
     52          6           0       -6.320231   -2.072034    2.801407
     53          6           0       -7.263531   -3.210561    3.278451
     54          6           0       -8.590292   -3.273014    2.402708
     55          6           0       -9.421524   -4.555482    2.803398
     56          6           0       -9.464005   -2.076991    2.587198
     57          6           0       -9.391560   -0.993091    1.497687
     58          6           0       -9.149127    0.422007    2.138252
     59          6           0       -8.744566    1.429965    1.045606
     60          6           0       -7.206422    1.594820    0.862534
     61          6           0       -9.578026    2.779696    1.041873
     62          6           0       -9.932731    3.175843   -0.412761
     63          6           0      -11.371683    2.977407   -0.908373
     64          6           0      -12.103605    4.123445   -1.695085
     65          6           0      -13.647260    4.198394   -1.352873
     66          6           0      -11.761098    4.102695   -3.163973
     67          1           0        0.995994    2.210089   -2.764479
     68          1           0        5.185389    5.295972    0.806099
     69          1           0        8.201791   -0.082506    2.225293
     70          1           0        1.668128   -2.681614   -2.571112
     71          1           0       -0.088827   -0.379109   -1.835486
     72          1           0        1.614321   -0.138235   -4.248554
     73          1           0       -0.093355    0.205172   -4.302648
     74          1           0        0.437008   -1.499110   -4.277269
     75          1           0       -0.205534   -1.991180   -0.400179
     76          1           0        1.249781   -2.740360    0.221319
     77          1           0        0.041986   -4.753873   -0.169227
     78          1           0        0.559796   -4.406299   -1.787823
     79          1           0        0.044485    5.239982   -1.467802
     80          1           0        0.211378    4.186579   -2.804937
     81          1           0        0.918376    5.697949   -2.989437
     82          1           0        3.687511    8.580266    0.053981
     83          1           0        4.889953    7.432066   -0.509006
     84          1           0        3.957303    7.224500    1.075549
     85          1           0        6.438197    4.178544    2.891904
     86          1           0        8.749318    2.323621    2.162187
     87          1           0        9.143100    4.499403    2.007927
     88          1           0        8.013656    5.783609    2.198465
     89          1           0        8.087548    5.088663    0.625178
     90          1           0        6.707462    1.412042    4.069259
     91          1           0        7.567728    3.000322    4.507257
     92          1           0        9.335511    0.742786    3.914604
     93          1           0        8.573007    0.759650    5.504000
     94          1           0        9.501020    2.115296    5.070550
     95          1           0        8.900229   -3.102708    1.578248
     96          1           0        7.551243   -3.986593    2.496923
     97          1           0        8.112893   -2.474384    2.957899
     98          1           0        2.939267   -4.210175   -0.571366
     99          1           0        5.078534   -6.649960   -3.948003
    100          1           0        4.257058   -5.172035   -4.545883
    101          1           0        3.276349   -6.580061   -3.976017
    102          1           0       -4.185885   -4.740044   -1.310788
    103          1           0       -3.909587   -2.943506   -1.316997
    104          1           0       -5.126498   -4.439339    0.915294
    105          1           0       -2.659839   -1.753127    0.143069
    106          1           0       -2.430692   -1.493010    1.907262
    107          1           0       -3.722858   -0.608448    1.099223
    108          1           0       -4.157280   -1.802336    3.325149
    109          1           0       -4.615584   -3.482138    3.331905
    110          1           0       -6.450349   -1.839459    1.744026
    111          1           0       -6.461328   -1.232295    3.481415
    112          1           0       -7.572427   -2.911184    4.279738
    113          1           0       -6.706006   -4.145651    3.330498
    114          1           0       -8.277346   -3.373108    1.363423
    115          1           0       -9.536881   -5.210167    1.939049
    116          1           0      -10.265451   -4.282686    3.437581
    117          1           0       -8.802678   -5.157082    3.468244
    118          1           0       -9.306717   -1.632801    3.570937
    119          1           0      -10.517402   -2.354941    2.626383
    120          1           0      -10.404069   -1.053083    1.098378
    121          1           0       -8.725388   -1.154851    0.650531
    122          1           0       -8.330919    0.349978    2.855057
    123          1           0      -10.025986    0.789022    2.670532
    124          1           0       -8.951845    0.874347    0.131419
    125          1           0       -6.673769    1.062210    1.651095
    126          1           0       -6.982302    2.660780    0.826624
    127          1           0       -6.924530    1.121367   -0.078138
    128          1           0       -8.999577    3.554136    1.545326
    129          1           0      -10.447565    2.758248    1.699097
    130          1           0       -9.212158    2.785391   -1.129830
    131          1           0       -9.642032    4.221987   -0.503631
    132          1           0      -11.913218    2.485828   -0.100696
    133          1           0      -11.277098    2.134398   -1.593566
    134          1           0      -11.656125    5.033355   -1.296419
    135          1           0      -13.825439    4.063158   -0.285973
    136          1           0      -14.044024    3.360330   -1.927794
    137          1           0      -13.983594    5.109247   -1.848499
    138          1           0      -12.689139    4.359993   -3.674826
    139          1           0      -11.540393    3.076732   -3.459551
    140          1           0      -11.116748    4.925027   -3.472845
 ---------------------------------------------------------------------

 SCF Done:  E(RwB97XD) =  -3007.83655800     A.U. after   17 cycles

 Excitation energies and oscillator strengths:

 Excited State   1:      Singlet-A      1.7527 eV  707.40 nm  f=0.4201  <S**2>=0.000
     245 -> 248       -0.17269
     246 -> 247        0.68594
     245 <- 248       -0.10836
 This state for optimization and/or second-order correction.
 Total Energy, E(TD-HF/TD-DFT) =  -3007.77214796
 Copying the excited state density for this state as the 1-particle RhoCI density.

 Excited State   2:      Singlet-A      2.2153 eV  559.67 nm  f=0.1110  <S**2>=0.000
     245 -> 247        0.64093
     246 -> 248        0.27216

 Excited State   3:      Singlet-A      3.3059 eV  375.04 nm  f=0.0161  <S**2>=0.000
     240 -> 249        0.11679
     240 -> 250        0.11124
     241 -> 247       -0.25658
     243 -> 247        0.57777
     246 -> 248       -0.15526

 Excited State   4:      Singlet-A      3.3954 eV  365.15 nm  f=0.0036  <S**2>=0.000
     240 -> 247        0.49179
     240 -> 249        0.25375
     240 -> 250        0.17647
     243 -> 247       -0.16561
     244 -> 247        0.29765

 Excited State   5:      Singlet-A      3.4462 eV  359.77 nm  f=0.0131  <S**2>=0.000
     240 -> 247       -0.23604
     240 -> 249       -0.10556
     241 -> 247       -0.10527
     244 -> 247        0.58217
     244 -> 249       -0.10113
     246 -> 248       -0.17641

 The electronic state is 1-A.
 Alpha  occ. eigenvalues --  -46.96842 -19.29477 -19.28796 -19.25987 -19.24725
 Alpha  occ. eigenvalues --  -19.23774 -19.23526 -14.47510 -14.46463 -14.44245
 Alpha  occ. eigenvalues --  -14.43463 -10.43963 -10.43095 -10.39634 -10.38657
 Alpha  occ. eigenvalues --  -10.36207 -10.36057 -10.35569 -10.35281 -10.34933
 Alpha  occ. eigenvalues --  -10.34876 -10.34298 -10.34191 -10.33456 -10.33430
 Alpha  occ. eigenvalues --  -10.33070 -10.32975 -10.32653 -10.32552 -10.32393
 Alpha  occ. eigenvalues --  -10.32295 -10.32092 -10.31903 -10.31849 -10.31753
 Alpha  occ. eigenvalues --  -10.31741 -10.31386 -10.31132 -10.30873 -10.30698
 Alpha  occ. eigenvalues --  -10.30546 -10.30403 -10.30398 -10.30252 -10.30149
 Alpha  occ. eigenvalues --  -10.30143 -10.29976 -10.29971 -10.29823 -10.29780
 Alpha  occ. eigenvalues --  -10.29759 -10.29620 -10.29568 -10.29335 -10.29298
 Alpha  occ. eigenvalues --  -10.28957 -10.28917 -10.28752 -10.28708 -10.28492
 Alpha  occ. eigenvalues --  -10.28366 -10.28346 -10.28265 -10.28236 -10.28183
 Alpha  occ. eigenvalues --  -10.28147  -3.22542  -1.96107  -1.95650  -1.95496
 Alpha  occ. eigenvalues --   -1.18322  -1.16974  -1.12958  -1.11583  -1.09852
 Alpha  occ. eigenvalues --   -1.09181  -1.07037  -1.06175  -1.05309  -1.03938
 Alpha  occ. eigenvalues --   -0.94349  -0.92307  -0.92046  -0.91793  -0.91001
 Alpha  occ. eigenvalues --   -0.90376  -0.90226  -0.89043  -0.88934  -0.87948
 Alpha  occ. eigenvalues --   -0.87282  -0.86860  -0.85888  -0.85478  -0.85171
 Alpha  occ. eigenvalues --   -0.84341  -0.84142  -0.83341  -0.82936  -0.82323
 Alpha  occ. eigenvalues --   -0.81578  -0.79832  -0.79642  -0.78831  -0.77610
 Alpha  occ. eigenvalues --   -0.77459  -0.77273  -0.77162  -0.76582  -0.76076
 Alpha  occ. eigenvalues --   -0.75208  -0.74524  -0.73871  -0.72630  -0.71513
 Alpha  occ. eigenvalues --   -0.70377  -0.70184  -0.69567  -0.68548  -0.67816
 Alpha  occ. eigenvalues --   -0.67763  -0.67454  -0.66885  -0.66521  -0.65881
 Alpha  occ. eigenvalues --   -0.65057  -0.64822  -0.64324  -0.63774  -0.61890
 Alpha  occ. eigenvalues --   -0.61630  -0.61074  -0.60801  -0.60588  -0.60411
 Alpha  occ. eigenvalues --   -0.59730  -0.58842  -0.58395  -0.58119  -0.57594
 Alpha  occ. eigenvalues --   -0.57478  -0.56790  -0.56575  -0.56145  -0.55769
 Alpha  occ. eigenvalues --   -0.55612  -0.55418  -0.54751  -0.54682  -0.54566
 Alpha  occ. eigenvalues --   -0.54512  -0.54077  -0.53760  -0.53678  -0.53563
 Alpha  occ. eigenvalues --   -0.53259  -0.53092  -0.53019  -0.52716  -0.52491
 Alpha  occ. eigenvalues --   -0.52309  -0.52098  -0.51871  -0.51639  -0.51222
 Alpha  occ. eigenvalues --   -0.51128  -0.51087  -0.50902  -0.50715  -0.50643
 Alpha  occ. eigenvalues --   -0.50352  -0.50240  -0.49921  -0.49684  -0.49500
 Alpha  occ. eigenvalues --   -0.49275  -0.49192  -0.49022  -0.48828  -0.48660
 Alpha  occ. eigenvalues --   -0.48646  -0.48111  -0.47822  -0.47686  -0.47611
 Alpha  occ. eigenvalues --   -0.47578  -0.47441  -0.47210  -0.47028  -0.46946
 Alpha  occ. eigenvalues --   -0.46641  -0.46505  -0.46179  -0.46010  -0.45907
 Alpha  occ. eigenvalues --   -0.45653  -0.45536  -0.45446  -0.45029  -0.44751
 Alpha  occ. eigenvalues --   -0.44581  -0.44347  -0.44299  -0.44028  -0.43931
 Alpha  occ. eigenvalues --   -0.43824  -0.43573  -0.43314  -0.43027  -0.42988
 Alpha  occ. eigenvalues --   -0.42893  -0.42738  -0.42541  -0.42422  -0.42143
 Alpha  occ. eigenvalues --   -0.42007  -0.41851  -0.41390  -0.41369  -0.41243
 Alpha  occ. eigenvalues --   -0.40477  -0.40130  -0.40044  -0.39368  -0.39282
 Alpha  occ. eigenvalues --   -0.39097  -0.38673  -0.38660  -0.38096  -0.37874
 Alpha  occ. eigenvalues --   -0.37697  -0.37094  -0.36774  -0.36609  -0.36414
 Alpha  occ. eigenvalues --   -0.36180  -0.35607  -0.35438  -0.33792  -0.32754
 Alpha  occ. eigenvalues --   -0.32416  -0.32298  -0.32118  -0.30851  -0.26237
 Alpha  occ. eigenvalues --   -0.23231
 Alpha virt. eigenvalues --   -0.07084   0.00438   0.02357   0.04195   0.04869
 Alpha virt. eigenvalues --    0.05717   0.06927   0.07306   0.07578   0.09684
 Alpha virt. eigenvalues --    0.10948   0.11016   0.11669   0.12163   0.12423

 Mulliken charges:
               1
     1  Mg   0.942211
     2  C   -0.093492
     3  C   -0.066543
     4  C   -0.094691
     5  C   -0.074882
     6  N   -0.375917
     7  C   -0.026965
     8  C   -0.022537
     9  C   -0.080020
    10  C    0.092533
    11  C   -0.004523
    12  C    0.028403
    13  C   -0.003301
    14  C    0.211674
    15  O   -0.259865
    16  O   -0.396685
    17  N   -0.438794
    18  C    0.123065
    19  C   -0.149793
    20  C   -0.079689
    21  C    0.191953
    22  C    0.099364
    23  C    0.034929
    24  O   -0.248745
    25  C    0.005719
    26  N   -0.327618
    27  C    0.034336
    28  C   -0.076620
    29  C   -0.070078
    30  C    0.065288
    31  C    0.015722
    32  C   -0.009072
    33  C   -0.062644
    34  N   -0.406114
    35  C    0.095515
    36  C   -0.170422
    37  C   -0.096590
    38  C    0.204097
    39  C    0.074180
    40  C    0.119179
    41  O   -0.168127
    42  C   -0.100760
    43  C    0.294930
    44  O   -0.245240
    45  O   -0.363283
    46  C    0.127017
    47  C    0.238441
    48  C   -0.134034
    49  C   -0.239738
    50  C    0.031950
    51  C    0.028147
    52  C   -0.027946
    53  C    0.005118
    54  C   -0.214361
    55  C    0.024068
    56  C    0.042873
    57  C   -0.058564
    58  C    0.015985
    59  C   -0.206419
    60  C    0.012768
    61  C    0.023948
    62  C   -0.034982
    63  C    0.014246
    64  C   -0.221889
    65  C   -0.004399
    66  C    0.027747
    67  H    0.004010
    68  H   -0.026882
    69  H   -0.016068
    70  H    0.037106
    71  H    0.051607
    72  H    0.037424
    73  H    0.050671
    74  H    0.060801
    75  H    0.032362
    76  H    0.056166
    77  H    0.067460
    78  H    0.039241
    79  H    0.065587
    80  H    0.000703
    81  H    0.056309
    82  H    0.051883
    83  H    0.063768
    84  H    0.063629
    85  H    0.045415
    86  H    0.036955
    87  H    0.040439
    88  H    0.028334
    89  H    0.046707
    90  H    0.052864
    91  H    0.032038
    92  H    0.032395
    93  H    0.039989
    94  H    0.034895
    95  H    0.052543
    96  H    0.058965
    97  H    0.019505
    98  H    0.059717
    99  H    0.061407
   100  H    0.064361
   101  H    0.050480
   102  H    0.042028
   103  H    0.061616
   104  H    0.020515
   105  H    0.038217
   106  H    0.050686
   107  H    0.051301
   108  H    0.006819
   109  H    0.042532
   110  H    0.036428
   111  H    0.044688
   112  H    0.016848
   113  H    0.027277
   114  H    0.018608
   115  H    0.037677
   116  H    0.033558
   117  H    0.003467
   118  H    0.009016
   119  H    0.015074
   120  H    0.022755
   121  H    0.027371
   122  H    0.006340
   123  H    0.015586
   124  H    0.021277
   125  H    0.022886
   126  H    0.029349
   127  H    0.026599
   128  H    0.014376
   129  H    0.010433
   130  H    0.012711
   131  H    0.000389
   132  H    0.003840
   133  H    0.001511
   134  H    0.020179
   135  H    0.046782
   136  H    0.024586
   137  H    0.037838
   138  H    0.003190
   139  H    0.032360
   140  H    0.040440
 Sum of Mulliken charges =  -0.00000

 Dipole moment (field-independent basis, Debye):
    X=             -0.6029    Y=              3.2922    Z=              2.7471  Tot=              4.3300
 Quadrupole moment (field-independent basis, Debye-Ang):
   XX=           -373.2317   YY=           -428.5414   ZZ=           -391.8577
   XY=             40.7210   XZ=             14.3951   YZ=             14.0099

 Normal termination of Gaussian 16 at Wed May  4 20:39:30 2022.
