 Gaussian 16, Revision A.03,
 Gaussian 16:  ES64L-G16RevA.03 25-Dec-2016

 --------------------
 #p ZINDO=(nstates=5)
 --------------------

 -----------------------------
 step_401_chromophore_23 ZINDO
 -----------------------------
 Symbolic Z-matrix:
 Charge =  0 Multiplicity = 1

                         Standard orientation:
 ---------------------------------------------------------------------
 Center     Atomic      Atomic             Coordinates (Angstroms)
 Number     Number       Type             X           Y           Z
 ---------------------------------------------------------------------
      1         12           0        4.737604    0.982316   -0.590313
      2          6           0        3.833720   -2.279194   -0.701320
      3          6           0        1.738806    1.853385   -2.048106
      4          6           0        5.146758    4.295789    0.369361
      5          6           0        7.326378    0.163017    1.620049
      6          7           0        2.888036   -0.101070   -1.091963
      7          6           0        2.785633   -1.464607   -1.203263
      8          6           0        1.496244   -1.938554   -1.791177
      9          6           0        0.870348   -0.571498   -2.317380
     10          6           0        1.881701    0.482022   -1.851568
     11          6           0        0.642674   -0.494376   -3.908055
     12          6           0        0.647158   -2.610230   -0.678018
     13          6           0        0.012298   -3.987286   -0.943385
     14          6           0       -1.363473   -3.942829   -1.633401
     15          8           0       -1.632675   -3.486269   -2.741172
     16          8           0       -2.322747   -4.287382   -0.650541
     17          7           0        3.688527    2.898068   -0.989432
     18          6           0        2.467282    2.996827   -1.676736
     19          6           0        2.097133    4.385291   -1.699077
     20          6           0        3.072605    5.149808   -0.985234
     21          6           0        4.091098    4.103373   -0.488954
     22          6           0        0.761306    4.932107   -2.229905
     23          6           0        2.926245    6.658445   -0.680077
     24          8           0        1.925468    7.242663   -1.115706
     25          6           0        3.945363    7.520871    0.026774
     26          7           0        5.994055    2.155844    0.815227
     27          6           0        6.037257    3.426389    0.975072
     28          6           0        7.084910    3.763777    2.118707
     29          6           0        7.712913    2.451768    2.474032
     30          6           0        6.978155    1.493103    1.576703
     31          6           0        8.158332    4.835006    1.682310
     32          6           0        7.588410    2.048275    3.977509
     33          6           0        8.825533    1.376263    4.640527
     34          7           0        5.613803   -0.780709    0.145845
     35          6           0        6.636766   -0.965861    1.015253
     36          6           0        6.892881   -2.399228    1.176997
     37          6           0        5.750744   -3.015718    0.407795
     38          6           0        5.018536   -1.923374   -0.097350
     39          6           0        7.922858   -3.059971    2.058358
     40          6           0        5.066507   -4.275056    0.042081
     41          8           0        5.301646   -5.417921    0.302133
     42          6           0        3.913535   -3.851370   -0.902536
     43          6           0        4.302086   -4.187778   -2.316523
     44          8           0        4.938081   -3.583071   -3.162677
     45          8           0        4.059616   -5.528899   -2.487697
     46          6           0        4.199177   -6.012274   -3.854291
     47          6           0       -3.730832   -3.888912   -0.804318
     48          6           0       -4.352623   -3.734799    0.610202
     49          6           0       -4.116048   -2.677940    1.443244
     50          6           0       -3.151957   -1.536503    1.091265
     51          6           0       -4.793123   -2.532970    2.825421
     52          6           0       -6.320231   -2.072034    2.801407
     53          6           0       -7.263531   -3.210561    3.278451
     54          6           0       -8.590292   -3.273014    2.402708
     55          6           0       -9.421524   -4.555482    2.803398
     56          6           0       -9.464005   -2.076991    2.587198
     57          6           0       -9.391560   -0.993091    1.497687
     58          6           0       -9.149127    0.422007    2.138252
     59          6           0       -8.744566    1.429965    1.045606
     60          6           0       -7.206422    1.594820    0.862534
     61          6           0       -9.578026    2.779696    1.041873
     62          6           0       -9.932731    3.175843   -0.412761
     63          6           0      -11.371683    2.977407   -0.908373
     64          6           0      -12.103605    4.123445   -1.695085
     65          6           0      -13.647260    4.198394   -1.352873
     66          6           0      -11.761098    4.102695   -3.163973
     67          1           0        0.995994    2.210089   -2.764479
     68          1           0        5.185389    5.295972    0.806099
     69          1           0        8.201791   -0.082506    2.225293
     70          1           0        1.668128   -2.681614   -2.571112
     71          1           0       -0.088827   -0.379109   -1.835486
     72          1           0        1.614321   -0.138235   -4.248554
     73          1           0       -0.093355    0.205172   -4.302648
     74          1           0        0.437008   -1.499110   -4.277269
     75          1           0       -0.205534   -1.991180   -0.400179
     76          1           0        1.249781   -2.740360    0.221319
     77          1           0        0.041986   -4.753873   -0.169227
     78          1           0        0.559796   -4.406299   -1.787823
     79          1           0        0.044485    5.239982   -1.467802
     80          1           0        0.211378    4.186579   -2.804937
     81          1           0        0.918376    5.697949   -2.989437
     82          1           0        3.687511    8.580266    0.053981
     83          1           0        4.889953    7.432066   -0.509006
     84          1           0        3.957303    7.224500    1.075549
     85          1           0        6.438197    4.178544    2.891904
     86          1           0        8.749318    2.323621    2.162187
     87          1           0        9.143100    4.499403    2.007927
     88          1           0        8.013656    5.783609    2.198465
     89          1           0        8.087548    5.088663    0.625178
     90          1           0        6.707462    1.412042    4.069259
     91          1           0        7.567728    3.000322    4.507257
     92          1           0        9.335511    0.742786    3.914604
     93          1           0        8.573007    0.759650    5.504000
     94          1           0        9.501020    2.115296    5.070550
     95          1           0        8.900229   -3.102708    1.578248
     96          1           0        7.551243   -3.986593    2.496923
     97          1           0        8.112893   -2.474384    2.957899
     98          1           0        2.939267   -4.210175   -0.571366
     99          1           0        5.078534   -6.649960   -3.948003
    100          1           0        4.257058   -5.172035   -4.545883
    101          1           0        3.276349   -6.580061   -3.976017
    102          1           0       -4.185885   -4.740044   -1.310788
    103          1           0       -3.909587   -2.943506   -1.316997
    104          1           0       -5.126498   -4.439339    0.915294
    105          1           0       -2.659839   -1.753127    0.143069
    106          1           0       -2.430692   -1.493010    1.907262
    107          1           0       -3.722858   -0.608448    1.099223
    108          1           0       -4.157280   -1.802336    3.325149
    109          1           0       -4.615584   -3.482138    3.331905
    110          1           0       -6.450349   -1.839459    1.744026
    111          1           0       -6.461328   -1.232295    3.481415
    112          1           0       -7.572427   -2.911184    4.279738
    113          1           0       -6.706006   -4.145651    3.330498
    114          1           0       -8.277346   -3.373108    1.363423
    115          1           0       -9.536881   -5.210167    1.939049
    116          1           0      -10.265451   -4.282686    3.437581
    117          1           0       -8.802678   -5.157082    3.468244
    118          1           0       -9.306717   -1.632801    3.570937
    119          1           0      -10.517402   -2.354941    2.626383
    120          1           0      -10.404069   -1.053083    1.098378
    121          1           0       -8.725388   -1.154851    0.650531
    122          1           0       -8.330919    0.349978    2.855057
    123          1           0      -10.025986    0.789022    2.670532
    124          1           0       -8.951845    0.874347    0.131419
    125          1           0       -6.673769    1.062210    1.651095
    126          1           0       -6.982302    2.660780    0.826624
    127          1           0       -6.924530    1.121367   -0.078138
    128          1           0       -8.999577    3.554136    1.545326
    129          1           0      -10.447565    2.758248    1.699097
    130          1           0       -9.212158    2.785391   -1.129830
    131          1           0       -9.642032    4.221987   -0.503631
    132          1           0      -11.913218    2.485828   -0.100696
    133          1           0      -11.277098    2.134398   -1.593566
    134          1           0      -11.656125    5.033355   -1.296419
    135          1           0      -13.825439    4.063158   -0.285973
    136          1           0      -14.044024    3.360330   -1.927794
    137          1           0      -13.983594    5.109247   -1.848499
    138          1           0      -12.689139    4.359993   -3.674826
    139          1           0      -11.540393    3.076732   -3.459551
    140          1           0      -11.116748    4.925027   -3.472845
 ---------------------------------------------------------------------

 SCF Done:  E(RZINDO/S) =  -473.978505687     A.U. after   19 cycles

 Excitation energies and oscillator strengths:

 Excited State   1:      Singlet-A      1.3557 eV  914.57 nm  f=0.5762  <S**2>=0.000
     175 ->178         0.14855
     176 ->177         0.67482
 This state for optimization and/or second-order correction.
 Total Energy, E(CIS/TDA) =  -473.928686124
 Copying the excited state density for this state as the 1-particle RhoCI density.

 Excited State   2:      Singlet-A      1.9485 eV  636.29 nm  f=0.0585  <S**2>=0.000
     175 ->177         0.55887
     176 ->178        -0.38455

 Excited State   3:      Singlet-A      2.8596 eV  433.58 nm  f=0.0017  <S**2>=0.000
     167 ->177         0.10279
     167 ->179        -0.14931
     168 ->177         0.33073
     168 ->178        -0.12379
     168 ->179        -0.39015
     168 ->180        -0.10131
     168 ->181         0.21034
     168 ->184         0.13892
     168 ->186        -0.19064
     168 ->187        -0.10856

 Excited State   4:      Singlet-A      3.0087 eV  412.09 nm  f=0.6593  <S**2>=0.000
     171 ->177         0.10073
     175 ->177         0.30272
     176 ->178         0.44334
     176 ->179        -0.28495
     176 ->181        -0.23844
     176 ->183        -0.10633

 Excited State   5:      Singlet-A      3.0396 eV  407.90 nm  f=0.0670  <S**2>=0.000
     176 ->180         0.65091
     176 ->181         0.20552

 The electronic state is 1-A.
 Alpha  occ. eigenvalues --   -1.83818  -1.81713  -1.78532  -1.73353  -1.71068
 Alpha  occ. eigenvalues --   -1.69016  -1.64918  -1.59529  -1.59177  -1.58698
 Alpha  occ. eigenvalues --   -1.54193  -1.51875  -1.49307  -1.48299  -1.47539
 Alpha  occ. eigenvalues --   -1.43512  -1.41863  -1.38518  -1.38119  -1.37943
 Alpha  occ. eigenvalues --   -1.35446  -1.32763  -1.31329  -1.30730  -1.28907
 Alpha  occ. eigenvalues --   -1.27568  -1.25818  -1.22677  -1.21506  -1.17772
 Alpha  occ. eigenvalues --   -1.17017  -1.15049  -1.14884  -1.13275  -1.12988
 Alpha  occ. eigenvalues --   -1.12260  -1.11412  -1.09700  -1.04943  -1.03249
 Alpha  occ. eigenvalues --   -1.01904  -1.01318  -0.98034  -0.97412  -0.96936
 Alpha  occ. eigenvalues --   -0.96742  -0.94805  -0.93963  -0.93870  -0.92419
 Alpha  occ. eigenvalues --   -0.91033  -0.90195  -0.89870  -0.88766  -0.87581
 Alpha  occ. eigenvalues --   -0.85871  -0.83847  -0.83115  -0.82229  -0.80042
 Alpha  occ. eigenvalues --   -0.79321  -0.78106  -0.77119  -0.76986  -0.76619
 Alpha  occ. eigenvalues --   -0.76115  -0.75488  -0.75129  -0.74015  -0.73557
 Alpha  occ. eigenvalues --   -0.72462  -0.72314  -0.71797  -0.71619  -0.70877
 Alpha  occ. eigenvalues --   -0.70458  -0.69826  -0.69431  -0.68025  -0.67882
 Alpha  occ. eigenvalues --   -0.67375  -0.67090  -0.66690  -0.66358  -0.65803
 Alpha  occ. eigenvalues --   -0.65297  -0.64731  -0.63955  -0.63608  -0.63373
 Alpha  occ. eigenvalues --   -0.63041  -0.62841  -0.62531  -0.62461  -0.61989
 Alpha  occ. eigenvalues --   -0.61536  -0.61154  -0.60881  -0.60578  -0.59937
 Alpha  occ. eigenvalues --   -0.59198  -0.59005  -0.58825  -0.58353  -0.58287
 Alpha  occ. eigenvalues --   -0.58228  -0.58010  -0.57901  -0.57255  -0.56738
 Alpha  occ. eigenvalues --   -0.56133  -0.55744  -0.55625  -0.54954  -0.54706
 Alpha  occ. eigenvalues --   -0.54028  -0.53843  -0.53302  -0.53151  -0.52956
 Alpha  occ. eigenvalues --   -0.52688  -0.52489  -0.52381  -0.52050  -0.51875
 Alpha  occ. eigenvalues --   -0.51539  -0.51151  -0.50716  -0.50466  -0.50181
 Alpha  occ. eigenvalues --   -0.49923  -0.49865  -0.49509  -0.49167  -0.49084
 Alpha  occ. eigenvalues --   -0.48609  -0.48508  -0.48329  -0.48050  -0.47758
 Alpha  occ. eigenvalues --   -0.47628  -0.47398  -0.47334  -0.46891  -0.46569
 Alpha  occ. eigenvalues --   -0.46523  -0.46334  -0.46006  -0.45751  -0.45579
 Alpha  occ. eigenvalues --   -0.45313  -0.45262  -0.45018  -0.44801  -0.44356
 Alpha  occ. eigenvalues --   -0.43720  -0.42878  -0.42817  -0.42510  -0.42152
 Alpha  occ. eigenvalues --   -0.41541  -0.41248  -0.41057  -0.39623  -0.39067
 Alpha  occ. eigenvalues --   -0.38264  -0.37232  -0.36118  -0.34799  -0.34219
 Alpha  occ. eigenvalues --   -0.34133  -0.32737  -0.32509  -0.30566  -0.26900
 Alpha  occ. eigenvalues --   -0.22146
 Alpha virt. eigenvalues --   -0.08521  -0.01948  -0.00723   0.00471   0.00773
 Alpha virt. eigenvalues --    0.00940   0.02627   0.03019   0.04452   0.04801
 Alpha virt. eigenvalues --    0.05314   0.06710   0.06908   0.07605   0.07873

 Mulliken charges:
               1
     1  Mg   0.433978
     2  C   -0.052110
     3  C   -0.073821
     4  C   -0.095005
     5  C   -0.062631
     6  N   -0.285838
     7  C    0.095642
     8  C    0.016859
     9  C    0.007149
    10  C    0.174532
    11  C   -0.055919
    12  C   -0.012642
    13  C    0.000521
    14  C    0.463806
    15  O   -0.511001
    16  O   -0.289354
    17  N   -0.355162
    18  C    0.145888
    19  C    0.065850
    20  C   -0.049104
    21  C    0.162757
    22  C   -0.035773
    23  C    0.327789
    24  O   -0.521313
    25  C   -0.020873
    26  N   -0.264372
    27  C    0.187509
    28  C    0.011285
    29  C    0.003559
    30  C    0.072732
    31  C   -0.057262
    32  C   -0.033446
    33  C   -0.060089
    34  N   -0.301321
    35  C    0.062405
    36  C   -0.019630
    37  C   -0.093408
    38  C    0.122443
    39  C   -0.035298
    40  C    0.343221
    41  O   -0.516039
    42  C    0.048118
    43  C    0.488006
    44  O   -0.515760
    45  O   -0.273714
    46  C    0.073076
    47  C    0.106938
    48  C   -0.107136
    49  C   -0.003443
    50  C   -0.044802
    51  C   -0.033393
    52  C   -0.037035
    53  C   -0.037516
    54  C   -0.010378
    55  C   -0.070994
    56  C   -0.027794
    57  C   -0.042528
    58  C   -0.035224
    59  C   -0.027003
    60  C   -0.057887
    61  C   -0.030269
    62  C   -0.033816
    63  C   -0.037984
    64  C   -0.009799
    65  C   -0.060761
    66  C   -0.056469
    67  H    0.022396
    68  H    0.010993
    69  H    0.029010
    70  H    0.044093
    71  H    0.037496
    72  H    0.020604
    73  H    0.030769
    74  H    0.032129
    75  H    0.025170
    76  H    0.026772
    77  H    0.050496
    78  H    0.029732
    79  H    0.046500
    80  H    0.007576
    81  H    0.042131
    82  H    0.038161
    83  H    0.039005
    84  H    0.039062
    85  H    0.034843
    86  H    0.034605
    87  H    0.026743
    88  H    0.012689
    89  H    0.028497
    90  H    0.035568
    91  H    0.014396
    92  H    0.022834
    93  H    0.017856
    94  H    0.018058
    95  H    0.036211
    96  H    0.033288
    97  H    0.011145
    98  H    0.052110
    99  H    0.045606
   100  H    0.051736
   101  H    0.028313
   102  H    0.039373
   103  H    0.055449
   104  H    0.031869
   105  H    0.029239
   106  H    0.026601
   107  H    0.031482
   108  H    0.013499
   109  H    0.027634
   110  H    0.029940
   111  H    0.027188
   112  H    0.017485
   113  H    0.028043
   114  H    0.021945
   115  H    0.028156
   116  H    0.031698
   117  H    0.005263
   118  H    0.016485
   119  H    0.011626
   120  H    0.013588
   121  H    0.030419
   122  H    0.017302
   123  H    0.021574
   124  H    0.014175
   125  H    0.020403
   126  H    0.022990
   127  H    0.016718
   128  H    0.014477
   129  H    0.020587
   130  H    0.018554
   131  H    0.004715
   132  H    0.018777
   133  H    0.005985
   134  H    0.010200
   135  H    0.032163
   136  H    0.017146
   137  H    0.025805
   138  H    0.005524
   139  H    0.030703
   140  H    0.029678
 Sum of Mulliken charges =  -0.00000

 Dipole moment (field-independent basis, Debye):
    X=             -1.8474    Y=              6.6447    Z=              3.2778  Tot=              7.6360
 N-N= 4.387893442901D+03 E-N= 0.000000000000D+00  KE=-9.449620030293D+03
 Leave Link  601 at Wed May  4 21:01:32 2022, MaxMem=  6710886400 cpu:               0.7 elap:               0.0
 (Enter /sw/apps/gaussian-16.0/g16/l9999.exe)
 1\1\GINC-BP1-COMPUTE164\SP\RZINDO CIS\STO-3G\C55H74Mg1N4O6\OF15641\04-
 May-2022\0\\#p ZINDO=(nstates=5)\\step_401_chromophore_23 ZINDO\\0,1\M
 g,0,-10.005,40.063,43.152\C,0,-8.693,37.115,42.125\C,0,-7.878,41.741,4
 1.022\C,0,-11.915,42.954,43.4\C,0,-12.674,38.335,44.618\N,0,-8.605,39.
 454,41.566\C,0,-8.096,38.189,41.415\C,0,-6.984,38.088,40.422\C,0,-6.66
 6,39.625,40.15\C,0,-7.729,40.357,40.977\C,0,-5.184,40.097,40.561\C,0,-
 7.495,37.338,39.162\C,0,-6.656,36.186,38.58\C,0,-5.564,36.62,37.585\O,

 Normal termination of Gaussian 16 at Wed May  4 21:01:32 2022.
