 Gaussian 16, Revision A.03,
 Gaussian 16:  ES64L-G16RevA.03 25-Dec-2016

 ------------------------------
 #p blyp/Def2SVP td=(nstates=5)
 ------------------------------

 ---------------------------------------------------
 step_1851_chromophore_27 TDDFT with blyp functional
 ---------------------------------------------------
 Symbolic Z-matrix:
 Charge =  0 Multiplicity = 1

                         Standard orientation:
 ---------------------------------------------------------------------
 Center     Atomic      Atomic             Coordinates (Angstroms)
 Number     Number       Type             X           Y           Z
 ---------------------------------------------------------------------
      1         12           0       -4.398847    0.886418    0.059325
      2          6           0       -4.123942   -2.595841    0.260746
      3          6           0       -1.162014    1.126223    0.361718
      4          6           0       -4.943304    4.219996   -0.005904
      5          6           0       -8.067598    0.459697   -0.218740
      6          7           0       -2.850611   -0.610341    0.388933
      7          6           0       -2.907611   -1.935993    0.231944
      8          6           0       -1.542618   -2.537486    0.085556
      9          6           0       -0.600285   -1.353885    0.541389
     10          6           0       -1.494470   -0.177316    0.444898
     11          6           0       -0.072176   -1.614720    1.962381
     12          6           0       -1.223116   -2.936885   -1.381300
     13          6           0       -0.172354   -4.150887   -1.542619
     14          6           0        1.128220   -3.914201   -2.213294
     15          8           0        1.224652   -3.490319   -3.347090
     16          8           0        2.199926   -4.279054   -1.415500
     17          7           0       -3.181012    2.408795    0.197608
     18          6           0       -1.874807    2.335609    0.291174
     19          6           0       -1.249491    3.644265    0.150790
     20          6           0       -2.380702    4.578982    0.151472
     21          6           0       -3.597935    3.746055    0.128848
     22          6           0        0.197330    3.933818    0.261513
     23          6           0       -2.315241    5.999803    0.097726
     24          8           0       -3.278572    6.686679   -0.031022
     25          6           0       -1.025629    6.776748    0.309748
     26          7           0       -6.260220    2.165431   -0.018607
     27          6           0       -6.155496    3.510701   -0.073501
     28          6           0       -7.492444    4.193384   -0.244122
     29          6           0       -8.464227    3.000687   -0.098128
     30          6           0       -7.582773    1.754101   -0.096529
     31          6           0       -7.702842    5.329796    0.770302
     32          6           0       -9.564194    2.947883   -1.149420
     33          6           0      -11.000513    2.615818   -0.657219
     34          7           0       -5.868016   -0.651444    0.104489
     35          6           0       -7.289280   -0.705406    0.033140
     36          6           0       -7.728185   -2.145842    0.125089
     37          6           0       -6.516540   -2.954115    0.312766
     38          6           0       -5.446968   -1.983841    0.245984
     39          6           0       -9.165316   -2.625704    0.009576
     40          6           0       -5.924943   -4.280751    0.466629
     41          8           0       -6.491558   -5.371581    0.599059
     42          6           0       -4.457115   -4.036669    0.481805
     43          6           0       -3.959753   -4.480767    1.819565
     44          8           0       -4.221605   -3.941546    2.918648
     45          8           0       -3.113010   -5.530468    1.559990
     46          6           0       -2.366275   -5.987324    2.797846
     47          6           0        3.543184   -4.358301   -1.965909
     48          6           0        4.039834   -2.947481   -2.010125
     49          6           0        5.253861   -2.419443   -1.552067
     50          6           0        6.285383   -3.176190   -0.794932
     51          6           0        5.618279   -0.989214   -1.866649
     52          6           0        6.355762   -0.794270   -3.233918
     53          6           0        7.859019   -0.471962   -3.227479
     54          6           0        8.062036    0.932308   -3.853096
     55          6           0        7.747883    0.931902   -5.361253
     56          6           0        9.491245    1.430092   -3.419751
     57          6           0        9.435424    2.505209   -2.345059
     58          6           0       10.450321    2.327387   -1.244113
     59          6           0        9.777718    1.873114    0.156367
     60          6           0        9.410825    0.414634    0.206297
     61          6           0       10.711631    2.163908    1.359752
     62          6           0       10.045184    1.948637    2.772293
     63          6           0       10.734488    0.661820    3.450573
     64          6           0       10.421040    0.782987    4.984978
     65          6           0       11.557465    0.250691    5.829509
     66          6           0        9.104175    0.159737    5.440298
     67          1           0       -0.086114    1.205644    0.528932
     68          1           0       -5.130799    5.295279   -0.011958
     69          1           0       -9.137828    0.248741   -0.269869
     70          1           0       -1.400154   -3.402388    0.733842
     71          1           0        0.239661   -1.182435   -0.132350
     72          1           0       -0.404732   -2.575923    2.354910
     73          1           0       -0.339855   -0.835191    2.675242
     74          1           0        1.004739   -1.774895    1.903706
     75          1           0       -0.744407   -2.106801   -1.900276
     76          1           0       -2.175610   -3.128315   -1.874413
     77          1           0       -0.582849   -4.999306   -2.090151
     78          1           0        0.013105   -4.610596   -0.571722
     79          1           0        0.397991    4.478474    1.184311
     80          1           0        0.524955    4.608244   -0.529298
     81          1           0        0.802322    3.029846    0.187315
     82          1           0       -1.156209    7.858607    0.266136
     83          1           0       -0.323121    6.651474   -0.513453
     84          1           0       -0.442098    6.525770    1.194441
     85          1           0       -7.504213    4.508646   -1.288145
     86          1           0       -8.989212    2.934113    0.855407
     87          1           0       -8.546473    5.117663    1.427447
     88          1           0       -7.652375    6.317007    0.311560
     89          1           0       -6.846404    5.283752    1.443662
     90          1           0       -9.267296    2.212803   -1.897955
     91          1           0       -9.562488    3.902761   -1.674989
     92          1           0      -11.256479    2.589104    0.401968
     93          1           0      -11.399659    1.739924   -1.168719
     94          1           0      -11.528309    3.466455   -1.087828
     95          1           0       -9.687202   -2.429972    0.945836
     96          1           0       -9.231972   -3.668654   -0.300450
     97          1           0       -9.627924   -2.074057   -0.808918
     98          1           0       -3.980771   -4.526163   -0.368229
     99          1           0       -3.100777   -6.582788    3.340056
    100          1           0       -1.968015   -5.169813    3.398321
    101          1           0       -1.514539   -6.637363    2.594938
    102          1           0        3.518643   -4.786345   -2.967109
    103          1           0        4.188510   -4.958425   -1.324412
    104          1           0        3.357631   -2.426324   -2.681124
    105          1           0        7.227521   -3.270949   -1.334674
    106          1           0        5.893441   -4.167419   -0.569917
    107          1           0        6.503192   -2.707600    0.165430
    108          1           0        6.173021   -0.556180   -1.034585
    109          1           0        4.728548   -0.366820   -1.962730
    110          1           0        5.740767   -0.019447   -3.691428
    111          1           0        6.218999   -1.748252   -3.742041
    112          1           0        8.206502   -1.183463   -3.977077
    113          1           0        8.116292   -0.646243   -2.182373
    114          1           0        7.326656    1.567850   -3.358448
    115          1           0        8.298027    0.093845   -5.791339
    116          1           0        8.183768    1.887068   -5.651641
    117          1           0        6.692925    0.781111   -5.590036
    118          1           0        9.897833    1.988555   -4.263187
    119          1           0       10.142280    0.575549   -3.237500
    120          1           0        8.414785    2.501490   -1.960584
    121          1           0        9.528650    3.503128   -2.774221
    122          1           0       10.765623    3.350171   -1.039050
    123          1           0       11.308991    1.682582   -1.428008
    124          1           0        8.906347    2.481320    0.397255
    125          1           0        9.668322    0.046535   -0.786940
    126          1           0        8.386847    0.147650    0.466184
    127          1           0       10.082777   -0.187567    0.817565
    128          1           0       11.135475    3.155484    1.198636
    129          1           0       11.515166    1.460940    1.139661
    130          1           0        9.035253    1.611037    2.538805
    131          1           0       10.064834    2.816782    3.430805
    132          1           0       11.788752    0.681701    3.173401
    133          1           0       10.406402   -0.288625    3.030136
    134          1           0       10.344790    1.855037    5.168130
    135          1           0       11.935609    1.128306    6.354348
    136          1           0       12.409538   -0.031132    5.211912
    137          1           0       11.330371   -0.503570    6.583647
    138          1           0        8.882877   -0.587056    4.677290
    139          1           0        8.384168    0.918755    5.744034
    140          1           0        9.280599   -0.371875    6.375064
 ---------------------------------------------------------------------

 SCF Done:  E(RB-LYP) =  -3007.35395570     A.U. after   22 cycles

 Excitation energies and oscillator strengths:

 Excited State   1:      Singlet-A      1.6867 eV  735.07 nm  f=0.0055  <S**2>=0.000
     244 -> 247        0.69921
 This state for optimization and/or second-order correction.
 Total Energy, E(TD-HF/TD-DFT) =  -3007.29197027
 Copying the excited state density for this state as the 1-particle RhoCI density.

 Excited State   2:      Singlet-A      1.7677 eV  701.37 nm  f=0.3073  <S**2>=0.000
     245 -> 248       -0.18100
     246 -> 247        0.68810
     246 <- 247       -0.16025

 Excited State   3:      Singlet-A      1.9175 eV  646.59 nm  f=0.0381  <S**2>=0.000
     243 -> 247        0.49581
     245 -> 247       -0.47431
     246 -> 248       -0.13097

 Excited State   4:      Singlet-A      1.9841 eV  624.89 nm  f=0.0494  <S**2>=0.000
     243 -> 247        0.50206
     245 -> 247        0.45471
     246 -> 248        0.15894

 Excited State   5:      Singlet-A      2.2363 eV  554.43 nm  f=0.0002  <S**2>=0.000
     241 -> 247        0.70704

 The electronic state is 1-A.
 Alpha  occ. eigenvalues --  -46.26648 -18.83324 -18.81945 -18.77294 -18.77067
 Alpha  occ. eigenvalues --  -18.75446 -18.74409 -14.02893 -14.02667 -14.01445
 Alpha  occ. eigenvalues --  -14.00991 -10.04519 -10.04440  -9.99441  -9.98480
 Alpha  occ. eigenvalues --   -9.98339  -9.98127  -9.96531  -9.96475  -9.96267
 Alpha  occ. eigenvalues --   -9.96163  -9.95956  -9.95821  -9.95654  -9.95058
 Alpha  occ. eigenvalues --   -9.94770  -9.94377  -9.94288  -9.94115  -9.94059
 Alpha  occ. eigenvalues --   -9.93950  -9.93758  -9.93511  -9.93443  -9.93438
 Alpha  occ. eigenvalues --   -9.93042  -9.92989  -9.92949  -9.92674  -9.92444
 Alpha  occ. eigenvalues --   -9.92395  -9.92383  -9.92319  -9.92259  -9.92200
 Alpha  occ. eigenvalues --   -9.92005  -9.91979  -9.91953  -9.91900  -9.91866
 Alpha  occ. eigenvalues --   -9.91803  -9.91754  -9.91663  -9.91552  -9.91539
 Alpha  occ. eigenvalues --   -9.91528  -9.91376  -9.91224  -9.91129  -9.91083
 Alpha  occ. eigenvalues --   -9.91047  -9.90993  -9.90840  -9.90820  -9.90774
 Alpha  occ. eigenvalues --   -9.90252  -2.91348  -1.71775  -1.71221  -1.71079
 Alpha  occ. eigenvalues --   -0.97865  -0.97185  -0.92809  -0.90571  -0.90494
 Alpha  occ. eigenvalues --   -0.89158  -0.86572  -0.85793  -0.85326  -0.82711
 Alpha  occ. eigenvalues --   -0.75897  -0.73852  -0.73132  -0.72810  -0.72469
 Alpha  occ. eigenvalues --   -0.72188  -0.72028  -0.71317  -0.71207  -0.70704
 Alpha  occ. eigenvalues --   -0.69718  -0.68787  -0.68434  -0.67676  -0.67401
 Alpha  occ. eigenvalues --   -0.66510  -0.65712  -0.65262  -0.64978  -0.64350
 Alpha  occ. eigenvalues --   -0.64100  -0.62957  -0.62796  -0.61710  -0.60966
 Alpha  occ. eigenvalues --   -0.60799  -0.60244  -0.60132  -0.59890  -0.58925
 Alpha  occ. eigenvalues --   -0.58266  -0.57391  -0.56973  -0.56072  -0.54644
 Alpha  occ. eigenvalues --   -0.54320  -0.53971  -0.53631  -0.52405  -0.51917
 Alpha  occ. eigenvalues --   -0.51516  -0.50888  -0.50777  -0.50538  -0.50089
 Alpha  occ. eigenvalues --   -0.49622  -0.49011  -0.48440  -0.48312  -0.47021
 Alpha  occ. eigenvalues --   -0.46725  -0.46389  -0.45850  -0.45099  -0.44869
 Alpha  occ. eigenvalues --   -0.44645  -0.43935  -0.42933  -0.42617  -0.42485
 Alpha  occ. eigenvalues --   -0.42033  -0.41917  -0.41838  -0.41538  -0.41414
 Alpha  occ. eigenvalues --   -0.41035  -0.40863  -0.40758  -0.40566  -0.40276
 Alpha  occ. eigenvalues --   -0.40218  -0.40070  -0.39613  -0.39484  -0.39419
 Alpha  occ. eigenvalues --   -0.39035  -0.38763  -0.38634  -0.38393  -0.38030
 Alpha  occ. eigenvalues --   -0.38027  -0.37963  -0.37607  -0.37385  -0.37201
 Alpha  occ. eigenvalues --   -0.37060  -0.36981  -0.36857  -0.36718  -0.36619
 Alpha  occ. eigenvalues --   -0.36316  -0.36165  -0.36043  -0.35737  -0.35637
 Alpha  occ. eigenvalues --   -0.35482  -0.35119  -0.34946  -0.34887  -0.34760
 Alpha  occ. eigenvalues --   -0.34550  -0.34185  -0.34155  -0.34060  -0.33996
 Alpha  occ. eigenvalues --   -0.33936  -0.33799  -0.33580  -0.33525  -0.33278
 Alpha  occ. eigenvalues --   -0.33150  -0.33120  -0.32836  -0.32258  -0.32207
 Alpha  occ. eigenvalues --   -0.32131  -0.32036  -0.31828  -0.31675  -0.31521
 Alpha  occ. eigenvalues --   -0.31416  -0.31305  -0.31145  -0.31007  -0.30666
 Alpha  occ. eigenvalues --   -0.30659  -0.30411  -0.30351  -0.30251  -0.30104
 Alpha  occ. eigenvalues --   -0.29666  -0.29453  -0.29299  -0.28912  -0.28789
 Alpha  occ. eigenvalues --   -0.28701  -0.28190  -0.28147  -0.28049  -0.28001
 Alpha  occ. eigenvalues --   -0.27772  -0.27243  -0.27102  -0.26570  -0.26435
 Alpha  occ. eigenvalues --   -0.26284  -0.26223  -0.26165  -0.25655  -0.25625
 Alpha  occ. eigenvalues --   -0.25489  -0.25095  -0.24208  -0.23614  -0.23080
 Alpha  occ. eigenvalues --   -0.22927  -0.22491  -0.22114  -0.21699  -0.20738
 Alpha  occ. eigenvalues --   -0.19997  -0.19932  -0.18807  -0.17917  -0.17175
 Alpha  occ. eigenvalues --   -0.15821
 Alpha virt. eigenvalues --   -0.11779  -0.06802  -0.06146  -0.04459  -0.03385
 Alpha virt. eigenvalues --   -0.03031  -0.02954  -0.01778  -0.01370   0.00380
 Alpha virt. eigenvalues --    0.01403   0.01761   0.02098   0.02220   0.02853

 Mulliken charges:
               1
     1  Mg   0.703063
     2  C   -0.017560
     3  C   -0.066643
     4  C   -0.030014
     5  C   -0.059426
     6  N   -0.241340
     7  C   -0.053873
     8  C   -0.000128
     9  C    0.019732
    10  C   -0.002936
    11  C    0.142151
    12  C    0.141702
    13  C    0.150208
    14  C    0.052221
    15  O   -0.190156
    16  O   -0.277667
    17  N   -0.321878
    18  C    0.166242
    19  C   -0.157364
    20  C    0.087359
    21  C    0.138135
    22  C    0.195763
    23  C   -0.128928
    24  O   -0.140128
    25  C    0.122650
    26  N   -0.185354
    27  C   -0.059104
    28  C    0.054110
    29  C    0.030663
    30  C    0.027845
    31  C    0.154953
    32  C    0.077391
    33  C    0.063300
    34  N   -0.292391
    35  C    0.099433
    36  C   -0.189551
    37  C    0.076075
    38  C    0.071507
    39  C    0.162307
    40  C   -0.049967
    41  O   -0.141794
    42  C    0.146759
    43  C    0.137453
    44  O   -0.200947
    45  O   -0.277160
    46  C    0.208985
    47  C    0.336945
    48  C   -0.138908
    49  C   -0.133301
    50  C    0.159655
    51  C    0.124118
    52  C    0.024133
    53  C    0.139296
    54  C   -0.127092
    55  C    0.117974
    56  C    0.133017
    57  C    0.096422
    58  C    0.117349
    59  C   -0.134750
    60  C    0.119121
    61  C    0.091087
    62  C    0.098888
    63  C    0.040632
    64  C   -0.106042
    65  C    0.124839
    66  C    0.137288
    67  H   -0.071295
    68  H   -0.046041
    69  H   -0.056296
    70  H   -0.027350
    71  H   -0.021938
    72  H   -0.017674
    73  H    0.004030
    74  H   -0.008500
    75  H   -0.005516
    76  H   -0.017287
    77  H    0.010726
    78  H   -0.026758
    79  H    0.006434
    80  H   -0.011737
    81  H   -0.012496
    82  H   -0.021052
    83  H   -0.018937
    84  H   -0.004126
    85  H   -0.016031
    86  H   -0.022527
    87  H   -0.013312
    88  H    0.005616
    89  H   -0.010495
    90  H   -0.024143
    91  H   -0.022620
    92  H    0.003196
    93  H   -0.004468
    94  H   -0.015167
    95  H    0.016042
    96  H    0.008102
    97  H   -0.006307
    98  H   -0.013485
    99  H    0.026824
   100  H    0.026166
   101  H    0.014378
   102  H   -0.001338
   103  H   -0.021292
   104  H   -0.016432
   105  H    0.007446
   106  H   -0.031551
   107  H   -0.004185
   108  H   -0.038503
   109  H   -0.038803
   110  H   -0.020474
   111  H   -0.034078
   112  H   -0.038007
   113  H   -0.025500
   114  H   -0.037640
   115  H   -0.018546
   116  H   -0.006801
   117  H   -0.000246
   118  H   -0.053623
   119  H   -0.023837
   120  H   -0.037008
   121  H   -0.032071
   122  H   -0.044130
   123  H   -0.023002
   124  H   -0.042179
   125  H   -0.018639
   126  H    0.000649
   127  H   -0.033185
   128  H   -0.047086
   129  H   -0.043025
   130  H   -0.026157
   131  H   -0.013312
   132  H   -0.024284
   133  H   -0.018688
   134  H   -0.037332
   135  H   -0.028647
   136  H   -0.028553
   137  H   -0.012767
   138  H   -0.012926
   139  H   -0.013175
   140  H   -0.033400
 Sum of Mulliken charges =  -0.00000

 Dipole moment (field-independent basis, Debye):
    X=              4.7507    Y=              0.9047    Z=             -0.0930  Tot=              4.8369
 Quadrupole moment (field-independent basis, Debye-Ang):
   XX=           -382.7437   YY=           -423.9660   ZZ=           -415.2340
   XY=            -27.3248   XZ=             12.8260   YZ=             -1.5846

 Normal termination of Gaussian 16 at Wed May  4 15:45:47 2022.
