 Gaussian 16, Revision A.03,
 Gaussian 16:  ES64L-G16RevA.03 25-Dec-2016

 -----------------------------------
 #p cam-b3lyp/Def2SVP td=(nstates=5)
 -----------------------------------

 --------------------------------------------------------
 step_1851_chromophore_27 TDDFT with cam-b3lyp functional
 --------------------------------------------------------
 Symbolic Z-matrix:
 Charge =  0 Multiplicity = 1

                         Standard orientation:
 ---------------------------------------------------------------------
 Center     Atomic      Atomic             Coordinates (Angstroms)
 Number     Number       Type             X           Y           Z
 ---------------------------------------------------------------------
      1         12           0       -4.398847    0.886418    0.059325
      2          6           0       -4.123942   -2.595841    0.260746
      3          6           0       -1.162014    1.126223    0.361718
      4          6           0       -4.943304    4.219996   -0.005904
      5          6           0       -8.067598    0.459697   -0.218740
      6          7           0       -2.850611   -0.610341    0.388933
      7          6           0       -2.907611   -1.935993    0.231944
      8          6           0       -1.542618   -2.537486    0.085556
      9          6           0       -0.600285   -1.353885    0.541389
     10          6           0       -1.494470   -0.177316    0.444898
     11          6           0       -0.072176   -1.614720    1.962381
     12          6           0       -1.223116   -2.936885   -1.381300
     13          6           0       -0.172354   -4.150887   -1.542619
     14          6           0        1.128220   -3.914201   -2.213294
     15          8           0        1.224652   -3.490319   -3.347090
     16          8           0        2.199926   -4.279054   -1.415500
     17          7           0       -3.181012    2.408795    0.197608
     18          6           0       -1.874807    2.335609    0.291174
     19          6           0       -1.249491    3.644265    0.150790
     20          6           0       -2.380702    4.578982    0.151472
     21          6           0       -3.597935    3.746055    0.128848
     22          6           0        0.197330    3.933818    0.261513
     23          6           0       -2.315241    5.999803    0.097726
     24          8           0       -3.278572    6.686679   -0.031022
     25          6           0       -1.025629    6.776748    0.309748
     26          7           0       -6.260220    2.165431   -0.018607
     27          6           0       -6.155496    3.510701   -0.073501
     28          6           0       -7.492444    4.193384   -0.244122
     29          6           0       -8.464227    3.000687   -0.098128
     30          6           0       -7.582773    1.754101   -0.096529
     31          6           0       -7.702842    5.329796    0.770302
     32          6           0       -9.564194    2.947883   -1.149420
     33          6           0      -11.000513    2.615818   -0.657219
     34          7           0       -5.868016   -0.651444    0.104489
     35          6           0       -7.289280   -0.705406    0.033140
     36          6           0       -7.728185   -2.145842    0.125089
     37          6           0       -6.516540   -2.954115    0.312766
     38          6           0       -5.446968   -1.983841    0.245984
     39          6           0       -9.165316   -2.625704    0.009576
     40          6           0       -5.924943   -4.280751    0.466629
     41          8           0       -6.491558   -5.371581    0.599059
     42          6           0       -4.457115   -4.036669    0.481805
     43          6           0       -3.959753   -4.480767    1.819565
     44          8           0       -4.221605   -3.941546    2.918648
     45          8           0       -3.113010   -5.530468    1.559990
     46          6           0       -2.366275   -5.987324    2.797846
     47          6           0        3.543184   -4.358301   -1.965909
     48          6           0        4.039834   -2.947481   -2.010125
     49          6           0        5.253861   -2.419443   -1.552067
     50          6           0        6.285383   -3.176190   -0.794932
     51          6           0        5.618279   -0.989214   -1.866649
     52          6           0        6.355762   -0.794270   -3.233918
     53          6           0        7.859019   -0.471962   -3.227479
     54          6           0        8.062036    0.932308   -3.853096
     55          6           0        7.747883    0.931902   -5.361253
     56          6           0        9.491245    1.430092   -3.419751
     57          6           0        9.435424    2.505209   -2.345059
     58          6           0       10.450321    2.327387   -1.244113
     59          6           0        9.777718    1.873114    0.156367
     60          6           0        9.410825    0.414634    0.206297
     61          6           0       10.711631    2.163908    1.359752
     62          6           0       10.045184    1.948637    2.772293
     63          6           0       10.734488    0.661820    3.450573
     64          6           0       10.421040    0.782987    4.984978
     65          6           0       11.557465    0.250691    5.829509
     66          6           0        9.104175    0.159737    5.440298
     67          1           0       -0.086114    1.205644    0.528932
     68          1           0       -5.130799    5.295279   -0.011958
     69          1           0       -9.137828    0.248741   -0.269869
     70          1           0       -1.400154   -3.402388    0.733842
     71          1           0        0.239661   -1.182435   -0.132350
     72          1           0       -0.404732   -2.575923    2.354910
     73          1           0       -0.339855   -0.835191    2.675242
     74          1           0        1.004739   -1.774895    1.903706
     75          1           0       -0.744407   -2.106801   -1.900276
     76          1           0       -2.175610   -3.128315   -1.874413
     77          1           0       -0.582849   -4.999306   -2.090151
     78          1           0        0.013105   -4.610596   -0.571722
     79          1           0        0.397991    4.478474    1.184311
     80          1           0        0.524955    4.608244   -0.529298
     81          1           0        0.802322    3.029846    0.187315
     82          1           0       -1.156209    7.858607    0.266136
     83          1           0       -0.323121    6.651474   -0.513453
     84          1           0       -0.442098    6.525770    1.194441
     85          1           0       -7.504213    4.508646   -1.288145
     86          1           0       -8.989212    2.934113    0.855407
     87          1           0       -8.546473    5.117663    1.427447
     88          1           0       -7.652375    6.317007    0.311560
     89          1           0       -6.846404    5.283752    1.443662
     90          1           0       -9.267296    2.212803   -1.897955
     91          1           0       -9.562488    3.902761   -1.674989
     92          1           0      -11.256479    2.589104    0.401968
     93          1           0      -11.399659    1.739924   -1.168719
     94          1           0      -11.528309    3.466455   -1.087828
     95          1           0       -9.687202   -2.429972    0.945836
     96          1           0       -9.231972   -3.668654   -0.300450
     97          1           0       -9.627924   -2.074057   -0.808918
     98          1           0       -3.980771   -4.526163   -0.368229
     99          1           0       -3.100777   -6.582788    3.340056
    100          1           0       -1.968015   -5.169813    3.398321
    101          1           0       -1.514539   -6.637363    2.594938
    102          1           0        3.518643   -4.786345   -2.967109
    103          1           0        4.188510   -4.958425   -1.324412
    104          1           0        3.357631   -2.426324   -2.681124
    105          1           0        7.227521   -3.270949   -1.334674
    106          1           0        5.893441   -4.167419   -0.569917
    107          1           0        6.503192   -2.707600    0.165430
    108          1           0        6.173021   -0.556180   -1.034585
    109          1           0        4.728548   -0.366820   -1.962730
    110          1           0        5.740767   -0.019447   -3.691428
    111          1           0        6.218999   -1.748252   -3.742041
    112          1           0        8.206502   -1.183463   -3.977077
    113          1           0        8.116292   -0.646243   -2.182373
    114          1           0        7.326656    1.567850   -3.358448
    115          1           0        8.298027    0.093845   -5.791339
    116          1           0        8.183768    1.887068   -5.651641
    117          1           0        6.692925    0.781111   -5.590036
    118          1           0        9.897833    1.988555   -4.263187
    119          1           0       10.142280    0.575549   -3.237500
    120          1           0        8.414785    2.501490   -1.960584
    121          1           0        9.528650    3.503128   -2.774221
    122          1           0       10.765623    3.350171   -1.039050
    123          1           0       11.308991    1.682582   -1.428008
    124          1           0        8.906347    2.481320    0.397255
    125          1           0        9.668322    0.046535   -0.786940
    126          1           0        8.386847    0.147650    0.466184
    127          1           0       10.082777   -0.187567    0.817565
    128          1           0       11.135475    3.155484    1.198636
    129          1           0       11.515166    1.460940    1.139661
    130          1           0        9.035253    1.611037    2.538805
    131          1           0       10.064834    2.816782    3.430805
    132          1           0       11.788752    0.681701    3.173401
    133          1           0       10.406402   -0.288625    3.030136
    134          1           0       10.344790    1.855037    5.168130
    135          1           0       11.935609    1.128306    6.354348
    136          1           0       12.409538   -0.031132    5.211912
    137          1           0       11.330371   -0.503570    6.583647
    138          1           0        8.882877   -0.587056    4.677290
    139          1           0        8.384168    0.918755    5.744034
    140          1           0        9.280599   -0.371875    6.375064
 ---------------------------------------------------------------------

 SCF Done:  E(RCAM-B3LYP) =  -3007.14471692     A.U. after   19 cycles

 Excitation energies and oscillator strengths:

 Excited State   1:      Singlet-A      1.6405 eV  755.79 nm  f=0.3924  <S**2>=0.000
     245 -> 248       -0.17224
     246 -> 247        0.68725
     245 <- 248       -0.10826
 This state for optimization and/or second-order correction.
 Total Energy, E(TD-HF/TD-DFT) =  -3007.08443144
 Copying the excited state density for this state as the 1-particle RhoCI density.

 Excited State   2:      Singlet-A      2.1629 eV  573.22 nm  f=0.1372  <S**2>=0.000
     245 -> 247        0.65114
     246 -> 248        0.25838

 Excited State   3:      Singlet-A      3.1695 eV  391.18 nm  f=0.0049  <S**2>=0.000
     240 -> 247       -0.10035
     244 -> 247        0.68151

 Excited State   4:      Singlet-A      3.4453 eV  359.86 nm  f=0.0147  <S**2>=0.000
     239 -> 247        0.53352
     239 -> 249       -0.31129
     239 -> 250       -0.14402
     240 -> 247        0.21965
     240 -> 249       -0.10721
     246 -> 248        0.11128

 Excited State   5:      Singlet-A      3.5010 eV  354.14 nm  f=0.0910  <S**2>=0.000
     241 -> 247       -0.34676
     241 -> 248       -0.12826
     241 -> 249       -0.14435
     241 -> 250        0.16623
     242 -> 247        0.44179
     246 -> 248       -0.29212

 The electronic state is 1-A.
 Alpha  occ. eigenvalues --  -46.88135 -19.26370 -19.24809 -19.20403 -19.20109
 Alpha  occ. eigenvalues --  -19.18889 -19.17487 -14.41687 -14.41585 -14.39873
 Alpha  occ. eigenvalues --  -14.39519 -10.40065 -10.39779 -10.34948 -10.33418
 Alpha  occ. eigenvalues --  -10.32526 -10.32212 -10.31113 -10.30775 -10.30768
 Alpha  occ. eigenvalues --  -10.30724 -10.30265 -10.30107 -10.29745 -10.29715
 Alpha  occ. eigenvalues --  -10.29687 -10.28434 -10.28378 -10.28284 -10.28030
 Alpha  occ. eigenvalues --  -10.27999 -10.27975 -10.27824 -10.27633 -10.27250
 Alpha  occ. eigenvalues --  -10.27211 -10.26820 -10.26798 -10.26347 -10.26346
 Alpha  occ. eigenvalues --  -10.26332 -10.26295 -10.26259 -10.26113 -10.26074
 Alpha  occ. eigenvalues --  -10.26069 -10.25876 -10.25745 -10.25699 -10.25572
 Alpha  occ. eigenvalues --  -10.25558 -10.25541 -10.25478 -10.25290 -10.25241
 Alpha  occ. eigenvalues --  -10.25237 -10.25051 -10.24969 -10.24854 -10.24797
 Alpha  occ. eigenvalues --  -10.24743 -10.24657 -10.24533 -10.24405 -10.24396
 Alpha  occ. eigenvalues --  -10.23811  -3.16745  -1.91646  -1.91181  -1.91081
 Alpha  occ. eigenvalues --   -1.16364  -1.15728  -1.11189  -1.09078  -1.08480
 Alpha  occ. eigenvalues --   -1.07127  -1.04211  -1.03392  -1.02928  -1.00298
 Alpha  occ. eigenvalues --   -0.93139  -0.90742  -0.89954  -0.89542  -0.89163
 Alpha  occ. eigenvalues --   -0.88894  -0.88648  -0.87918  -0.87812  -0.87323
 Alpha  occ. eigenvalues --   -0.86077  -0.85319  -0.84762  -0.83869  -0.83599
 Alpha  occ. eigenvalues --   -0.82534  -0.81698  -0.81106  -0.80906  -0.80192
 Alpha  occ. eigenvalues --   -0.79994  -0.78660  -0.78529  -0.77243  -0.76483
 Alpha  occ. eigenvalues --   -0.76189  -0.75615  -0.75480  -0.75119  -0.74167
 Alpha  occ. eigenvalues --   -0.73310  -0.72412  -0.71865  -0.70886  -0.69312
 Alpha  occ. eigenvalues --   -0.68966  -0.68575  -0.68141  -0.66775  -0.66101
 Alpha  occ. eigenvalues --   -0.65632  -0.64909  -0.64831  -0.64575  -0.64135
 Alpha  occ. eigenvalues --   -0.63534  -0.62854  -0.62289  -0.62152  -0.60618
 Alpha  occ. eigenvalues --   -0.60316  -0.59888  -0.59434  -0.58764  -0.58225
 Alpha  occ. eigenvalues --   -0.58139  -0.57263  -0.56070  -0.55777  -0.55761
 Alpha  occ. eigenvalues --   -0.55086  -0.54901  -0.54734  -0.54567  -0.54230
 Alpha  occ. eigenvalues --   -0.53967  -0.53835  -0.53621  -0.53205  -0.53168
 Alpha  occ. eigenvalues --   -0.52957  -0.52776  -0.52329  -0.52168  -0.52001
 Alpha  occ. eigenvalues --   -0.51369  -0.51279  -0.51176  -0.51025  -0.50429
 Alpha  occ. eigenvalues --   -0.50319  -0.50235  -0.50030  -0.49681  -0.49543
 Alpha  occ. eigenvalues --   -0.49420  -0.49278  -0.49225  -0.48952  -0.48896
 Alpha  occ. eigenvalues --   -0.48829  -0.48594  -0.48378  -0.47992  -0.47592
 Alpha  occ. eigenvalues --   -0.47525  -0.47505  -0.46785  -0.46686  -0.46655
 Alpha  occ. eigenvalues --   -0.46380  -0.46040  -0.45995  -0.45871  -0.45790
 Alpha  occ. eigenvalues --   -0.45726  -0.45671  -0.45415  -0.45198  -0.45152
 Alpha  occ. eigenvalues --   -0.45112  -0.44916  -0.44566  -0.44132  -0.43861
 Alpha  occ. eigenvalues --   -0.43720  -0.43530  -0.43298  -0.43198  -0.43147
 Alpha  occ. eigenvalues --   -0.42925  -0.42808  -0.42653  -0.42555  -0.42320
 Alpha  occ. eigenvalues --   -0.42103  -0.42016  -0.41672  -0.41531  -0.41486
 Alpha  occ. eigenvalues --   -0.41014  -0.40827  -0.40720  -0.40007  -0.39973
 Alpha  occ. eigenvalues --   -0.39662  -0.39300  -0.39211  -0.39002  -0.38924
 Alpha  occ. eigenvalues --   -0.38694  -0.38143  -0.37987  -0.37671  -0.37330
 Alpha  occ. eigenvalues --   -0.37303  -0.37008  -0.36909  -0.36765  -0.36608
 Alpha  occ. eigenvalues --   -0.36290  -0.36167  -0.34836  -0.34749  -0.34299
 Alpha  occ. eigenvalues --   -0.33818  -0.33370  -0.33016  -0.31328  -0.30883
 Alpha  occ. eigenvalues --   -0.30186  -0.29903  -0.29424  -0.29233  -0.23905
 Alpha  occ. eigenvalues --   -0.21100
 Alpha virt. eigenvalues --   -0.09060  -0.01538   0.00227   0.02435   0.03330
 Alpha virt. eigenvalues --    0.04060   0.04663   0.04835   0.05613   0.06478
 Alpha virt. eigenvalues --    0.07878   0.08249   0.08419   0.08943   0.09295

 Mulliken charges:
               1
     1  Mg   0.836694
     2  C   -0.049635
     3  C   -0.080999
     4  C   -0.045948
     5  C   -0.067528
     6  N   -0.311440
     7  C   -0.016344
     8  C   -0.046933
     9  C   -0.035531
    10  C    0.014334
    11  C    0.086847
    12  C    0.089295
    13  C    0.075812
    14  C    0.137789
    15  O   -0.230547
    16  O   -0.344838
    17  N   -0.414066
    18  C    0.176793
    19  C   -0.155848
    20  C    0.010257
    21  C    0.160804
    22  C    0.131638
    23  C   -0.052359
    24  O   -0.183649
    25  C    0.042213
    26  N   -0.255268
    27  C   -0.033926
    28  C   -0.006392
    29  C   -0.024696
    30  C    0.054260
    31  C    0.089105
    32  C    0.017017
    33  C   -0.000828
    34  N   -0.376648
    35  C    0.106563
    36  C   -0.180343
    37  C   -0.000439
    38  C    0.118716
    39  C    0.109921
    40  C    0.046884
    41  O   -0.179049
    42  C    0.065821
    43  C    0.222992
    44  O   -0.238619
    45  O   -0.340814
    46  C    0.168738
    47  C    0.295736
    48  C   -0.151135
    49  C   -0.158211
    50  C    0.098270
    51  C    0.066788
    52  C   -0.025027
    53  C    0.084627
    54  C   -0.179589
    55  C    0.063810
    56  C    0.070697
    57  C    0.046745
    58  C    0.056788
    59  C   -0.181575
    60  C    0.057231
    61  C    0.040803
    62  C    0.039231
    63  C   -0.006951
    64  C   -0.165641
    65  C    0.062011
    66  C    0.075931
    67  H   -0.039081
    68  H   -0.003871
    69  H   -0.021227
    70  H    0.004976
    71  H    0.012350
    72  H    0.004036
    73  H    0.030436
    74  H    0.016705
    75  H    0.025814
    76  H    0.014329
    77  H    0.042340
    78  H    0.009486
    79  H    0.031914
    80  H    0.014646
    81  H    0.015571
    82  H    0.015331
    83  H    0.009726
    84  H    0.023477
    85  H    0.019020
    86  H    0.011404
    87  H    0.012740
    88  H    0.030494
    89  H    0.016928
    90  H    0.007025
    91  H    0.007078
    92  H    0.026547
    93  H    0.018191
    94  H    0.009697
    95  H    0.042563
    96  H    0.036431
    97  H    0.018001
    98  H    0.031894
    99  H    0.051089
   100  H    0.048785
   101  H    0.038440
   102  H    0.030566
   103  H    0.008524
   104  H    0.016622
   105  H    0.030218
   106  H   -0.007221
   107  H    0.020280
   108  H   -0.011877
   109  H   -0.005608
   110  H    0.005612
   111  H   -0.003772
   112  H   -0.008633
   113  H   -0.002083
   114  H   -0.007578
   115  H    0.004182
   116  H    0.016079
   117  H    0.023431
   118  H   -0.021412
   119  H    0.004271
   120  H   -0.008639
   121  H   -0.002209
   122  H   -0.012780
   123  H    0.005074
   124  H   -0.010585
   125  H    0.003161
   126  H    0.021316
   127  H   -0.006992
   128  H   -0.016399
   129  H   -0.016720
   130  H    0.001206
   131  H    0.015446
   132  H    0.004255
   133  H    0.005589
   134  H   -0.005251
   135  H   -0.003570
   136  H   -0.003172
   137  H    0.011612
   138  H    0.009725
   139  H    0.011415
   140  H   -0.007711
 Sum of Mulliken charges =  -0.00000

 Dipole moment (field-independent basis, Debye):
    X=              4.8827    Y=              0.8051    Z=             -0.0809  Tot=              4.9493
 Quadrupole moment (field-independent basis, Debye-Ang):
   XX=           -379.7629   YY=           -420.3630   ZZ=           -416.0244
   XY=            -26.5066   XZ=             14.0844   YZ=             -1.7467

 Normal termination of Gaussian 16 at Wed May  4 14:36:44 2022.
