 Gaussian 16, Revision A.03,
 Gaussian 16:  ES64L-G16RevA.03 25-Dec-2016

 ---------------------------------
 #p PBE1PBE/Def2SVP td=(nstates=5)
 ---------------------------------

 ------------------------------------------------------
 step_1851_chromophore_27 TDDFT with PBE1PBE functional
 ------------------------------------------------------
 Symbolic Z-matrix:
 Charge =  0 Multiplicity = 1

                         Standard orientation:
 ---------------------------------------------------------------------
 Center     Atomic      Atomic             Coordinates (Angstroms)
 Number     Number       Type             X           Y           Z
 ---------------------------------------------------------------------
      1         12           0       -4.398847    0.886418    0.059325
      2          6           0       -4.123942   -2.595841    0.260746
      3          6           0       -1.162014    1.126223    0.361718
      4          6           0       -4.943304    4.219996   -0.005904
      5          6           0       -8.067598    0.459697   -0.218740
      6          7           0       -2.850611   -0.610341    0.388933
      7          6           0       -2.907611   -1.935993    0.231944
      8          6           0       -1.542618   -2.537486    0.085556
      9          6           0       -0.600285   -1.353885    0.541389
     10          6           0       -1.494470   -0.177316    0.444898
     11          6           0       -0.072176   -1.614720    1.962381
     12          6           0       -1.223116   -2.936885   -1.381300
     13          6           0       -0.172354   -4.150887   -1.542619
     14          6           0        1.128220   -3.914201   -2.213294
     15          8           0        1.224652   -3.490319   -3.347090
     16          8           0        2.199926   -4.279054   -1.415500
     17          7           0       -3.181012    2.408795    0.197608
     18          6           0       -1.874807    2.335609    0.291174
     19          6           0       -1.249491    3.644265    0.150790
     20          6           0       -2.380702    4.578982    0.151472
     21          6           0       -3.597935    3.746055    0.128848
     22          6           0        0.197330    3.933818    0.261513
     23          6           0       -2.315241    5.999803    0.097726
     24          8           0       -3.278572    6.686679   -0.031022
     25          6           0       -1.025629    6.776748    0.309748
     26          7           0       -6.260220    2.165431   -0.018607
     27          6           0       -6.155496    3.510701   -0.073501
     28          6           0       -7.492444    4.193384   -0.244122
     29          6           0       -8.464227    3.000687   -0.098128
     30          6           0       -7.582773    1.754101   -0.096529
     31          6           0       -7.702842    5.329796    0.770302
     32          6           0       -9.564194    2.947883   -1.149420
     33          6           0      -11.000513    2.615818   -0.657219
     34          7           0       -5.868016   -0.651444    0.104489
     35          6           0       -7.289280   -0.705406    0.033140
     36          6           0       -7.728185   -2.145842    0.125089
     37          6           0       -6.516540   -2.954115    0.312766
     38          6           0       -5.446968   -1.983841    0.245984
     39          6           0       -9.165316   -2.625704    0.009576
     40          6           0       -5.924943   -4.280751    0.466629
     41          8           0       -6.491558   -5.371581    0.599059
     42          6           0       -4.457115   -4.036669    0.481805
     43          6           0       -3.959753   -4.480767    1.819565
     44          8           0       -4.221605   -3.941546    2.918648
     45          8           0       -3.113010   -5.530468    1.559990
     46          6           0       -2.366275   -5.987324    2.797846
     47          6           0        3.543184   -4.358301   -1.965909
     48          6           0        4.039834   -2.947481   -2.010125
     49          6           0        5.253861   -2.419443   -1.552067
     50          6           0        6.285383   -3.176190   -0.794932
     51          6           0        5.618279   -0.989214   -1.866649
     52          6           0        6.355762   -0.794270   -3.233918
     53          6           0        7.859019   -0.471962   -3.227479
     54          6           0        8.062036    0.932308   -3.853096
     55          6           0        7.747883    0.931902   -5.361253
     56          6           0        9.491245    1.430092   -3.419751
     57          6           0        9.435424    2.505209   -2.345059
     58          6           0       10.450321    2.327387   -1.244113
     59          6           0        9.777718    1.873114    0.156367
     60          6           0        9.410825    0.414634    0.206297
     61          6           0       10.711631    2.163908    1.359752
     62          6           0       10.045184    1.948637    2.772293
     63          6           0       10.734488    0.661820    3.450573
     64          6           0       10.421040    0.782987    4.984978
     65          6           0       11.557465    0.250691    5.829509
     66          6           0        9.104175    0.159737    5.440298
     67          1           0       -0.086114    1.205644    0.528932
     68          1           0       -5.130799    5.295279   -0.011958
     69          1           0       -9.137828    0.248741   -0.269869
     70          1           0       -1.400154   -3.402388    0.733842
     71          1           0        0.239661   -1.182435   -0.132350
     72          1           0       -0.404732   -2.575923    2.354910
     73          1           0       -0.339855   -0.835191    2.675242
     74          1           0        1.004739   -1.774895    1.903706
     75          1           0       -0.744407   -2.106801   -1.900276
     76          1           0       -2.175610   -3.128315   -1.874413
     77          1           0       -0.582849   -4.999306   -2.090151
     78          1           0        0.013105   -4.610596   -0.571722
     79          1           0        0.397991    4.478474    1.184311
     80          1           0        0.524955    4.608244   -0.529298
     81          1           0        0.802322    3.029846    0.187315
     82          1           0       -1.156209    7.858607    0.266136
     83          1           0       -0.323121    6.651474   -0.513453
     84          1           0       -0.442098    6.525770    1.194441
     85          1           0       -7.504213    4.508646   -1.288145
     86          1           0       -8.989212    2.934113    0.855407
     87          1           0       -8.546473    5.117663    1.427447
     88          1           0       -7.652375    6.317007    0.311560
     89          1           0       -6.846404    5.283752    1.443662
     90          1           0       -9.267296    2.212803   -1.897955
     91          1           0       -9.562488    3.902761   -1.674989
     92          1           0      -11.256479    2.589104    0.401968
     93          1           0      -11.399659    1.739924   -1.168719
     94          1           0      -11.528309    3.466455   -1.087828
     95          1           0       -9.687202   -2.429972    0.945836
     96          1           0       -9.231972   -3.668654   -0.300450
     97          1           0       -9.627924   -2.074057   -0.808918
     98          1           0       -3.980771   -4.526163   -0.368229
     99          1           0       -3.100777   -6.582788    3.340056
    100          1           0       -1.968015   -5.169813    3.398321
    101          1           0       -1.514539   -6.637363    2.594938
    102          1           0        3.518643   -4.786345   -2.967109
    103          1           0        4.188510   -4.958425   -1.324412
    104          1           0        3.357631   -2.426324   -2.681124
    105          1           0        7.227521   -3.270949   -1.334674
    106          1           0        5.893441   -4.167419   -0.569917
    107          1           0        6.503192   -2.707600    0.165430
    108          1           0        6.173021   -0.556180   -1.034585
    109          1           0        4.728548   -0.366820   -1.962730
    110          1           0        5.740767   -0.019447   -3.691428
    111          1           0        6.218999   -1.748252   -3.742041
    112          1           0        8.206502   -1.183463   -3.977077
    113          1           0        8.116292   -0.646243   -2.182373
    114          1           0        7.326656    1.567850   -3.358448
    115          1           0        8.298027    0.093845   -5.791339
    116          1           0        8.183768    1.887068   -5.651641
    117          1           0        6.692925    0.781111   -5.590036
    118          1           0        9.897833    1.988555   -4.263187
    119          1           0       10.142280    0.575549   -3.237500
    120          1           0        8.414785    2.501490   -1.960584
    121          1           0        9.528650    3.503128   -2.774221
    122          1           0       10.765623    3.350171   -1.039050
    123          1           0       11.308991    1.682582   -1.428008
    124          1           0        8.906347    2.481320    0.397255
    125          1           0        9.668322    0.046535   -0.786940
    126          1           0        8.386847    0.147650    0.466184
    127          1           0       10.082777   -0.187567    0.817565
    128          1           0       11.135475    3.155484    1.198636
    129          1           0       11.515166    1.460940    1.139661
    130          1           0        9.035253    1.611037    2.538805
    131          1           0       10.064834    2.816782    3.430805
    132          1           0       11.788752    0.681701    3.173401
    133          1           0       10.406402   -0.288625    3.030136
    134          1           0       10.344790    1.855037    5.168130
    135          1           0       11.935609    1.128306    6.354348
    136          1           0       12.409538   -0.031132    5.211912
    137          1           0       11.330371   -0.503570    6.583647
    138          1           0        8.882877   -0.587056    4.677290
    139          1           0        8.384168    0.918755    5.744034
    140          1           0        9.280599   -0.371875    6.375064
 ---------------------------------------------------------------------

 SCF Done:  E(RPBE1PBE) =  -3005.33601483     A.U. after   16 cycles

 Excitation energies and oscillator strengths:

 Excited State   1:      Singlet-A      1.8025 eV  687.85 nm  f=0.3774  <S**2>=0.000
     245 -> 248       -0.16508
     246 -> 247        0.69545
     246 <- 247       -0.11753
 This state for optimization and/or second-order correction.
 Total Energy, E(TD-HF/TD-DFT) =  -3005.26977426
 Copying the excited state density for this state as the 1-particle RhoCI density.

 Excited State   2:      Singlet-A      2.1640 eV  572.95 nm  f=0.1272  <S**2>=0.000
     245 -> 247        0.66033
     246 -> 248        0.23049

 Excited State   3:      Singlet-A      2.8651 eV  432.74 nm  f=0.0001  <S**2>=0.000
     242 -> 247        0.67042
     242 -> 249        0.10177
     243 -> 247        0.13691

 Excited State   4:      Singlet-A      2.8862 eV  429.58 nm  f=0.0099  <S**2>=0.000
     242 -> 247       -0.13323
     243 -> 247        0.67055

 Excited State   5:      Singlet-A      2.9804 eV  416.00 nm  f=0.0004  <S**2>=0.000
     240 -> 247        0.66038
     240 -> 249       -0.18199

 The electronic state is 1-A.
 Alpha  occ. eigenvalues --  -46.91548 -19.27002 -19.25539 -19.20633 -19.20369
 Alpha  occ. eigenvalues --  -19.19008 -19.17763 -14.41270 -14.41059 -14.39543
 Alpha  occ. eigenvalues --  -14.39190 -10.37082 -10.36790 -10.31974 -10.30563
 Alpha  occ. eigenvalues --  -10.29718 -10.29595 -10.28719 -10.28627 -10.28451
 Alpha  occ. eigenvalues --  -10.28390 -10.28042 -10.27906 -10.27524 -10.27338
 Alpha  occ. eigenvalues --  -10.27244 -10.26236 -10.26205 -10.25915 -10.25812
 Alpha  occ. eigenvalues --  -10.25658 -10.25546 -10.25496 -10.25389 -10.25089
 Alpha  occ. eigenvalues --  -10.24749 -10.24620 -10.24325 -10.24165 -10.24039
 Alpha  occ. eigenvalues --  -10.23942 -10.23744 -10.23731 -10.23726 -10.23619
 Alpha  occ. eigenvalues --  -10.23558 -10.23492 -10.23479 -10.23300 -10.23287
 Alpha  occ. eigenvalues --  -10.23100 -10.23067 -10.22986 -10.22928 -10.22913
 Alpha  occ. eigenvalues --  -10.22840 -10.22412 -10.22397 -10.22394 -10.22393
 Alpha  occ. eigenvalues --  -10.22347 -10.22253 -10.22140 -10.21808 -10.21798
 Alpha  occ. eigenvalues --  -10.21214  -3.13737  -1.86581  -1.86092  -1.85997
 Alpha  occ. eigenvalues --   -1.11172  -1.10450  -1.06011  -1.03702  -1.03358
 Alpha  occ. eigenvalues --   -1.01896  -0.98878  -0.98038  -0.97559  -0.94844
 Alpha  occ. eigenvalues --   -0.87461  -0.84860  -0.84089  -0.83767  -0.83475
 Alpha  occ. eigenvalues --   -0.83067  -0.82975  -0.82247  -0.81960  -0.81650
 Alpha  occ. eigenvalues --   -0.80343  -0.79547  -0.78946  -0.78169  -0.77865
 Alpha  occ. eigenvalues --   -0.76780  -0.75938  -0.75354  -0.75169  -0.74408
 Alpha  occ. eigenvalues --   -0.74236  -0.72960  -0.72793  -0.71555  -0.70771
 Alpha  occ. eigenvalues --   -0.70365  -0.69737  -0.69587  -0.69521  -0.68358
 Alpha  occ. eigenvalues --   -0.67665  -0.66811  -0.66280  -0.65225  -0.63721
 Alpha  occ. eigenvalues --   -0.63355  -0.62814  -0.62667  -0.61038  -0.60563
 Alpha  occ. eigenvalues --   -0.60056  -0.59403  -0.59157  -0.59112  -0.58298
 Alpha  occ. eigenvalues --   -0.57868  -0.57204  -0.56687  -0.56521  -0.54975
 Alpha  occ. eigenvalues --   -0.54901  -0.54404  -0.53988  -0.53135  -0.52831
 Alpha  occ. eigenvalues --   -0.52542  -0.51867  -0.50612  -0.50381  -0.50271
 Alpha  occ. eigenvalues --   -0.49650  -0.49389  -0.49125  -0.49072  -0.48775
 Alpha  occ. eigenvalues --   -0.48458  -0.48429  -0.48032  -0.47794  -0.47638
 Alpha  occ. eigenvalues --   -0.47556  -0.47307  -0.46953  -0.46598  -0.46539
 Alpha  occ. eigenvalues --   -0.45935  -0.45883  -0.45767  -0.45592  -0.45016
 Alpha  occ. eigenvalues --   -0.44951  -0.44769  -0.44658  -0.44205  -0.44118
 Alpha  occ. eigenvalues --   -0.44034  -0.43842  -0.43835  -0.43601  -0.43483
 Alpha  occ. eigenvalues --   -0.43439  -0.43225  -0.43035  -0.42623  -0.42314
 Alpha  occ. eigenvalues --   -0.42199  -0.42186  -0.41434  -0.41316  -0.41291
 Alpha  occ. eigenvalues --   -0.41115  -0.40770  -0.40642  -0.40546  -0.40476
 Alpha  occ. eigenvalues --   -0.40410  -0.40365  -0.40181  -0.39928  -0.39833
 Alpha  occ. eigenvalues --   -0.39758  -0.39636  -0.39296  -0.38839  -0.38692
 Alpha  occ. eigenvalues --   -0.38465  -0.38304  -0.38126  -0.38041  -0.37927
 Alpha  occ. eigenvalues --   -0.37734  -0.37604  -0.37424  -0.37368  -0.37096
 Alpha  occ. eigenvalues --   -0.36943  -0.36795  -0.36517  -0.36372  -0.36342
 Alpha  occ. eigenvalues --   -0.35956  -0.35700  -0.35582  -0.34957  -0.34741
 Alpha  occ. eigenvalues --   -0.34464  -0.34199  -0.33994  -0.33889  -0.33832
 Alpha  occ. eigenvalues --   -0.33685  -0.32955  -0.32795  -0.32711  -0.32225
 Alpha  occ. eigenvalues --   -0.32121  -0.31865  -0.31808  -0.31753  -0.31703
 Alpha  occ. eigenvalues --   -0.31249  -0.31034  -0.29686  -0.29585  -0.29118
 Alpha  occ. eigenvalues --   -0.28954  -0.28637  -0.28394  -0.26657  -0.25953
 Alpha  occ. eigenvalues --   -0.25654  -0.24959  -0.24839  -0.24827  -0.20853
 Alpha  occ. eigenvalues --   -0.18746
 Alpha virt. eigenvalues --   -0.11450  -0.05092  -0.03952  -0.01953  -0.00410
 Alpha virt. eigenvalues --    0.00071   0.00147   0.00686   0.01253   0.03145
 Alpha virt. eigenvalues --    0.04189   0.04654   0.04980   0.05139   0.05827

 Mulliken charges:
               1
     1  Mg   0.990123
     2  C   -0.062180
     3  C   -0.079286
     4  C   -0.035897
     5  C   -0.062364
     6  N   -0.410275
     7  C    0.046131
     8  C   -0.119695
     9  C   -0.117582
    10  C    0.056002
    11  C    0.033977
    12  C    0.041427
    13  C    0.002452
    14  C    0.205525
    15  O   -0.263318
    16  O   -0.375421
    17  N   -0.542526
    18  C    0.205405
    19  C   -0.172476
    20  C   -0.050663
    21  C    0.195387
    22  C    0.066141
    23  C    0.000291
    24  O   -0.221542
    25  C   -0.031456
    26  N   -0.360859
    27  C    0.009209
    28  C   -0.093376
    29  C   -0.099773
    30  C    0.095885
    31  C    0.029698
    32  C   -0.043616
    33  C   -0.071829
    34  N   -0.487199
    35  C    0.127761
    36  C   -0.197639
    37  C   -0.035757
    38  C    0.170420
    39  C    0.055467
    40  C    0.129365
    41  O   -0.227491
    42  C   -0.042028
    43  C    0.308499
    44  O   -0.271262
    45  O   -0.369876
    46  C    0.110524
    47  C    0.246964
    48  C   -0.154156
    49  C   -0.208943
    50  C    0.034659
    51  C    0.002702
    52  C   -0.076806
    53  C    0.019810
    54  C   -0.269090
    55  C    0.003866
    56  C    0.015050
    57  C   -0.009303
    58  C   -0.007544
    59  C   -0.264423
    60  C   -0.002885
    61  C   -0.012764
    62  C   -0.028662
    63  C   -0.057004
    64  C   -0.260803
    65  C    0.001661
    66  C    0.016101
    67  H   -0.005292
    68  H    0.028077
    69  H    0.011819
    70  H    0.046403
    71  H    0.047934
    72  H    0.032163
    73  H    0.057158
    74  H    0.044350
    75  H    0.057373
    76  H    0.047464
    77  H    0.074118
    78  H    0.040949
    79  H    0.060737
    80  H    0.044250
    81  H    0.043361
    82  H    0.043679
    83  H    0.037311
    84  H    0.050176
    85  H    0.056648
    86  H    0.050200
    87  H    0.041101
    88  H    0.057586
    89  H    0.045827
    90  H    0.040344
    91  H    0.039583
    92  H    0.052334
    93  H    0.045352
    94  H    0.037882
    95  H    0.069492
    96  H    0.063298
    97  H    0.044182
    98  H    0.070105
    99  H    0.073490
   100  H    0.069898
   101  H    0.059898
   102  H    0.058216
   103  H    0.036211
   104  H    0.045714
   105  H    0.057779
   106  H    0.021542
   107  H    0.047739
   108  H    0.023189
   109  H    0.027266
   110  H    0.035799
   111  H    0.030167
   112  H    0.026071
   113  H    0.035788
   114  H    0.031863
   115  H    0.031967
   116  H    0.044579
   117  H    0.049810
   118  H    0.013338
   119  H    0.034737
   120  H    0.023170
   121  H    0.029724
   122  H    0.021585
   123  H    0.036156
   124  H    0.027873
   125  H    0.032498
   126  H    0.048425
   127  H    0.021733
   128  H    0.016752
   129  H    0.016743
   130  H    0.036458
   131  H    0.045944
   132  H    0.036502
   133  H    0.036378
   134  H    0.033567
   135  H    0.024749
   136  H    0.024622
   137  H    0.037764
   138  H    0.036909
   139  H    0.038361
   140  H    0.020333
 Sum of Mulliken charges =  -0.00000

 Dipole moment (field-independent basis, Debye):
    X=              5.0219    Y=              1.0621    Z=             -0.1075  Tot=              5.1342
 Quadrupole moment (field-independent basis, Debye-Ang):
   XX=           -375.3546   YY=           -417.2923   ZZ=           -413.5256
   XY=            -28.2362   XZ=             14.2264   YZ=             -1.7933

 Normal termination of Gaussian 16 at Wed May  4 14:53:25 2022.
