 Gaussian 16, Revision A.03,
 Gaussian 16:  ES64L-G16RevA.03 25-Dec-2016

 --------------------------------
 #p wB97XD/Def2SVP td=(nstates=5)
 --------------------------------

 -----------------------------------------------------
 step_1851_chromophore_27 TDDFT with wB97XD functional
 -----------------------------------------------------
 Symbolic Z-matrix:
 Charge =  0 Multiplicity = 1

                         Standard orientation:
 ---------------------------------------------------------------------
 Center     Atomic      Atomic             Coordinates (Angstroms)
 Number     Number       Type             X           Y           Z
 ---------------------------------------------------------------------
      1         12           0       -4.398847    0.886418    0.059325
      2          6           0       -4.123942   -2.595841    0.260746
      3          6           0       -1.162014    1.126223    0.361718
      4          6           0       -4.943304    4.219996   -0.005904
      5          6           0       -8.067598    0.459697   -0.218740
      6          7           0       -2.850611   -0.610341    0.388933
      7          6           0       -2.907611   -1.935993    0.231944
      8          6           0       -1.542618   -2.537486    0.085556
      9          6           0       -0.600285   -1.353885    0.541389
     10          6           0       -1.494470   -0.177316    0.444898
     11          6           0       -0.072176   -1.614720    1.962381
     12          6           0       -1.223116   -2.936885   -1.381300
     13          6           0       -0.172354   -4.150887   -1.542619
     14          6           0        1.128220   -3.914201   -2.213294
     15          8           0        1.224652   -3.490319   -3.347090
     16          8           0        2.199926   -4.279054   -1.415500
     17          7           0       -3.181012    2.408795    0.197608
     18          6           0       -1.874807    2.335609    0.291174
     19          6           0       -1.249491    3.644265    0.150790
     20          6           0       -2.380702    4.578982    0.151472
     21          6           0       -3.597935    3.746055    0.128848
     22          6           0        0.197330    3.933818    0.261513
     23          6           0       -2.315241    5.999803    0.097726
     24          8           0       -3.278572    6.686679   -0.031022
     25          6           0       -1.025629    6.776748    0.309748
     26          7           0       -6.260220    2.165431   -0.018607
     27          6           0       -6.155496    3.510701   -0.073501
     28          6           0       -7.492444    4.193384   -0.244122
     29          6           0       -8.464227    3.000687   -0.098128
     30          6           0       -7.582773    1.754101   -0.096529
     31          6           0       -7.702842    5.329796    0.770302
     32          6           0       -9.564194    2.947883   -1.149420
     33          6           0      -11.000513    2.615818   -0.657219
     34          7           0       -5.868016   -0.651444    0.104489
     35          6           0       -7.289280   -0.705406    0.033140
     36          6           0       -7.728185   -2.145842    0.125089
     37          6           0       -6.516540   -2.954115    0.312766
     38          6           0       -5.446968   -1.983841    0.245984
     39          6           0       -9.165316   -2.625704    0.009576
     40          6           0       -5.924943   -4.280751    0.466629
     41          8           0       -6.491558   -5.371581    0.599059
     42          6           0       -4.457115   -4.036669    0.481805
     43          6           0       -3.959753   -4.480767    1.819565
     44          8           0       -4.221605   -3.941546    2.918648
     45          8           0       -3.113010   -5.530468    1.559990
     46          6           0       -2.366275   -5.987324    2.797846
     47          6           0        3.543184   -4.358301   -1.965909
     48          6           0        4.039834   -2.947481   -2.010125
     49          6           0        5.253861   -2.419443   -1.552067
     50          6           0        6.285383   -3.176190   -0.794932
     51          6           0        5.618279   -0.989214   -1.866649
     52          6           0        6.355762   -0.794270   -3.233918
     53          6           0        7.859019   -0.471962   -3.227479
     54          6           0        8.062036    0.932308   -3.853096
     55          6           0        7.747883    0.931902   -5.361253
     56          6           0        9.491245    1.430092   -3.419751
     57          6           0        9.435424    2.505209   -2.345059
     58          6           0       10.450321    2.327387   -1.244113
     59          6           0        9.777718    1.873114    0.156367
     60          6           0        9.410825    0.414634    0.206297
     61          6           0       10.711631    2.163908    1.359752
     62          6           0       10.045184    1.948637    2.772293
     63          6           0       10.734488    0.661820    3.450573
     64          6           0       10.421040    0.782987    4.984978
     65          6           0       11.557465    0.250691    5.829509
     66          6           0        9.104175    0.159737    5.440298
     67          1           0       -0.086114    1.205644    0.528932
     68          1           0       -5.130799    5.295279   -0.011958
     69          1           0       -9.137828    0.248741   -0.269869
     70          1           0       -1.400154   -3.402388    0.733842
     71          1           0        0.239661   -1.182435   -0.132350
     72          1           0       -0.404732   -2.575923    2.354910
     73          1           0       -0.339855   -0.835191    2.675242
     74          1           0        1.004739   -1.774895    1.903706
     75          1           0       -0.744407   -2.106801   -1.900276
     76          1           0       -2.175610   -3.128315   -1.874413
     77          1           0       -0.582849   -4.999306   -2.090151
     78          1           0        0.013105   -4.610596   -0.571722
     79          1           0        0.397991    4.478474    1.184311
     80          1           0        0.524955    4.608244   -0.529298
     81          1           0        0.802322    3.029846    0.187315
     82          1           0       -1.156209    7.858607    0.266136
     83          1           0       -0.323121    6.651474   -0.513453
     84          1           0       -0.442098    6.525770    1.194441
     85          1           0       -7.504213    4.508646   -1.288145
     86          1           0       -8.989212    2.934113    0.855407
     87          1           0       -8.546473    5.117663    1.427447
     88          1           0       -7.652375    6.317007    0.311560
     89          1           0       -6.846404    5.283752    1.443662
     90          1           0       -9.267296    2.212803   -1.897955
     91          1           0       -9.562488    3.902761   -1.674989
     92          1           0      -11.256479    2.589104    0.401968
     93          1           0      -11.399659    1.739924   -1.168719
     94          1           0      -11.528309    3.466455   -1.087828
     95          1           0       -9.687202   -2.429972    0.945836
     96          1           0       -9.231972   -3.668654   -0.300450
     97          1           0       -9.627924   -2.074057   -0.808918
     98          1           0       -3.980771   -4.526163   -0.368229
     99          1           0       -3.100777   -6.582788    3.340056
    100          1           0       -1.968015   -5.169813    3.398321
    101          1           0       -1.514539   -6.637363    2.594938
    102          1           0        3.518643   -4.786345   -2.967109
    103          1           0        4.188510   -4.958425   -1.324412
    104          1           0        3.357631   -2.426324   -2.681124
    105          1           0        7.227521   -3.270949   -1.334674
    106          1           0        5.893441   -4.167419   -0.569917
    107          1           0        6.503192   -2.707600    0.165430
    108          1           0        6.173021   -0.556180   -1.034585
    109          1           0        4.728548   -0.366820   -1.962730
    110          1           0        5.740767   -0.019447   -3.691428
    111          1           0        6.218999   -1.748252   -3.742041
    112          1           0        8.206502   -1.183463   -3.977077
    113          1           0        8.116292   -0.646243   -2.182373
    114          1           0        7.326656    1.567850   -3.358448
    115          1           0        8.298027    0.093845   -5.791339
    116          1           0        8.183768    1.887068   -5.651641
    117          1           0        6.692925    0.781111   -5.590036
    118          1           0        9.897833    1.988555   -4.263187
    119          1           0       10.142280    0.575549   -3.237500
    120          1           0        8.414785    2.501490   -1.960584
    121          1           0        9.528650    3.503128   -2.774221
    122          1           0       10.765623    3.350171   -1.039050
    123          1           0       11.308991    1.682582   -1.428008
    124          1           0        8.906347    2.481320    0.397255
    125          1           0        9.668322    0.046535   -0.786940
    126          1           0        8.386847    0.147650    0.466184
    127          1           0       10.082777   -0.187567    0.817565
    128          1           0       11.135475    3.155484    1.198636
    129          1           0       11.515166    1.460940    1.139661
    130          1           0        9.035253    1.611037    2.538805
    131          1           0       10.064834    2.816782    3.430805
    132          1           0       11.788752    0.681701    3.173401
    133          1           0       10.406402   -0.288625    3.030136
    134          1           0       10.344790    1.855037    5.168130
    135          1           0       11.935609    1.128306    6.354348
    136          1           0       12.409538   -0.031132    5.211912
    137          1           0       11.330371   -0.503570    6.583647
    138          1           0        8.882877   -0.587056    4.677290
    139          1           0        8.384168    0.918755    5.744034
    140          1           0        9.280599   -0.371875    6.375064
 ---------------------------------------------------------------------

 SCF Done:  E(RwB97XD) =  -3007.84273763     A.U. after   20 cycles

 Excitation energies and oscillator strengths:

 Excited State   1:      Singlet-A      1.5786 eV  785.38 nm  f=0.3906  <S**2>=0.000
     245 -> 248       -0.17832
     246 -> 247        0.68492
     245 <- 248       -0.11820
 This state for optimization and/or second-order correction.
 Total Energy, E(TD-HF/TD-DFT) =  -3007.78472349
 Copying the excited state density for this state as the 1-particle RhoCI density.

 Excited State   2:      Singlet-A      2.1063 eV  588.65 nm  f=0.1321  <S**2>=0.000
     245 -> 247        0.64853
     246 -> 248        0.26233

 Excited State   3:      Singlet-A      3.1793 eV  389.98 nm  f=0.0035  <S**2>=0.000
     243 -> 247        0.15761
     244 -> 247        0.65360
     246 -> 248       -0.11147

 Excited State   4:      Singlet-A      3.4648 eV  357.84 nm  f=0.0134  <S**2>=0.000
     239 -> 247        0.46794
     239 -> 249       -0.29811
     239 -> 250       -0.13094
     240 -> 247        0.31864
     240 -> 249       -0.18128
     246 -> 248        0.10215

 Excited State   5:      Singlet-A      3.5334 eV  350.89 nm  f=0.2566  <S**2>=0.000
     242 -> 247        0.45564
     242 -> 249        0.14324
     242 -> 250       -0.12998
     245 -> 247       -0.15831
     246 -> 248        0.42257

 The electronic state is 1-A.
 Alpha  occ. eigenvalues --  -46.94472 -19.31632 -19.30075 -19.25407 -19.25060
 Alpha  occ. eigenvalues --  -19.24015 -19.22446 -14.46299 -14.46183 -14.44447
 Alpha  occ. eigenvalues --  -14.44180 -10.43972 -10.43591 -10.39017 -10.37296
 Alpha  occ. eigenvalues --  -10.36306 -10.36087 -10.35148 -10.34838 -10.34798
 Alpha  occ. eigenvalues --  -10.34797 -10.34257 -10.34066 -10.33938 -10.33820
 Alpha  occ. eigenvalues --  -10.33690 -10.32512 -10.32475 -10.32285 -10.32025
 Alpha  occ. eigenvalues --  -10.31997 -10.31960 -10.31888 -10.31778 -10.31271
 Alpha  occ. eigenvalues --  -10.31259 -10.30828 -10.30720 -10.30397 -10.30373
 Alpha  occ. eigenvalues --  -10.30254 -10.30220 -10.30209 -10.30181 -10.30057
 Alpha  occ. eigenvalues --  -10.29905 -10.29840 -10.29744 -10.29644 -10.29548
 Alpha  occ. eigenvalues --  -10.29422 -10.29419 -10.29382 -10.29254 -10.29191
 Alpha  occ. eigenvalues --  -10.29188 -10.28887 -10.28820 -10.28765 -10.28749
 Alpha  occ. eigenvalues --  -10.28702 -10.28603 -10.28474 -10.28262 -10.28216
 Alpha  occ. eigenvalues --  -10.27624  -3.20513  -1.94107  -1.93621  -1.93519
 Alpha  occ. eigenvalues --   -1.18548  -1.17935  -1.13348  -1.11368  -1.10696
 Alpha  occ. eigenvalues --   -1.09358  -1.06196  -1.05389  -1.04924  -1.02363
 Alpha  occ. eigenvalues --   -0.95167  -0.92526  -0.91749  -0.91389  -0.91043
 Alpha  occ. eigenvalues --   -0.90692  -0.90549  -0.89824  -0.89606  -0.89220
 Alpha  occ. eigenvalues --   -0.87966  -0.87301  -0.86605  -0.85800  -0.85511
 Alpha  occ. eigenvalues --   -0.84409  -0.83607  -0.83007  -0.82818  -0.82056
 Alpha  occ. eigenvalues --   -0.81891  -0.80565  -0.80467  -0.79171  -0.78440
 Alpha  occ. eigenvalues --   -0.78037  -0.77430  -0.77272  -0.77056  -0.76013
 Alpha  occ. eigenvalues --   -0.75263  -0.74405  -0.73819  -0.72815  -0.71260
 Alpha  occ. eigenvalues --   -0.70916  -0.70452  -0.70159  -0.68659  -0.68060
 Alpha  occ. eigenvalues --   -0.67587  -0.66823  -0.66764  -0.66589  -0.65957
 Alpha  occ. eigenvalues --   -0.65433  -0.64769  -0.64180  -0.64137  -0.62515
 Alpha  occ. eigenvalues --   -0.62287  -0.61837  -0.61441  -0.60738  -0.60195
 Alpha  occ. eigenvalues --   -0.60050  -0.59253  -0.58015  -0.57764  -0.57711
 Alpha  occ. eigenvalues --   -0.57048  -0.56810  -0.56595  -0.56488  -0.56166
 Alpha  occ. eigenvalues --   -0.55862  -0.55816  -0.55482  -0.55158  -0.55029
 Alpha  occ. eigenvalues --   -0.54885  -0.54689  -0.54242  -0.54077  -0.53892
 Alpha  occ. eigenvalues --   -0.53264  -0.53212  -0.53080  -0.52997  -0.52354
 Alpha  occ. eigenvalues --   -0.52216  -0.52106  -0.51964  -0.51646  -0.51467
 Alpha  occ. eigenvalues --   -0.51364  -0.51167  -0.51151  -0.50867  -0.50803
 Alpha  occ. eigenvalues --   -0.50758  -0.50499  -0.50281  -0.49878  -0.49545
 Alpha  occ. eigenvalues --   -0.49454  -0.49408  -0.48704  -0.48555  -0.48533
 Alpha  occ. eigenvalues --   -0.48325  -0.47958  -0.47941  -0.47731  -0.47711
 Alpha  occ. eigenvalues --   -0.47606  -0.47571  -0.47336  -0.47142  -0.47034
 Alpha  occ. eigenvalues --   -0.46981  -0.46827  -0.46491  -0.46106  -0.45754
 Alpha  occ. eigenvalues --   -0.45601  -0.45417  -0.45217  -0.45127  -0.45096
 Alpha  occ. eigenvalues --   -0.44819  -0.44732  -0.44568  -0.44483  -0.44227
 Alpha  occ. eigenvalues --   -0.44038  -0.44006  -0.43627  -0.43425  -0.43406
 Alpha  occ. eigenvalues --   -0.42992  -0.42760  -0.42597  -0.41935  -0.41835
 Alpha  occ. eigenvalues --   -0.41518  -0.41190  -0.41072  -0.40886  -0.40851
 Alpha  occ. eigenvalues --   -0.40574  -0.39997  -0.39851  -0.39610  -0.39339
 Alpha  occ. eigenvalues --   -0.39175  -0.38871  -0.38795  -0.38768  -0.38664
 Alpha  occ. eigenvalues --   -0.38238  -0.38025  -0.36801  -0.36621  -0.36220
 Alpha  occ. eigenvalues --   -0.35796  -0.35290  -0.35218  -0.33383  -0.33079
 Alpha  occ. eigenvalues --   -0.32117  -0.32014  -0.31468  -0.31462  -0.25822
 Alpha  occ. eigenvalues --   -0.22890
 Alpha virt. eigenvalues --   -0.07428   0.00388   0.02245   0.04554   0.06257
 Alpha virt. eigenvalues --    0.06379   0.06923   0.07025   0.07972   0.09387
 Alpha virt. eigenvalues --    0.10802   0.11339   0.11694   0.11955   0.12576

 Mulliken charges:
               1
     1  Mg   0.978718
     2  C   -0.065341
     3  C   -0.092307
     4  C   -0.053583
     5  C   -0.078128
     6  N   -0.380003
     7  C    0.018920
     8  C   -0.086639
     9  C   -0.087728
    10  C    0.038585
    11  C    0.040987
    12  C    0.051145
    13  C    0.015500
    14  C    0.194408
    15  O   -0.259887
    16  O   -0.375493
    17  N   -0.505864
    18  C    0.194490
    19  C   -0.168060
    20  C   -0.039915
    21  C    0.183057
    22  C    0.081755
    23  C   -0.003671
    24  O   -0.217344
    25  C   -0.018641
    26  N   -0.325842
    27  C   -0.003701
    28  C   -0.066462
    29  C   -0.074395
    30  C    0.084420
    31  C    0.039750
    32  C   -0.027074
    33  C   -0.058501
    34  N   -0.458600
    35  C    0.121889
    36  C   -0.192230
    37  C   -0.038027
    38  C    0.155493
    39  C    0.065691
    40  C    0.117696
    41  O   -0.215778
    42  C   -0.001827
    43  C    0.285590
    44  O   -0.266465
    45  O   -0.369608
    46  C    0.126471
    47  C    0.263794
    48  C   -0.165837
    49  C   -0.190163
    50  C    0.048278
    51  C    0.022699
    52  C   -0.064448
    53  C    0.045770
    54  C   -0.230216
    55  C    0.016254
    56  C    0.024914
    57  C    0.007580
    58  C    0.010109
    59  C   -0.235204
    60  C    0.012219
    61  C    0.007483
    62  C   -0.009341
    63  C   -0.043984
    64  C   -0.227413
    65  C    0.014007
    66  C    0.027383
    67  H   -0.014856
    68  H    0.022620
    69  H    0.004209
    70  H    0.025196
    71  H    0.038321
    72  H    0.025406
    73  H    0.052488
    74  H    0.039313
    75  H    0.049597
    76  H    0.039629
    77  H    0.069224
    78  H    0.035316
    79  H    0.053794
    80  H    0.036724
    81  H    0.039060
    82  H    0.042039
    83  H    0.030704
    84  H    0.044336
    85  H    0.046427
    86  H    0.036355
    87  H    0.035801
    88  H    0.053435
    89  H    0.037952
    90  H    0.030741
    91  H    0.031427
    92  H    0.047601
    93  H    0.039747
    94  H    0.032205
    95  H    0.065941
    96  H    0.060886
    97  H    0.038878
    98  H    0.063321
    99  H    0.069715
   100  H    0.066011
   101  H    0.057104
   102  H    0.054258
   103  H    0.031075
   104  H    0.040530
   105  H    0.052303
   106  H    0.014303
   107  H    0.042346
   108  H    0.011318
   109  H    0.021140
   110  H    0.026032
   111  H    0.020278
   112  H    0.015615
   113  H    0.013248
   114  H    0.015353
   115  H    0.024731
   116  H    0.037615
   117  H    0.045004
   118  H    0.004649
   119  H    0.026522
   120  H    0.010691
   121  H    0.024037
   122  H    0.012745
   123  H    0.028496
   124  H    0.014963
   125  H    0.020133
   126  H    0.043088
   127  H    0.013055
   128  H    0.008997
   129  H    0.002264
   130  H    0.023497
   131  H    0.039581
   132  H    0.026119
   133  H    0.025673
   134  H    0.019950
   135  H    0.018711
   136  H    0.018222
   137  H    0.032108
   138  H    0.030138
   139  H    0.033920
   140  H    0.013295
 Sum of Mulliken charges =  -0.00000

 Dipole moment (field-independent basis, Debye):
    X=              4.9092    Y=              0.7496    Z=             -0.0791  Tot=              4.9668
 Quadrupole moment (field-independent basis, Debye-Ang):
   XX=           -374.2377   YY=           -416.2524   ZZ=           -413.1825
   XY=            -26.2917   XZ=             14.3552   YZ=             -1.9658

 Normal termination of Gaussian 16 at Wed May  4 15:23:42 2022.
