 Gaussian 16, Revision A.03,
 Gaussian 16:  ES64L-G16RevA.03 25-Dec-2016

 --------------------
 #p ZINDO=(nstates=5)
 --------------------

 ------------------------------
 step_1851_chromophore_27 ZINDO
 ------------------------------
 Symbolic Z-matrix:
 Charge =  0 Multiplicity = 1

                         Standard orientation:
 ---------------------------------------------------------------------
 Center     Atomic      Atomic             Coordinates (Angstroms)
 Number     Number       Type             X           Y           Z
 ---------------------------------------------------------------------
      1         12           0       -4.398847    0.886418    0.059325
      2          6           0       -4.123942   -2.595841    0.260746
      3          6           0       -1.162014    1.126223    0.361718
      4          6           0       -4.943304    4.219996   -0.005904
      5          6           0       -8.067598    0.459697   -0.218740
      6          7           0       -2.850611   -0.610341    0.388933
      7          6           0       -2.907611   -1.935993    0.231944
      8          6           0       -1.542618   -2.537486    0.085556
      9          6           0       -0.600285   -1.353885    0.541389
     10          6           0       -1.494470   -0.177316    0.444898
     11          6           0       -0.072176   -1.614720    1.962381
     12          6           0       -1.223116   -2.936885   -1.381300
     13          6           0       -0.172354   -4.150887   -1.542619
     14          6           0        1.128220   -3.914201   -2.213294
     15          8           0        1.224652   -3.490319   -3.347090
     16          8           0        2.199926   -4.279054   -1.415500
     17          7           0       -3.181012    2.408795    0.197608
     18          6           0       -1.874807    2.335609    0.291174
     19          6           0       -1.249491    3.644265    0.150790
     20          6           0       -2.380702    4.578982    0.151472
     21          6           0       -3.597935    3.746055    0.128848
     22          6           0        0.197330    3.933818    0.261513
     23          6           0       -2.315241    5.999803    0.097726
     24          8           0       -3.278572    6.686679   -0.031022
     25          6           0       -1.025629    6.776748    0.309748
     26          7           0       -6.260220    2.165431   -0.018607
     27          6           0       -6.155496    3.510701   -0.073501
     28          6           0       -7.492444    4.193384   -0.244122
     29          6           0       -8.464227    3.000687   -0.098128
     30          6           0       -7.582773    1.754101   -0.096529
     31          6           0       -7.702842    5.329796    0.770302
     32          6           0       -9.564194    2.947883   -1.149420
     33          6           0      -11.000513    2.615818   -0.657219
     34          7           0       -5.868016   -0.651444    0.104489
     35          6           0       -7.289280   -0.705406    0.033140
     36          6           0       -7.728185   -2.145842    0.125089
     37          6           0       -6.516540   -2.954115    0.312766
     38          6           0       -5.446968   -1.983841    0.245984
     39          6           0       -9.165316   -2.625704    0.009576
     40          6           0       -5.924943   -4.280751    0.466629
     41          8           0       -6.491558   -5.371581    0.599059
     42          6           0       -4.457115   -4.036669    0.481805
     43          6           0       -3.959753   -4.480767    1.819565
     44          8           0       -4.221605   -3.941546    2.918648
     45          8           0       -3.113010   -5.530468    1.559990
     46          6           0       -2.366275   -5.987324    2.797846
     47          6           0        3.543184   -4.358301   -1.965909
     48          6           0        4.039834   -2.947481   -2.010125
     49          6           0        5.253861   -2.419443   -1.552067
     50          6           0        6.285383   -3.176190   -0.794932
     51          6           0        5.618279   -0.989214   -1.866649
     52          6           0        6.355762   -0.794270   -3.233918
     53          6           0        7.859019   -0.471962   -3.227479
     54          6           0        8.062036    0.932308   -3.853096
     55          6           0        7.747883    0.931902   -5.361253
     56          6           0        9.491245    1.430092   -3.419751
     57          6           0        9.435424    2.505209   -2.345059
     58          6           0       10.450321    2.327387   -1.244113
     59          6           0        9.777718    1.873114    0.156367
     60          6           0        9.410825    0.414634    0.206297
     61          6           0       10.711631    2.163908    1.359752
     62          6           0       10.045184    1.948637    2.772293
     63          6           0       10.734488    0.661820    3.450573
     64          6           0       10.421040    0.782987    4.984978
     65          6           0       11.557465    0.250691    5.829509
     66          6           0        9.104175    0.159737    5.440298
     67          1           0       -0.086114    1.205644    0.528932
     68          1           0       -5.130799    5.295279   -0.011958
     69          1           0       -9.137828    0.248741   -0.269869
     70          1           0       -1.400154   -3.402388    0.733842
     71          1           0        0.239661   -1.182435   -0.132350
     72          1           0       -0.404732   -2.575923    2.354910
     73          1           0       -0.339855   -0.835191    2.675242
     74          1           0        1.004739   -1.774895    1.903706
     75          1           0       -0.744407   -2.106801   -1.900276
     76          1           0       -2.175610   -3.128315   -1.874413
     77          1           0       -0.582849   -4.999306   -2.090151
     78          1           0        0.013105   -4.610596   -0.571722
     79          1           0        0.397991    4.478474    1.184311
     80          1           0        0.524955    4.608244   -0.529298
     81          1           0        0.802322    3.029846    0.187315
     82          1           0       -1.156209    7.858607    0.266136
     83          1           0       -0.323121    6.651474   -0.513453
     84          1           0       -0.442098    6.525770    1.194441
     85          1           0       -7.504213    4.508646   -1.288145
     86          1           0       -8.989212    2.934113    0.855407
     87          1           0       -8.546473    5.117663    1.427447
     88          1           0       -7.652375    6.317007    0.311560
     89          1           0       -6.846404    5.283752    1.443662
     90          1           0       -9.267296    2.212803   -1.897955
     91          1           0       -9.562488    3.902761   -1.674989
     92          1           0      -11.256479    2.589104    0.401968
     93          1           0      -11.399659    1.739924   -1.168719
     94          1           0      -11.528309    3.466455   -1.087828
     95          1           0       -9.687202   -2.429972    0.945836
     96          1           0       -9.231972   -3.668654   -0.300450
     97          1           0       -9.627924   -2.074057   -0.808918
     98          1           0       -3.980771   -4.526163   -0.368229
     99          1           0       -3.100777   -6.582788    3.340056
    100          1           0       -1.968015   -5.169813    3.398321
    101          1           0       -1.514539   -6.637363    2.594938
    102          1           0        3.518643   -4.786345   -2.967109
    103          1           0        4.188510   -4.958425   -1.324412
    104          1           0        3.357631   -2.426324   -2.681124
    105          1           0        7.227521   -3.270949   -1.334674
    106          1           0        5.893441   -4.167419   -0.569917
    107          1           0        6.503192   -2.707600    0.165430
    108          1           0        6.173021   -0.556180   -1.034585
    109          1           0        4.728548   -0.366820   -1.962730
    110          1           0        5.740767   -0.019447   -3.691428
    111          1           0        6.218999   -1.748252   -3.742041
    112          1           0        8.206502   -1.183463   -3.977077
    113          1           0        8.116292   -0.646243   -2.182373
    114          1           0        7.326656    1.567850   -3.358448
    115          1           0        8.298027    0.093845   -5.791339
    116          1           0        8.183768    1.887068   -5.651641
    117          1           0        6.692925    0.781111   -5.590036
    118          1           0        9.897833    1.988555   -4.263187
    119          1           0       10.142280    0.575549   -3.237500
    120          1           0        8.414785    2.501490   -1.960584
    121          1           0        9.528650    3.503128   -2.774221
    122          1           0       10.765623    3.350171   -1.039050
    123          1           0       11.308991    1.682582   -1.428008
    124          1           0        8.906347    2.481320    0.397255
    125          1           0        9.668322    0.046535   -0.786940
    126          1           0        8.386847    0.147650    0.466184
    127          1           0       10.082777   -0.187567    0.817565
    128          1           0       11.135475    3.155484    1.198636
    129          1           0       11.515166    1.460940    1.139661
    130          1           0        9.035253    1.611037    2.538805
    131          1           0       10.064834    2.816782    3.430805
    132          1           0       11.788752    0.681701    3.173401
    133          1           0       10.406402   -0.288625    3.030136
    134          1           0       10.344790    1.855037    5.168130
    135          1           0       11.935609    1.128306    6.354348
    136          1           0       12.409538   -0.031132    5.211912
    137          1           0       11.330371   -0.503570    6.583647
    138          1           0        8.882877   -0.587056    4.677290
    139          1           0        8.384168    0.918755    5.744034
    140          1           0        9.280599   -0.371875    6.375064
 ---------------------------------------------------------------------

 SCF Done:  E(RZINDO/S) =  -474.321824142     A.U. after   19 cycles

 Excitation energies and oscillator strengths:

 Excited State   1:      Singlet-A      1.1961 eV 1036.57 nm  f=0.6436  <S**2>=0.000
     175 ->178         0.18575
     176 ->177         0.66415
 This state for optimization and/or second-order correction.
 Total Energy, E(CIS/TDA) =  -474.277868440
 Copying the excited state density for this state as the 1-particle RhoCI density.

 Excited State   2:      Singlet-A      1.9057 eV  650.61 nm  f=0.0869  <S**2>=0.000
     175 ->177         0.57584
     176 ->178        -0.37874

 Excited State   3:      Singlet-A      2.8486 eV  435.25 nm  f=0.0006  <S**2>=0.000
     170 ->177         0.33428
     170 ->178        -0.14693
     170 ->179         0.27266
     170 ->180         0.37849
     170 ->182        -0.15188
     170 ->186         0.15904
     170 ->188        -0.20499
     170 ->201        -0.14611

 Excited State   4:      Singlet-A      2.9491 eV  420.41 nm  f=0.6730  <S**2>=0.000
     171 ->177        -0.19047
     172 ->177         0.14304
     175 ->177         0.29098
     176 ->178         0.51397
     176 ->179         0.22140

 Excited State   5:      Singlet-A      2.9825 eV  415.70 nm  f=0.0078  <S**2>=0.000
     168 ->177         0.33937
     168 ->178        -0.12477
     168 ->179        -0.37515
     168 ->180         0.11527
     168 ->182        -0.16225
     168 ->186        -0.17598
     176 ->179         0.31595

 The electronic state is 1-A.
 Alpha  occ. eigenvalues --   -1.83604  -1.80923  -1.79434  -1.73756  -1.72523
 Alpha  occ. eigenvalues --   -1.68558  -1.66713  -1.61944  -1.61876  -1.58121
 Alpha  occ. eigenvalues --   -1.55743  -1.52108  -1.49016  -1.48045  -1.47750
 Alpha  occ. eigenvalues --   -1.43643  -1.43280  -1.40531  -1.40298  -1.39449
 Alpha  occ. eigenvalues --   -1.36951  -1.33271  -1.32364  -1.31170  -1.27702
 Alpha  occ. eigenvalues --   -1.25625  -1.25454  -1.21866  -1.20161  -1.18661
 Alpha  occ. eigenvalues --   -1.16879  -1.16428  -1.15238  -1.15041  -1.14402
 Alpha  occ. eigenvalues --   -1.12451  -1.11331  -1.10214  -1.04639  -1.04189
 Alpha  occ. eigenvalues --   -1.02114  -1.01045  -0.99450  -0.98583  -0.96859
 Alpha  occ. eigenvalues --   -0.96114  -0.94951  -0.93966  -0.93406  -0.92810
 Alpha  occ. eigenvalues --   -0.91156  -0.90636  -0.88591  -0.87433  -0.86511
 Alpha  occ. eigenvalues --   -0.86003  -0.84403  -0.83226  -0.82381  -0.80760
 Alpha  occ. eigenvalues --   -0.80052  -0.79260  -0.77534  -0.77174  -0.76581
 Alpha  occ. eigenvalues --   -0.76427  -0.76014  -0.75547  -0.74965  -0.73799
 Alpha  occ. eigenvalues --   -0.73351  -0.72874  -0.72685  -0.71511  -0.71037
 Alpha  occ. eigenvalues --   -0.70472  -0.70289  -0.68754  -0.68302  -0.67796
 Alpha  occ. eigenvalues --   -0.67433  -0.67146  -0.66467  -0.65919  -0.65499
 Alpha  occ. eigenvalues --   -0.65328  -0.65306  -0.64254  -0.63942  -0.63750
 Alpha  occ. eigenvalues --   -0.63518  -0.62963  -0.62870  -0.62581  -0.62452
 Alpha  occ. eigenvalues --   -0.61291  -0.61009  -0.60335  -0.60221  -0.59969
 Alpha  occ. eigenvalues --   -0.59082  -0.58828  -0.58659  -0.58391  -0.57849
 Alpha  occ. eigenvalues --   -0.57469  -0.57382  -0.57016  -0.56645  -0.56456
 Alpha  occ. eigenvalues --   -0.56085  -0.55410  -0.55083  -0.54974  -0.54588
 Alpha  occ. eigenvalues --   -0.54349  -0.54168  -0.53922  -0.53043  -0.52911
 Alpha  occ. eigenvalues --   -0.52568  -0.52383  -0.52217  -0.51861  -0.51498
 Alpha  occ. eigenvalues --   -0.51484  -0.51256  -0.50967  -0.50733  -0.50627
 Alpha  occ. eigenvalues --   -0.50146  -0.49704  -0.49401  -0.49002  -0.48946
 Alpha  occ. eigenvalues --   -0.48751  -0.48505  -0.48185  -0.47559  -0.47418
 Alpha  occ. eigenvalues --   -0.47098  -0.46939  -0.46760  -0.46450  -0.45951
 Alpha  occ. eigenvalues --   -0.45817  -0.45706  -0.45607  -0.45467  -0.45036
 Alpha  occ. eigenvalues --   -0.44735  -0.44573  -0.44473  -0.44373  -0.44233
 Alpha  occ. eigenvalues --   -0.43937  -0.43719  -0.42572  -0.42301  -0.42092
 Alpha  occ. eigenvalues --   -0.41911  -0.41449  -0.40983  -0.39101  -0.39037
 Alpha  occ. eigenvalues --   -0.38536  -0.37073  -0.35768  -0.34842  -0.33726
 Alpha  occ. eigenvalues --   -0.32923  -0.32639  -0.31523  -0.31167  -0.26577
 Alpha  occ. eigenvalues --   -0.21724
 Alpha virt. eigenvalues --   -0.08977  -0.01821  -0.00909   0.01336   0.01811
 Alpha virt. eigenvalues --    0.02095   0.02827   0.03263   0.04100   0.05106
 Alpha virt. eigenvalues --    0.06651   0.06825   0.07247   0.07616   0.08274

 Mulliken charges:
               1
     1  Mg   0.429085
     2  C   -0.071168
     3  C   -0.072735
     4  C   -0.055665
     5  C   -0.056671
     6  N   -0.308041
     7  C    0.173515
     8  C    0.007308
     9  C    0.011683
    10  C    0.112150
    11  C   -0.049579
    12  C   -0.019354
    13  C   -0.000577
    14  C    0.482364
    15  O   -0.517490
    16  O   -0.280245
    17  N   -0.292256
    18  C    0.122603
    19  C   -0.020297
    20  C   -0.054300
    21  C    0.109927
    22  C   -0.036376
    23  C    0.335591
    24  O   -0.529645
    25  C   -0.037411
    26  N   -0.275925
    27  C    0.128439
    28  C    0.009675
    29  C    0.004308
    30  C    0.138085
    31  C   -0.053577
    32  C   -0.028785
    33  C   -0.064693
    34  N   -0.346393
    35  C    0.099581
    36  C    0.049907
    37  C   -0.063740
    38  C    0.120418
    39  C   -0.033257
    40  C    0.353874
    41  O   -0.527377
    42  C    0.072914
    43  C    0.496571
    44  O   -0.530656
    45  O   -0.266615
    46  C    0.068321
    47  C    0.108519
    48  C   -0.099796
    49  C   -0.004471
    50  C   -0.036891
    51  C   -0.025545
    52  C   -0.044884
    53  C   -0.047236
    54  C   -0.016494
    55  C   -0.056867
    56  C   -0.038630
    57  C   -0.025992
    58  C   -0.034316
    59  C   -0.018373
    60  C   -0.058503
    61  C   -0.046135
    62  C   -0.044415
    63  C   -0.042376
    64  C   -0.012116
    65  C   -0.060124
    66  C   -0.061033
    67  H    0.009605
    68  H    0.050262
    69  H    0.032785
    70  H    0.034505
    71  H    0.031074
    72  H    0.019085
    73  H    0.032013
    74  H    0.015539
    75  H    0.034848
    76  H    0.028723
    77  H    0.046463
    78  H    0.025156
    79  H    0.032456
    80  H    0.026068
    81  H    0.024008
    82  H    0.030300
    83  H    0.024886
    84  H    0.030668
    85  H    0.038784
    86  H    0.033857
    87  H    0.025062
    88  H    0.032512
    89  H    0.021664
    90  H    0.018992
    91  H    0.018299
    92  H    0.032447
    93  H    0.020547
    94  H    0.011763
    95  H    0.042598
    96  H    0.036434
    97  H    0.023477
    98  H    0.049503
    99  H    0.047205
   100  H    0.048735
   101  H    0.031996
   102  H    0.051101
   103  H    0.036107
   104  H    0.042557
   105  H    0.032855
   106  H    0.016235
   107  H    0.025007
   108  H    0.016291
   109  H    0.014573
   110  H    0.022633
   111  H    0.016388
   112  H    0.024004
   113  H    0.036991
   114  H    0.017416
   115  H    0.018887
   116  H    0.023281
   117  H    0.029840
   118  H    0.008270
   119  H    0.028601
   120  H    0.017671
   121  H    0.016955
   122  H    0.009764
   123  H    0.033232
   124  H    0.017224
   125  H    0.009970
   126  H    0.023055
   127  H    0.017197
   128  H    0.010831
   129  H    0.016220
   130  H    0.021703
   131  H    0.037737
   132  H    0.020001
   133  H    0.024000
   134  H    0.017627
   135  H    0.007341
   136  H    0.015155
   137  H    0.026134
   138  H    0.028645
   139  H    0.026533
   140  H    0.011838
 Sum of Mulliken charges =  -0.00000

 Dipole moment (field-independent basis, Debye):
    X=              5.3079    Y=             -0.5720    Z=             -0.8384  Tot=              5.4041
 N-N= 4.392232591579D+03 E-N= 0.000000000000D+00  KE=-9.458693610287D+03
 Leave Link  601 at Wed May  4 15:45:53 2022, MaxMem=  6710886400 cpu:               0.8 elap:               0.0
 (Enter /sw/apps/gaussian-16.0/g16/l9999.exe)
 1\1\GINC-BP1-COMPUTE192\SP\RZINDO CIS\STO-3G\C55H74Mg1N4O6\OF15641\04-
 May-2022\0\\#p ZINDO=(nstates=5)\\step_1851_chromophore_27 ZINDO\\0,1\
 Mg,0,-5.333,24.731,26.193\C,0,-3.779,26.836,28.516\C,0,-6.146,22.71,28
 .618\C,0,-6.627,22.798,23.743\C,0,-4.291,27.093,23.537\N,0,-4.886,24.7
 58,28.325\C,0,-4.446,25.765,29.085\C,0,-4.728,25.529,30.538\C,0,-5.118
 ,23.998,30.563\C,0,-5.427,23.723,29.141\C,0,-3.95,23.163,31.115\C,0,-5
 .912,26.388,31.061\C,0,-5.855,26.739,32.635\C,0,-6.919,26.241,33.539\O

 Normal termination of Gaussian 16 at Wed May  4 15:45:53 2022.
