 Gaussian 16, Revision A.03,
 Gaussian 16:  ES64L-G16RevA.03 25-Dec-2016

 ------------------------------
 #p blyp/Def2SVP td=(nstates=5)
 ------------------------------

 ---------------------------------------------------
 step_1001_chromophore_23 TDDFT with blyp functional
 ---------------------------------------------------
 Symbolic Z-matrix:
 Charge =  0 Multiplicity = 1

                         Standard orientation:
 ---------------------------------------------------------------------
 Center     Atomic      Atomic             Coordinates (Angstroms)
 Number     Number       Type             X           Y           Z
 ---------------------------------------------------------------------
      1         12           0       -4.577069    0.049446   -0.625597
      2          6           0       -2.603557    2.765848    0.401814
      3          6           0       -2.601169   -0.070823   -3.396904
      4          6           0       -5.908384   -3.020166   -1.226488
      5          6           0       -5.967601   -0.130252    2.644302
      6          7           0       -2.646168    1.218801   -1.306112
      7          6           0       -2.109820    2.337769   -0.799092
      8          6           0       -0.937311    2.982714   -1.680854
      9          6           0       -1.226088    2.182094   -3.045126
     10          6           0       -2.176927    1.016610   -2.593294
     11          6           0       -1.801348    3.033602   -4.172423
     12          6           0        0.470542    2.725633   -1.061887
     13          6           0        1.343896    3.905419   -0.633412
     14          6           0        2.739908    3.825607   -1.108928
     15          8           0        3.074785    3.880337   -2.306205
     16          8           0        3.643702    3.916460   -0.054249
     17          7           0       -4.338625   -1.339053   -2.110306
     18          6           0       -3.445701   -1.234254   -3.094003
     19          6           0       -3.587514   -2.398658   -4.031399
     20          6           0       -4.687693   -3.122747   -3.556485
     21          6           0       -5.041974   -2.509908   -2.233659
     22          6           0       -2.730586   -2.636743   -5.165561
     23          6           0       -5.283267   -4.270994   -4.338365
     24          8           0       -4.872687   -4.640409   -5.423753
     25          6           0       -6.407107   -5.150317   -3.734796
     26          7           0       -5.878520   -1.318396    0.543578
     27          6           0       -6.289654   -2.561194    0.064516
     28          6           0       -7.170082   -3.259427    1.105358
     29          6           0       -7.041785   -2.372508    2.384175
     30          6           0       -6.210959   -1.201105    1.816966
     31          6           0       -8.598566   -3.541545    0.556768
     32          6           0       -6.366310   -3.131540    3.620022
     33          6           0       -6.894057   -2.768965    5.028674
     34          7           0       -4.480668    1.181444    1.084168
     35          6           0       -5.138481    1.008935    2.331980
     36          6           0       -4.786659    2.126145    3.208210
     37          6           0       -3.740788    2.832333    2.474290
     38          6           0       -3.625624    2.264300    1.165344
     39          6           0       -5.292540    2.359864    4.626302
     40          6           0       -2.853371    3.910221    2.520922
     41          8           0       -2.627280    4.716432    3.448244
     42          6           0       -2.091286    3.894004    1.176141
     43          6           0       -2.118200    5.178701    0.523895
     44          8           0       -3.163983    5.727219    0.191064
     45          8           0       -0.903033    5.745336    0.725037
     46          6           0       -0.679247    7.146669    0.364141
     47          6           0        5.074281    4.077989   -0.538538
     48          6           0        6.003284    3.155335    0.269406
     49          6           0        6.316149    1.841078    0.150812
     50          6           0        5.625321    0.901862   -0.875806
     51          6           0        7.536743    1.334237    0.913704
     52          6           0        8.894107    1.493021    0.182931
     53          6           0        9.828086    0.226279   -0.046992
     54          6           0        9.804656   -0.238431   -1.489479
     55          6           0       10.941688    0.345952   -2.417315
     56          6           0        9.758567   -1.766741   -1.502120
     57          6           0        8.252883   -2.358573   -1.499254
     58          6           0        8.266677   -3.724726   -0.804976
     59          6           0        8.025433   -3.679442    0.788263
     60          6           0        9.203917   -4.416284    1.548074
     61          6           0        6.635061   -4.126105    1.149850
     62          6           0        5.817086   -3.113668    1.922552
     63          6           0        4.578838   -3.817129    2.520984
     64          6           0        4.587691   -4.080705    4.080005
     65          6           0        4.844733   -5.572522    4.394798
     66          6           0        3.340683   -3.494041    4.807385
     67          1           0       -2.173154   -0.064951   -4.401299
     68          1           0       -6.202011   -4.033600   -1.507849
     69          1           0       -6.219692   -0.227635    3.702133
     70          1           0       -1.062612    4.062895   -1.755519
     71          1           0       -0.323793    1.735696   -3.462796
     72          1           0       -1.124610    3.062188   -5.025850
     73          1           0       -2.103006    4.050678   -3.922103
     74          1           0       -2.601300    2.442628   -4.618419
     75          1           0        0.965031    1.918893   -1.602835
     76          1           0        0.323757    2.212596   -0.111999
     77          1           0        1.472142    3.911587    0.448855
     78          1           0        0.943625    4.780037   -1.145813
     79          1           0       -1.842094   -2.034524   -4.976874
     80          1           0       -3.277421   -2.206277   -6.004093
     81          1           0       -2.542273   -3.701656   -5.309051
     82          1           0       -7.246925   -4.528625   -3.425984
     83          1           0       -6.022983   -5.755361   -2.913258
     84          1           0       -6.780898   -5.883447   -4.449566
     85          1           0       -6.929347   -4.310923    1.258108
     86          1           0       -8.008555   -2.000027    2.725594
     87          1           0       -8.765421   -2.948434   -0.341195
     88          1           0       -9.302579   -3.311143    1.357603
     89          1           0       -8.609841   -4.595941    0.282069
     90          1           0       -5.295143   -2.932028    3.572738
     91          1           0       -6.286329   -4.199675    3.415248
     92          1           0       -7.605288   -3.472974    5.461255
     93          1           0       -7.263957   -1.745169    5.083025
     94          1           0       -5.972479   -2.732640    5.609401
     95          1           0       -4.964078    3.310885    5.043773
     96          1           0       -4.972515    1.546406    5.277955
     97          1           0       -6.376686    2.370560    4.747446
     98          1           0       -1.065515    3.682204    1.476932
     99          1           0       -1.193403    7.480746   -0.535506
    100          1           0        0.370028    7.214724    0.077322
    101          1           0       -1.103792    7.764984    1.155188
    102          1           0        5.379922    5.123078   -0.487358
    103          1           0        5.216348    3.771504   -1.575271
    104          1           0        6.780925    3.744022    0.756512
    105          1           0        4.840477    1.506437   -1.330312
    106          1           0        5.203396   -0.005573   -0.442025
    107          1           0        6.368199    0.582460   -1.606401
    108          1           0        7.363867    0.281456    1.135368
    109          1           0        7.450423    1.877811    1.854696
    110          1           0        9.388767    2.218404    0.829250
    111          1           0        8.678753    1.993258   -0.761629
    112          1           0        9.394269   -0.638991    0.454514
    113          1           0       10.788886    0.398002    0.438206
    114          1           0        8.860536   -0.076984   -2.008991
    115          1           0       11.711289   -0.369169   -2.708063
    116          1           0       11.347430    1.192043   -1.863668
    117          1           0       10.464068    0.591132   -3.365351
    118          1           0       10.389220   -2.121585   -0.686840
    119          1           0       10.129573   -2.115569   -2.466631
    120          1           0        7.831319   -2.490437   -2.496327
    121          1           0        7.459426   -1.769865   -1.039164
    122          1           0        9.143355   -4.302516   -1.097690
    123          1           0        7.476512   -4.293130   -1.294491
    124          1           0        8.082474   -2.628387    1.070465
    125          1           0        9.670295   -3.757766    2.280359
    126          1           0        9.906107   -4.762801    0.790773
    127          1           0        8.729475   -5.287682    1.999970
    128          1           0        6.629123   -4.986442    1.818365
    129          1           0        6.049342   -4.305814    0.248061
    130          1           0        5.380358   -2.298596    1.344921
    131          1           0        6.434839   -2.649711    2.690187
    132          1           0        4.270073   -4.754411    2.058655
    133          1           0        3.696588   -3.239095    2.248578
    134          1           0        5.443343   -3.536396    4.479077
    135          1           0        3.917817   -5.891502    4.872326
    136          1           0        5.604533   -5.665013    5.171268
    137          1           0        4.972918   -6.258968    3.557996
    138          1           0        3.030715   -4.121453    5.642278
    139          1           0        2.433804   -3.444314    4.205563
    140          1           0        3.505553   -2.542286    5.312348
 ---------------------------------------------------------------------

 SCF Done:  E(RB-LYP) =  -3007.34310891     A.U. after   22 cycles

 Excitation energies and oscillator strengths:

 Excited State   1:      Singlet-A      1.7522 eV  707.57 nm  f=0.0028  <S**2>=0.000
     244 -> 247        0.70307
 This state for optimization and/or second-order correction.
 Total Energy, E(TD-HF/TD-DFT) =  -3007.27871496
 Copying the excited state density for this state as the 1-particle RhoCI density.

 Excited State   2:      Singlet-A      1.8174 eV  682.19 nm  f=0.2927  <S**2>=0.000
     245 -> 248       -0.20087
     246 -> 247        0.68095
     246 <- 247       -0.14552

 Excited State   3:      Singlet-A      1.9263 eV  643.64 nm  f=0.0110  <S**2>=0.000
     243 -> 247        0.64416
     245 -> 247       -0.27048

 Excited State   4:      Singlet-A      1.9844 eV  624.79 nm  f=0.0661  <S**2>=0.000
     243 -> 247        0.28784
     245 -> 247        0.59257
     246 -> 248        0.20739

 Excited State   5:      Singlet-A      2.2492 eV  551.24 nm  f=0.0002  <S**2>=0.000
     241 -> 247        0.22294
     242 -> 247        0.67061

 The electronic state is 1-A.
 Alpha  occ. eigenvalues --  -46.28392 -18.82504 -18.82202 -18.76429 -18.76239
 Alpha  occ. eigenvalues --  -18.75892 -18.74694 -14.03450 -14.03407 -14.02268
 Alpha  occ. eigenvalues --  -14.01176 -10.03662 -10.03242 -10.00266  -9.98455
 Alpha  occ. eigenvalues --   -9.98007  -9.97807  -9.97368  -9.97105  -9.97069
 Alpha  occ. eigenvalues --   -9.96585  -9.96546  -9.96168  -9.96125  -9.95564
 Alpha  occ. eigenvalues --   -9.94862  -9.94585  -9.94482  -9.94239  -9.94177
 Alpha  occ. eigenvalues --   -9.93820  -9.93754  -9.93593  -9.93490  -9.93478
 Alpha  occ. eigenvalues --   -9.93351  -9.93329  -9.92994  -9.92761  -9.92703
 Alpha  occ. eigenvalues --   -9.92670  -9.92638  -9.92524  -9.92379  -9.92351
 Alpha  occ. eigenvalues --   -9.92198  -9.92193  -9.91941  -9.91927  -9.91864
 Alpha  occ. eigenvalues --   -9.91843  -9.91797  -9.91794  -9.91706  -9.91678
 Alpha  occ. eigenvalues --   -9.91639  -9.91388  -9.91188  -9.91055  -9.91049
 Alpha  occ. eigenvalues --   -9.90994  -9.90897  -9.90823  -9.90706  -9.90673
 Alpha  occ. eigenvalues --   -9.90639  -2.92915  -1.73320  -1.72841  -1.72601
 Alpha  occ. eigenvalues --   -0.97927  -0.96311  -0.92125  -0.89899  -0.89074
 Alpha  occ. eigenvalues --   -0.88430  -0.86863  -0.86243  -0.85914  -0.83873
 Alpha  occ. eigenvalues --   -0.76572  -0.73462  -0.73086  -0.72701  -0.72124
 Alpha  occ. eigenvalues --   -0.72023  -0.71907  -0.71121  -0.70898  -0.70320
 Alpha  occ. eigenvalues --   -0.69571  -0.69073  -0.68001  -0.67869  -0.67523
 Alpha  occ. eigenvalues --   -0.66616  -0.66205  -0.65197  -0.64884  -0.64494
 Alpha  occ. eigenvalues --   -0.63983  -0.62820  -0.62301  -0.62151  -0.60891
 Alpha  occ. eigenvalues --   -0.60738  -0.60117  -0.59967  -0.59485  -0.59020
 Alpha  occ. eigenvalues --   -0.58095  -0.57585  -0.56826  -0.55856  -0.54901
 Alpha  occ. eigenvalues --   -0.53837  -0.53689  -0.53230  -0.52457  -0.51936
 Alpha  occ. eigenvalues --   -0.51744  -0.51613  -0.51313  -0.50590  -0.49848
 Alpha  occ. eigenvalues --   -0.49319  -0.49115  -0.48934  -0.48825  -0.46429
 Alpha  occ. eigenvalues --   -0.46122  -0.45978  -0.45575  -0.45091  -0.44871
 Alpha  occ. eigenvalues --   -0.44020  -0.43616  -0.43528  -0.42801  -0.42541
 Alpha  occ. eigenvalues --   -0.42421  -0.41787  -0.41461  -0.41318  -0.40979
 Alpha  occ. eigenvalues --   -0.40852  -0.40645  -0.40392  -0.40267  -0.39955
 Alpha  occ. eigenvalues --   -0.39506  -0.39425  -0.39354  -0.39346  -0.39103
 Alpha  occ. eigenvalues --   -0.38776  -0.38561  -0.38361  -0.38261  -0.38160
 Alpha  occ. eigenvalues --   -0.38020  -0.37744  -0.37548  -0.37468  -0.37296
 Alpha  occ. eigenvalues --   -0.36994  -0.36780  -0.36436  -0.36377  -0.36161
 Alpha  occ. eigenvalues --   -0.36019  -0.35933  -0.35860  -0.35678  -0.35554
 Alpha  occ. eigenvalues --   -0.35328  -0.35145  -0.35036  -0.34942  -0.34606
 Alpha  occ. eigenvalues --   -0.34460  -0.34334  -0.34223  -0.34056  -0.34028
 Alpha  occ. eigenvalues --   -0.33911  -0.33664  -0.33420  -0.33384  -0.33242
 Alpha  occ. eigenvalues --   -0.33148  -0.33043  -0.32841  -0.32743  -0.32682
 Alpha  occ. eigenvalues --   -0.32144  -0.32068  -0.31833  -0.31700  -0.31545
 Alpha  occ. eigenvalues --   -0.31487  -0.31311  -0.31130  -0.30955  -0.30700
 Alpha  occ. eigenvalues --   -0.30435  -0.30206  -0.30137  -0.29902  -0.29752
 Alpha  occ. eigenvalues --   -0.29680  -0.29537  -0.29484  -0.29304  -0.29091
 Alpha  occ. eigenvalues --   -0.28858  -0.28519  -0.28319  -0.28296  -0.27853
 Alpha  occ. eigenvalues --   -0.27745  -0.26804  -0.26720  -0.26668  -0.26649
 Alpha  occ. eigenvalues --   -0.26193  -0.26064  -0.25645  -0.25553  -0.25281
 Alpha  occ. eigenvalues --   -0.25212  -0.24922  -0.24894  -0.23949  -0.23835
 Alpha  occ. eigenvalues --   -0.23457  -0.22575  -0.21920  -0.21387  -0.21205
 Alpha  occ. eigenvalues --   -0.20089  -0.20032  -0.18823  -0.18084  -0.17351
 Alpha  occ. eigenvalues --   -0.16102
 Alpha virt. eigenvalues --   -0.11775  -0.07340  -0.06355  -0.04723  -0.03719
 Alpha virt. eigenvalues --   -0.03320  -0.03134  -0.03043  -0.01678  -0.00056
 Alpha virt. eigenvalues --    0.01205   0.01542   0.01854   0.02516   0.02844

 Mulliken charges:
               1
     1  Mg   0.713079
     2  C    0.086600
     3  C   -0.076157
     4  C   -0.036814
     5  C   -0.072109
     6  N   -0.184663
     7  C   -0.153435
     8  C    0.018891
     9  C    0.018539
    10  C    0.019166
    11  C    0.137745
    12  C    0.118339
    13  C    0.197346
    14  C    0.046754
    15  O   -0.229661
    16  O   -0.281191
    17  N   -0.280921
    18  C    0.122331
    19  C   -0.183354
    20  C    0.043209
    21  C    0.082622
    22  C    0.224058
    23  C   -0.087257
    24  O   -0.156916
    25  C    0.110768
    26  N   -0.187944
    27  C    0.039158
    28  C    0.001109
    29  C    0.032850
    30  C    0.051047
    31  C    0.113984
    32  C    0.074458
    33  C    0.076836
    34  N   -0.319616
    35  C    0.104894
    36  C   -0.135598
    37  C    0.078596
    38  C    0.094653
    39  C    0.161130
    40  C   -0.068067
    41  O   -0.163239
    42  C    0.083937
    43  C    0.095291
    44  O   -0.187563
    45  O   -0.267308
    46  C    0.215786
    47  C    0.294331
    48  C   -0.075695
    49  C   -0.190106
    50  C    0.125360
    51  C    0.126762
    52  C    0.077947
    53  C    0.142064
    54  C   -0.095252
    55  C    0.122074
    56  C    0.085973
    57  C    0.041946
    58  C    0.086160
    59  C   -0.080560
    60  C    0.118601
    61  C    0.125171
    62  C    0.048454
    63  C    0.092043
    64  C   -0.085325
    65  C    0.112527
    66  C    0.101035
    67  H   -0.053429
    68  H   -0.084255
    69  H   -0.067114
    70  H   -0.013127
    71  H   -0.020795
    72  H   -0.016419
    73  H    0.010738
    74  H   -0.022682
    75  H   -0.018019
    76  H   -0.026741
    77  H    0.007919
    78  H    0.010429
    79  H   -0.014942
    80  H    0.007093
    81  H    0.017590
    82  H    0.005407
    83  H    0.020590
    84  H   -0.015422
    85  H   -0.029354
    86  H   -0.020433
    87  H   -0.003534
    88  H   -0.004966
    89  H   -0.006324
    90  H   -0.029041
    91  H   -0.030517
    92  H    0.007430
    93  H    0.000599
    94  H   -0.008831
    95  H    0.010403
    96  H    0.000746
    97  H   -0.010912
    98  H   -0.008857
    99  H    0.002415
   100  H    0.022642
   101  H    0.032512
   102  H   -0.006113
   103  H    0.014436
   104  H   -0.043667
   105  H   -0.005605
   106  H    0.003904
   107  H    0.008770
   108  H   -0.033150
   109  H   -0.017176
   110  H   -0.032848
   111  H   -0.016880
   112  H   -0.041015
   113  H   -0.024822
   114  H   -0.031021
   115  H   -0.017016
   116  H   -0.011711
   117  H   -0.019209
   118  H   -0.020734
   119  H   -0.037601
   120  H   -0.035740
   121  H   -0.034368
   122  H   -0.039587
   123  H   -0.052663
   124  H   -0.018080
   125  H   -0.004863
   126  H   -0.016525
   127  H   -0.020652
   128  H   -0.024335
   129  H   -0.031369
   130  H   -0.025982
   131  H   -0.024889
   132  H   -0.044692
   133  H   -0.056832
   134  H   -0.036952
   135  H   -0.035589
   136  H   -0.013514
   137  H   -0.005206
   138  H   -0.035239
   139  H   -0.013593
   140  H   -0.013547
 Sum of Mulliken charges =  -0.00000

 Dipole moment (field-independent basis, Debye):
    X=              0.4614    Y=             -2.8704    Z=              0.9522  Tot=              3.0592
 Quadrupole moment (field-independent basis, Debye-Ang):
   XX=           -372.9212   YY=           -417.7537   ZZ=           -423.4168
   XY=             25.0583   XZ=            -13.6962   YZ=            -32.4089

 Normal termination of Gaussian 16 at Tue May  3 16:54:07 2022.
