 Gaussian 16, Revision A.03,
 Gaussian 16:  ES64L-G16RevA.03 25-Dec-2016

 -----------------------------------
 #p cam-b3lyp/Def2SVP td=(nstates=5)
 -----------------------------------

 --------------------------------------------------------
 step_1001_chromophore_23 TDDFT with cam-b3lyp functional
 --------------------------------------------------------
 Symbolic Z-matrix:
 Charge =  0 Multiplicity = 1

                         Standard orientation:
 ---------------------------------------------------------------------
 Center     Atomic      Atomic             Coordinates (Angstroms)
 Number     Number       Type             X           Y           Z
 ---------------------------------------------------------------------
      1         12           0       -4.577069    0.049446   -0.625597
      2          6           0       -2.603557    2.765848    0.401814
      3          6           0       -2.601169   -0.070823   -3.396904
      4          6           0       -5.908384   -3.020166   -1.226488
      5          6           0       -5.967601   -0.130252    2.644302
      6          7           0       -2.646168    1.218801   -1.306112
      7          6           0       -2.109820    2.337769   -0.799092
      8          6           0       -0.937311    2.982714   -1.680854
      9          6           0       -1.226088    2.182094   -3.045126
     10          6           0       -2.176927    1.016610   -2.593294
     11          6           0       -1.801348    3.033602   -4.172423
     12          6           0        0.470542    2.725633   -1.061887
     13          6           0        1.343896    3.905419   -0.633412
     14          6           0        2.739908    3.825607   -1.108928
     15          8           0        3.074785    3.880337   -2.306205
     16          8           0        3.643702    3.916460   -0.054249
     17          7           0       -4.338625   -1.339053   -2.110306
     18          6           0       -3.445701   -1.234254   -3.094003
     19          6           0       -3.587514   -2.398658   -4.031399
     20          6           0       -4.687693   -3.122747   -3.556485
     21          6           0       -5.041974   -2.509908   -2.233659
     22          6           0       -2.730586   -2.636743   -5.165561
     23          6           0       -5.283267   -4.270994   -4.338365
     24          8           0       -4.872687   -4.640409   -5.423753
     25          6           0       -6.407107   -5.150317   -3.734796
     26          7           0       -5.878520   -1.318396    0.543578
     27          6           0       -6.289654   -2.561194    0.064516
     28          6           0       -7.170082   -3.259427    1.105358
     29          6           0       -7.041785   -2.372508    2.384175
     30          6           0       -6.210959   -1.201105    1.816966
     31          6           0       -8.598566   -3.541545    0.556768
     32          6           0       -6.366310   -3.131540    3.620022
     33          6           0       -6.894057   -2.768965    5.028674
     34          7           0       -4.480668    1.181444    1.084168
     35          6           0       -5.138481    1.008935    2.331980
     36          6           0       -4.786659    2.126145    3.208210
     37          6           0       -3.740788    2.832333    2.474290
     38          6           0       -3.625624    2.264300    1.165344
     39          6           0       -5.292540    2.359864    4.626302
     40          6           0       -2.853371    3.910221    2.520922
     41          8           0       -2.627280    4.716432    3.448244
     42          6           0       -2.091286    3.894004    1.176141
     43          6           0       -2.118200    5.178701    0.523895
     44          8           0       -3.163983    5.727219    0.191064
     45          8           0       -0.903033    5.745336    0.725037
     46          6           0       -0.679247    7.146669    0.364141
     47          6           0        5.074281    4.077989   -0.538538
     48          6           0        6.003284    3.155335    0.269406
     49          6           0        6.316149    1.841078    0.150812
     50          6           0        5.625321    0.901862   -0.875806
     51          6           0        7.536743    1.334237    0.913704
     52          6           0        8.894107    1.493021    0.182931
     53          6           0        9.828086    0.226279   -0.046992
     54          6           0        9.804656   -0.238431   -1.489479
     55          6           0       10.941688    0.345952   -2.417315
     56          6           0        9.758567   -1.766741   -1.502120
     57          6           0        8.252883   -2.358573   -1.499254
     58          6           0        8.266677   -3.724726   -0.804976
     59          6           0        8.025433   -3.679442    0.788263
     60          6           0        9.203917   -4.416284    1.548074
     61          6           0        6.635061   -4.126105    1.149850
     62          6           0        5.817086   -3.113668    1.922552
     63          6           0        4.578838   -3.817129    2.520984
     64          6           0        4.587691   -4.080705    4.080005
     65          6           0        4.844733   -5.572522    4.394798
     66          6           0        3.340683   -3.494041    4.807385
     67          1           0       -2.173154   -0.064951   -4.401299
     68          1           0       -6.202011   -4.033600   -1.507849
     69          1           0       -6.219692   -0.227635    3.702133
     70          1           0       -1.062612    4.062895   -1.755519
     71          1           0       -0.323793    1.735696   -3.462796
     72          1           0       -1.124610    3.062188   -5.025850
     73          1           0       -2.103006    4.050678   -3.922103
     74          1           0       -2.601300    2.442628   -4.618419
     75          1           0        0.965031    1.918893   -1.602835
     76          1           0        0.323757    2.212596   -0.111999
     77          1           0        1.472142    3.911587    0.448855
     78          1           0        0.943625    4.780037   -1.145813
     79          1           0       -1.842094   -2.034524   -4.976874
     80          1           0       -3.277421   -2.206277   -6.004093
     81          1           0       -2.542273   -3.701656   -5.309051
     82          1           0       -7.246925   -4.528625   -3.425984
     83          1           0       -6.022983   -5.755361   -2.913258
     84          1           0       -6.780898   -5.883447   -4.449566
     85          1           0       -6.929347   -4.310923    1.258108
     86          1           0       -8.008555   -2.000027    2.725594
     87          1           0       -8.765421   -2.948434   -0.341195
     88          1           0       -9.302579   -3.311143    1.357603
     89          1           0       -8.609841   -4.595941    0.282069
     90          1           0       -5.295143   -2.932028    3.572738
     91          1           0       -6.286329   -4.199675    3.415248
     92          1           0       -7.605288   -3.472974    5.461255
     93          1           0       -7.263957   -1.745169    5.083025
     94          1           0       -5.972479   -2.732640    5.609401
     95          1           0       -4.964078    3.310885    5.043773
     96          1           0       -4.972515    1.546406    5.277955
     97          1           0       -6.376686    2.370560    4.747446
     98          1           0       -1.065515    3.682204    1.476932
     99          1           0       -1.193403    7.480746   -0.535506
    100          1           0        0.370028    7.214724    0.077322
    101          1           0       -1.103792    7.764984    1.155188
    102          1           0        5.379922    5.123078   -0.487358
    103          1           0        5.216348    3.771504   -1.575271
    104          1           0        6.780925    3.744022    0.756512
    105          1           0        4.840477    1.506437   -1.330312
    106          1           0        5.203396   -0.005573   -0.442025
    107          1           0        6.368199    0.582460   -1.606401
    108          1           0        7.363867    0.281456    1.135368
    109          1           0        7.450423    1.877811    1.854696
    110          1           0        9.388767    2.218404    0.829250
    111          1           0        8.678753    1.993258   -0.761629
    112          1           0        9.394269   -0.638991    0.454514
    113          1           0       10.788886    0.398002    0.438206
    114          1           0        8.860536   -0.076984   -2.008991
    115          1           0       11.711289   -0.369169   -2.708063
    116          1           0       11.347430    1.192043   -1.863668
    117          1           0       10.464068    0.591132   -3.365351
    118          1           0       10.389220   -2.121585   -0.686840
    119          1           0       10.129573   -2.115569   -2.466631
    120          1           0        7.831319   -2.490437   -2.496327
    121          1           0        7.459426   -1.769865   -1.039164
    122          1           0        9.143355   -4.302516   -1.097690
    123          1           0        7.476512   -4.293130   -1.294491
    124          1           0        8.082474   -2.628387    1.070465
    125          1           0        9.670295   -3.757766    2.280359
    126          1           0        9.906107   -4.762801    0.790773
    127          1           0        8.729475   -5.287682    1.999970
    128          1           0        6.629123   -4.986442    1.818365
    129          1           0        6.049342   -4.305814    0.248061
    130          1           0        5.380358   -2.298596    1.344921
    131          1           0        6.434839   -2.649711    2.690187
    132          1           0        4.270073   -4.754411    2.058655
    133          1           0        3.696588   -3.239095    2.248578
    134          1           0        5.443343   -3.536396    4.479077
    135          1           0        3.917817   -5.891502    4.872326
    136          1           0        5.604533   -5.665013    5.171268
    137          1           0        4.972918   -6.258968    3.557996
    138          1           0        3.030715   -4.121453    5.642278
    139          1           0        2.433804   -3.444314    4.205563
    140          1           0        3.505553   -2.542286    5.312348
 ---------------------------------------------------------------------

 SCF Done:  E(RCAM-B3LYP) =  -3007.12388051     A.U. after   17 cycles

 Excitation energies and oscillator strengths:

 Excited State   1:      Singlet-A      1.7087 eV  725.59 nm  f=0.3686  <S**2>=0.000
     245 -> 248       -0.18965
     246 -> 247        0.68248
     245 <- 248       -0.10978
 This state for optimization and/or second-order correction.
 Total Energy, E(TD-HF/TD-DFT) =  -3007.06108533
 Copying the excited state density for this state as the 1-particle RhoCI density.

 Excited State   2:      Singlet-A      2.1945 eV  564.99 nm  f=0.1049  <S**2>=0.000
     245 -> 247        0.63983
     246 -> 248        0.28772

 Excited State   3:      Singlet-A      3.2681 eV  379.37 nm  f=0.0012  <S**2>=0.000
     242 -> 247        0.40415
     242 -> 249        0.20712
     242 -> 251       -0.14935
     244 -> 247        0.48640

 Excited State   4:      Singlet-A      3.3024 eV  375.44 nm  f=0.0034  <S**2>=0.000
     242 -> 247       -0.43987
     242 -> 249       -0.18591
     242 -> 251        0.12490
     244 -> 247        0.46097
     246 -> 248       -0.13397

 Excited State   5:      Singlet-A      3.4982 eV  354.43 nm  f=0.6378  <S**2>=0.000
     241 -> 247        0.21933
     244 -> 247        0.13048
     245 -> 247       -0.27182
     246 -> 248        0.59098
     245 <- 247        0.10560

 The electronic state is 1-A.
 Alpha  occ. eigenvalues --  -46.90018 -19.25547 -19.25113 -19.19407 -19.19392
 Alpha  occ. eigenvalues --  -19.19174 -19.17631 -14.42379 -14.42280 -14.40927
 Alpha  occ. eigenvalues --  -14.39523 -10.39034 -10.38721 -10.35527 -10.33650
 Alpha  occ. eigenvalues --  -10.32075 -10.32039 -10.32027 -10.31743 -10.31724
 Alpha  occ. eigenvalues --  -10.31140 -10.31007 -10.30403 -10.30393 -10.29814
 Alpha  occ. eigenvalues --  -10.28969 -10.28931 -10.28830 -10.28495 -10.28198
 Alpha  occ. eigenvalues --  -10.28141 -10.28075 -10.27707 -10.27567 -10.27518
 Alpha  occ. eigenvalues --  -10.27439 -10.27398 -10.27077 -10.26758 -10.26698
 Alpha  occ. eigenvalues --  -10.26492 -10.26377 -10.26279 -10.26177 -10.26098
 Alpha  occ. eigenvalues --  -10.26081 -10.26074 -10.25903 -10.25656 -10.25626
 Alpha  occ. eigenvalues --  -10.25590 -10.25583 -10.25559 -10.25471 -10.25432
 Alpha  occ. eigenvalues --  -10.25383 -10.25159 -10.25103 -10.24680 -10.24646
 Alpha  occ. eigenvalues --  -10.24610 -10.24602 -10.24399 -10.24372 -10.24250
 Alpha  occ. eigenvalues --  -10.24243  -3.18440  -1.93322  -1.92910  -1.92726
 Alpha  occ. eigenvalues --   -1.16534  -1.14736  -1.10613  -1.07990  -1.07196
 Alpha  occ. eigenvalues --   -1.06238  -1.04656  -1.03929  -1.03618  -1.01282
 Alpha  occ. eigenvalues --   -0.93691  -0.90328  -0.89895  -0.89484  -0.88827
 Alpha  occ. eigenvalues --   -0.88717  -0.88615  -0.87854  -0.87538  -0.86853
 Alpha  occ. eigenvalues --   -0.86054  -0.85452  -0.84156  -0.84088  -0.83714
 Alpha  occ. eigenvalues --   -0.82656  -0.82273  -0.81197  -0.80841  -0.80417
 Alpha  occ. eigenvalues --   -0.79768  -0.78484  -0.77998  -0.77741  -0.76347
 Alpha  occ. eigenvalues --   -0.76132  -0.75401  -0.75289  -0.74773  -0.74248
 Alpha  occ. eigenvalues --   -0.73123  -0.72572  -0.71746  -0.70688  -0.69453
 Alpha  occ. eigenvalues --   -0.68475  -0.68258  -0.67827  -0.66838  -0.66178
 Alpha  occ. eigenvalues --   -0.65839  -0.65690  -0.65562  -0.64595  -0.63870
 Alpha  occ. eigenvalues --   -0.63255  -0.62860  -0.62788  -0.62585  -0.60050
 Alpha  occ. eigenvalues --   -0.59755  -0.59498  -0.58989  -0.58580  -0.58482
 Alpha  occ. eigenvalues --   -0.57386  -0.57020  -0.56834  -0.56047  -0.55727
 Alpha  occ. eigenvalues --   -0.55621  -0.54732  -0.54430  -0.54003  -0.53785
 Alpha  occ. eigenvalues --   -0.53584  -0.53469  -0.53079  -0.53019  -0.52830
 Alpha  occ. eigenvalues --   -0.52257  -0.51985  -0.51802  -0.51771  -0.51587
 Alpha  occ. eigenvalues --   -0.51489  -0.51188  -0.50969  -0.50831  -0.50509
 Alpha  occ. eigenvalues --   -0.50332  -0.50090  -0.50009  -0.49975  -0.49451
 Alpha  occ. eigenvalues --   -0.49404  -0.49142  -0.48956  -0.48702  -0.48438
 Alpha  occ. eigenvalues --   -0.48399  -0.48248  -0.47934  -0.47914  -0.47569
 Alpha  occ. eigenvalues --   -0.47492  -0.47093  -0.47022  -0.46949  -0.46568
 Alpha  occ. eigenvalues --   -0.46407  -0.46290  -0.45983  -0.45904  -0.45826
 Alpha  occ. eigenvalues --   -0.45623  -0.45386  -0.45166  -0.45084  -0.45022
 Alpha  occ. eigenvalues --   -0.44879  -0.44784  -0.44617  -0.44516  -0.44262
 Alpha  occ. eigenvalues --   -0.43845  -0.43601  -0.43573  -0.43374  -0.43205
 Alpha  occ. eigenvalues --   -0.43089  -0.42705  -0.42680  -0.42449  -0.42276
 Alpha  occ. eigenvalues --   -0.41946  -0.41716  -0.41566  -0.41405  -0.41194
 Alpha  occ. eigenvalues --   -0.41068  -0.40823  -0.40694  -0.40492  -0.40237
 Alpha  occ. eigenvalues --   -0.39890  -0.39564  -0.39459  -0.39261  -0.38855
 Alpha  occ. eigenvalues --   -0.38647  -0.37825  -0.37567  -0.37509  -0.37413
 Alpha  occ. eigenvalues --   -0.37115  -0.36761  -0.36686  -0.36483  -0.36232
 Alpha  occ. eigenvalues --   -0.36203  -0.35733  -0.35447  -0.34707  -0.34220
 Alpha  occ. eigenvalues --   -0.34196  -0.33806  -0.32882  -0.31586  -0.31192
 Alpha  occ. eigenvalues --   -0.30615  -0.30139  -0.29910  -0.29156  -0.24078
 Alpha  occ. eigenvalues --   -0.21408
 Alpha virt. eigenvalues --   -0.08885  -0.02228   0.00026   0.01616   0.02246
 Alpha virt. eigenvalues --    0.03968   0.04263   0.04540   0.05588   0.06401
 Alpha virt. eigenvalues --    0.07722   0.07880   0.08553   0.08753   0.09152

 Mulliken charges:
               1
     1  Mg   0.841761
     2  C    0.043592
     3  C   -0.094346
     4  C   -0.058897
     5  C   -0.075244
     6  N   -0.250393
     7  C   -0.106019
     8  C   -0.024472
     9  C   -0.029372
    10  C    0.034902
    11  C    0.076192
    12  C    0.065595
    13  C    0.117662
    14  C    0.136833
    15  O   -0.272288
    16  O   -0.346320
    17  N   -0.368363
    18  C    0.134689
    19  C   -0.181291
    20  C   -0.028612
    21  C    0.114125
    22  C    0.156415
    23  C   -0.009442
    24  O   -0.196621
    25  C    0.030288
    26  N   -0.260161
    27  C    0.055267
    28  C   -0.047024
    29  C   -0.022908
    30  C    0.068209
    31  C    0.058851
    32  C    0.019980
    33  C    0.012999
    34  N   -0.408858
    35  C    0.110930
    36  C   -0.129826
    37  C   -0.000240
    38  C    0.141305
    39  C    0.107746
    40  C    0.029390
    41  O   -0.204968
    42  C    0.000441
    43  C    0.181414
    44  O   -0.222776
    45  O   -0.330349
    46  C    0.176681
    47  C    0.263299
    48  C   -0.105375
    49  C   -0.202829
    50  C    0.075946
    51  C    0.071787
    52  C    0.022520
    53  C    0.084048
    54  C   -0.149812
    55  C    0.066048
    56  C    0.032654
    57  C   -0.003473
    58  C    0.033562
    59  C   -0.139198
    60  C    0.065285
    61  C    0.074356
    62  C    0.000527
    63  C    0.034128
    64  C   -0.143480
    65  C    0.049890
    66  C    0.040752
    67  H   -0.018572
    68  H   -0.048511
    69  H   -0.034347
    70  H    0.017726
    71  H    0.015288
    72  H    0.010072
    73  H    0.035224
    74  H    0.003848
    75  H    0.014374
    76  H    0.007018
    77  H    0.043883
    78  H    0.038569
    79  H    0.011351
    80  H    0.036137
    81  H    0.047325
    82  H    0.032104
    83  H    0.046215
    84  H    0.021049
    85  H    0.005923
    86  H    0.014675
    87  H    0.021668
    88  H    0.019314
    89  H    0.015607
    90  H    0.002114
    91  H   -0.000822
    92  H    0.031038
    93  H    0.019932
    94  H    0.015377
    95  H    0.039014
    96  H    0.024872
    97  H    0.015150
    98  H    0.034677
    99  H    0.027095
   100  H    0.043522
   101  H    0.056721
   102  H    0.023373
   103  H    0.047017
   104  H   -0.012335
   105  H    0.015741
   106  H    0.025211
   107  H    0.027617
   108  H   -0.008667
   109  H    0.014418
   110  H   -0.003230
   111  H    0.010585
   112  H   -0.013891
   113  H    0.005836
   114  H   -0.001251
   115  H    0.007476
   116  H    0.011063
   117  H    0.004716
   118  H    0.005580
   119  H   -0.007006
   120  H   -0.005811
   121  H   -0.014122
   122  H   -0.011112
   123  H   -0.021614
   124  H    0.007913
   125  H    0.017936
   126  H    0.006494
   127  H    0.002853
   128  H    0.000863
   129  H   -0.002422
   130  H   -0.001845
   131  H    0.001370
   132  H   -0.014977
   133  H   -0.024432
   134  H   -0.004928
   135  H   -0.010211
   136  H    0.011312
   137  H    0.017502
   138  H   -0.009962
   139  H    0.009769
   140  H    0.011428
 Sum of Mulliken charges =  -0.00000

 Dipole moment (field-independent basis, Debye):
    X=              0.3561    Y=             -3.2511    Z=              0.5710  Tot=              3.3200
 Quadrupole moment (field-independent basis, Debye-Ang):
   XX=           -371.3110   YY=           -414.7919   ZZ=           -422.5657
   XY=             28.8664   XZ=            -12.9572   YZ=            -32.8926

 Normal termination of Gaussian 16 at Tue May  3 15:50:02 2022.
