 Gaussian 16, Revision A.03,
 Gaussian 16:  ES64L-G16RevA.03 25-Dec-2016

 ---------------------------------
 #p PBE1PBE/Def2SVP td=(nstates=5)
 ---------------------------------

 ------------------------------------------------------
 step_1001_chromophore_23 TDDFT with PBE1PBE functional
 ------------------------------------------------------
 Symbolic Z-matrix:
 Charge =  0 Multiplicity = 1

                         Standard orientation:
 ---------------------------------------------------------------------
 Center     Atomic      Atomic             Coordinates (Angstroms)
 Number     Number       Type             X           Y           Z
 ---------------------------------------------------------------------
      1         12           0       -4.577069    0.049446   -0.625597
      2          6           0       -2.603557    2.765848    0.401814
      3          6           0       -2.601169   -0.070823   -3.396904
      4          6           0       -5.908384   -3.020166   -1.226488
      5          6           0       -5.967601   -0.130252    2.644302
      6          7           0       -2.646168    1.218801   -1.306112
      7          6           0       -2.109820    2.337769   -0.799092
      8          6           0       -0.937311    2.982714   -1.680854
      9          6           0       -1.226088    2.182094   -3.045126
     10          6           0       -2.176927    1.016610   -2.593294
     11          6           0       -1.801348    3.033602   -4.172423
     12          6           0        0.470542    2.725633   -1.061887
     13          6           0        1.343896    3.905419   -0.633412
     14          6           0        2.739908    3.825607   -1.108928
     15          8           0        3.074785    3.880337   -2.306205
     16          8           0        3.643702    3.916460   -0.054249
     17          7           0       -4.338625   -1.339053   -2.110306
     18          6           0       -3.445701   -1.234254   -3.094003
     19          6           0       -3.587514   -2.398658   -4.031399
     20          6           0       -4.687693   -3.122747   -3.556485
     21          6           0       -5.041974   -2.509908   -2.233659
     22          6           0       -2.730586   -2.636743   -5.165561
     23          6           0       -5.283267   -4.270994   -4.338365
     24          8           0       -4.872687   -4.640409   -5.423753
     25          6           0       -6.407107   -5.150317   -3.734796
     26          7           0       -5.878520   -1.318396    0.543578
     27          6           0       -6.289654   -2.561194    0.064516
     28          6           0       -7.170082   -3.259427    1.105358
     29          6           0       -7.041785   -2.372508    2.384175
     30          6           0       -6.210959   -1.201105    1.816966
     31          6           0       -8.598566   -3.541545    0.556768
     32          6           0       -6.366310   -3.131540    3.620022
     33          6           0       -6.894057   -2.768965    5.028674
     34          7           0       -4.480668    1.181444    1.084168
     35          6           0       -5.138481    1.008935    2.331980
     36          6           0       -4.786659    2.126145    3.208210
     37          6           0       -3.740788    2.832333    2.474290
     38          6           0       -3.625624    2.264300    1.165344
     39          6           0       -5.292540    2.359864    4.626302
     40          6           0       -2.853371    3.910221    2.520922
     41          8           0       -2.627280    4.716432    3.448244
     42          6           0       -2.091286    3.894004    1.176141
     43          6           0       -2.118200    5.178701    0.523895
     44          8           0       -3.163983    5.727219    0.191064
     45          8           0       -0.903033    5.745336    0.725037
     46          6           0       -0.679247    7.146669    0.364141
     47          6           0        5.074281    4.077989   -0.538538
     48          6           0        6.003284    3.155335    0.269406
     49          6           0        6.316149    1.841078    0.150812
     50          6           0        5.625321    0.901862   -0.875806
     51          6           0        7.536743    1.334237    0.913704
     52          6           0        8.894107    1.493021    0.182931
     53          6           0        9.828086    0.226279   -0.046992
     54          6           0        9.804656   -0.238431   -1.489479
     55          6           0       10.941688    0.345952   -2.417315
     56          6           0        9.758567   -1.766741   -1.502120
     57          6           0        8.252883   -2.358573   -1.499254
     58          6           0        8.266677   -3.724726   -0.804976
     59          6           0        8.025433   -3.679442    0.788263
     60          6           0        9.203917   -4.416284    1.548074
     61          6           0        6.635061   -4.126105    1.149850
     62          6           0        5.817086   -3.113668    1.922552
     63          6           0        4.578838   -3.817129    2.520984
     64          6           0        4.587691   -4.080705    4.080005
     65          6           0        4.844733   -5.572522    4.394798
     66          6           0        3.340683   -3.494041    4.807385
     67          1           0       -2.173154   -0.064951   -4.401299
     68          1           0       -6.202011   -4.033600   -1.507849
     69          1           0       -6.219692   -0.227635    3.702133
     70          1           0       -1.062612    4.062895   -1.755519
     71          1           0       -0.323793    1.735696   -3.462796
     72          1           0       -1.124610    3.062188   -5.025850
     73          1           0       -2.103006    4.050678   -3.922103
     74          1           0       -2.601300    2.442628   -4.618419
     75          1           0        0.965031    1.918893   -1.602835
     76          1           0        0.323757    2.212596   -0.111999
     77          1           0        1.472142    3.911587    0.448855
     78          1           0        0.943625    4.780037   -1.145813
     79          1           0       -1.842094   -2.034524   -4.976874
     80          1           0       -3.277421   -2.206277   -6.004093
     81          1           0       -2.542273   -3.701656   -5.309051
     82          1           0       -7.246925   -4.528625   -3.425984
     83          1           0       -6.022983   -5.755361   -2.913258
     84          1           0       -6.780898   -5.883447   -4.449566
     85          1           0       -6.929347   -4.310923    1.258108
     86          1           0       -8.008555   -2.000027    2.725594
     87          1           0       -8.765421   -2.948434   -0.341195
     88          1           0       -9.302579   -3.311143    1.357603
     89          1           0       -8.609841   -4.595941    0.282069
     90          1           0       -5.295143   -2.932028    3.572738
     91          1           0       -6.286329   -4.199675    3.415248
     92          1           0       -7.605288   -3.472974    5.461255
     93          1           0       -7.263957   -1.745169    5.083025
     94          1           0       -5.972479   -2.732640    5.609401
     95          1           0       -4.964078    3.310885    5.043773
     96          1           0       -4.972515    1.546406    5.277955
     97          1           0       -6.376686    2.370560    4.747446
     98          1           0       -1.065515    3.682204    1.476932
     99          1           0       -1.193403    7.480746   -0.535506
    100          1           0        0.370028    7.214724    0.077322
    101          1           0       -1.103792    7.764984    1.155188
    102          1           0        5.379922    5.123078   -0.487358
    103          1           0        5.216348    3.771504   -1.575271
    104          1           0        6.780925    3.744022    0.756512
    105          1           0        4.840477    1.506437   -1.330312
    106          1           0        5.203396   -0.005573   -0.442025
    107          1           0        6.368199    0.582460   -1.606401
    108          1           0        7.363867    0.281456    1.135368
    109          1           0        7.450423    1.877811    1.854696
    110          1           0        9.388767    2.218404    0.829250
    111          1           0        8.678753    1.993258   -0.761629
    112          1           0        9.394269   -0.638991    0.454514
    113          1           0       10.788886    0.398002    0.438206
    114          1           0        8.860536   -0.076984   -2.008991
    115          1           0       11.711289   -0.369169   -2.708063
    116          1           0       11.347430    1.192043   -1.863668
    117          1           0       10.464068    0.591132   -3.365351
    118          1           0       10.389220   -2.121585   -0.686840
    119          1           0       10.129573   -2.115569   -2.466631
    120          1           0        7.831319   -2.490437   -2.496327
    121          1           0        7.459426   -1.769865   -1.039164
    122          1           0        9.143355   -4.302516   -1.097690
    123          1           0        7.476512   -4.293130   -1.294491
    124          1           0        8.082474   -2.628387    1.070465
    125          1           0        9.670295   -3.757766    2.280359
    126          1           0        9.906107   -4.762801    0.790773
    127          1           0        8.729475   -5.287682    1.999970
    128          1           0        6.629123   -4.986442    1.818365
    129          1           0        6.049342   -4.305814    0.248061
    130          1           0        5.380358   -2.298596    1.344921
    131          1           0        6.434839   -2.649711    2.690187
    132          1           0        4.270073   -4.754411    2.058655
    133          1           0        3.696588   -3.239095    2.248578
    134          1           0        5.443343   -3.536396    4.479077
    135          1           0        3.917817   -5.891502    4.872326
    136          1           0        5.604533   -5.665013    5.171268
    137          1           0        4.972918   -6.258968    3.557996
    138          1           0        3.030715   -4.121453    5.642278
    139          1           0        2.433804   -3.444314    4.205563
    140          1           0        3.505553   -2.542286    5.312348
 ---------------------------------------------------------------------

 SCF Done:  E(RPBE1PBE) =  -3005.31390118     A.U. after   16 cycles

 Excitation energies and oscillator strengths:

 Excited State   1:      Singlet-A      1.8681 eV  663.70 nm  f=0.3595  <S**2>=0.000
     245 -> 248       -0.18244
     246 -> 247        0.68918
     246 <- 247       -0.10407
 This state for optimization and/or second-order correction.
 Total Energy, E(TD-HF/TD-DFT) =  -3005.24525025
 Copying the excited state density for this state as the 1-particle RhoCI density.

 Excited State   2:      Singlet-A      2.1992 eV  563.76 nm  f=0.1042  <S**2>=0.000
     245 -> 247        0.65225
     246 -> 248        0.25583

 Excited State   3:      Singlet-A      2.7651 eV  448.39 nm  f=0.0001  <S**2>=0.000
     243 -> 247        0.51456
     243 -> 249       -0.13237
     244 -> 247       -0.44243

 Excited State   4:      Singlet-A      2.9616 eV  418.65 nm  f=0.0051  <S**2>=0.000
     243 -> 247        0.44548
     244 -> 247        0.52472

 Excited State   5:      Singlet-A      3.1107 eV  398.57 nm  f=0.0005  <S**2>=0.000
     241 -> 247        0.66533
     241 -> 248        0.10425
     241 -> 249        0.14451

 The electronic state is 1-A.
 Alpha  occ. eigenvalues --  -46.93416 -19.26172 -19.25832 -19.19710 -19.19599
 Alpha  occ. eigenvalues --  -19.19353 -19.17974 -14.41849 -14.41777 -14.40463
 Alpha  occ. eigenvalues --  -14.39271 -10.36079 -10.35681 -10.32648 -10.30827
 Alpha  occ. eigenvalues --  -10.29712 -10.29447 -10.29418 -10.29340 -10.29264
 Alpha  occ. eigenvalues --  -10.28770 -10.28766 -10.28235 -10.28131 -10.27632
 Alpha  occ. eigenvalues --  -10.26744 -10.26720 -10.26570 -10.26062 -10.26056
 Alpha  occ. eigenvalues --  -10.25955 -10.25725 -10.25337 -10.25244 -10.25118
 Alpha  occ. eigenvalues --  -10.25024 -10.25016 -10.24747 -10.24515 -10.24377
 Alpha  occ. eigenvalues --  -10.23991 -10.23976 -10.23749 -10.23663 -10.23580
 Alpha  occ. eigenvalues --  -10.23534 -10.23436 -10.23360 -10.23273 -10.23197
 Alpha  occ. eigenvalues --  -10.23175 -10.23132 -10.23075 -10.23040 -10.23038
 Alpha  occ. eigenvalues --  -10.23005 -10.22974 -10.22690 -10.22212 -10.22200
 Alpha  occ. eigenvalues --  -10.22035 -10.22002 -10.21951 -10.21787 -10.21765
 Alpha  occ. eigenvalues --  -10.21636  -3.15419  -1.88240  -1.87808  -1.87628
 Alpha  occ. eigenvalues --   -1.11279  -1.09530  -1.05321  -1.02756  -1.01993
 Alpha  occ. eigenvalues --   -1.01107  -0.99242  -0.98537  -0.98216  -0.95981
 Alpha  occ. eigenvalues --   -0.88128  -0.84429  -0.84066  -0.83595  -0.83092
 Alpha  occ. eigenvalues --   -0.83007  -0.82744  -0.82128  -0.81830  -0.80951
 Alpha  occ. eigenvalues --   -0.80316  -0.79810  -0.78431  -0.78327  -0.77897
 Alpha  occ. eigenvalues --   -0.76883  -0.76480  -0.75484  -0.75042  -0.74641
 Alpha  occ. eigenvalues --   -0.73942  -0.72729  -0.72264  -0.72052  -0.70669
 Alpha  occ. eigenvalues --   -0.70266  -0.69797  -0.69372  -0.68896  -0.68419
 Alpha  occ. eigenvalues --   -0.67553  -0.66920  -0.66188  -0.64997  -0.63797
 Alpha  occ. eigenvalues --   -0.62929  -0.62503  -0.62269  -0.61066  -0.60587
 Alpha  occ. eigenvalues --   -0.60251  -0.60248  -0.59752  -0.59152  -0.57975
 Alpha  occ. eigenvalues --   -0.57428  -0.57338  -0.57140  -0.57039  -0.54577
 Alpha  occ. eigenvalues --   -0.54289  -0.54080  -0.53584  -0.52951  -0.52942
 Alpha  occ. eigenvalues --   -0.52024  -0.51464  -0.51403  -0.50545  -0.50263
 Alpha  occ. eigenvalues --   -0.50024  -0.49284  -0.48960  -0.48392  -0.48357
 Alpha  occ. eigenvalues --   -0.48129  -0.47968  -0.47666  -0.47577  -0.47340
 Alpha  occ. eigenvalues --   -0.46660  -0.46497  -0.46412  -0.46245  -0.46141
 Alpha  occ. eigenvalues --   -0.45997  -0.45787  -0.45553  -0.45441  -0.45049
 Alpha  occ. eigenvalues --   -0.44848  -0.44680  -0.44583  -0.44534  -0.44014
 Alpha  occ. eigenvalues --   -0.43962  -0.43698  -0.43577  -0.43358  -0.43150
 Alpha  occ. eigenvalues --   -0.42943  -0.42864  -0.42552  -0.42484  -0.42227
 Alpha  occ. eigenvalues --   -0.42153  -0.41783  -0.41661  -0.41568  -0.41259
 Alpha  occ. eigenvalues --   -0.41164  -0.40931  -0.40732  -0.40552  -0.40485
 Alpha  occ. eigenvalues --   -0.40249  -0.40109  -0.39904  -0.39782  -0.39654
 Alpha  occ. eigenvalues --   -0.39616  -0.39503  -0.39379  -0.39273  -0.38983
 Alpha  occ. eigenvalues --   -0.38644  -0.38424  -0.38348  -0.38228  -0.38004
 Alpha  occ. eigenvalues --   -0.37795  -0.37440  -0.37414  -0.37319  -0.37134
 Alpha  occ. eigenvalues --   -0.36766  -0.36549  -0.36446  -0.36159  -0.36100
 Alpha  occ. eigenvalues --   -0.35864  -0.35717  -0.35402  -0.35381  -0.35163
 Alpha  occ. eigenvalues --   -0.34666  -0.34452  -0.34244  -0.34011  -0.33803
 Alpha  occ. eigenvalues --   -0.33471  -0.32837  -0.32418  -0.32317  -0.32228
 Alpha  occ. eigenvalues --   -0.32103  -0.31749  -0.31582  -0.31508  -0.31204
 Alpha  occ. eigenvalues --   -0.31025  -0.30627  -0.30347  -0.29909  -0.29179
 Alpha  occ. eigenvalues --   -0.29098  -0.28636  -0.28352  -0.27199  -0.26331
 Alpha  occ. eigenvalues --   -0.25747  -0.25208  -0.25073  -0.24839  -0.21027
 Alpha  occ. eigenvalues --   -0.19046
 Alpha virt. eigenvalues --   -0.11360  -0.05696  -0.04147  -0.02186  -0.01163
 Alpha virt. eigenvalues --   -0.00500  -0.00210  -0.00072   0.01190   0.02890
 Alpha virt. eigenvalues --    0.03796   0.04598   0.04633   0.05293   0.05779

 Mulliken charges:
               1
     1  Mg   0.982780
     2  C    0.001445
     3  C   -0.090979
     4  C   -0.060283
     5  C   -0.062846
     6  N   -0.344675
     7  C   -0.018410
     8  C   -0.095623
     9  C   -0.101761
    10  C    0.067241
    11  C    0.020885
    12  C    0.029196
    13  C    0.026289
    14  C    0.211153
    15  O   -0.303603
    16  O   -0.373948
    17  N   -0.486783
    18  C    0.166577
    19  C   -0.210268
    20  C   -0.069122
    21  C    0.140092
    22  C    0.088423
    23  C    0.043772
    24  O   -0.232158
    25  C   -0.047473
    26  N   -0.363068
    27  C    0.084895
    28  C   -0.113994
    29  C   -0.100436
    30  C    0.103658
    31  C    0.001815
    32  C   -0.033505
    33  C   -0.062673
    34  N   -0.530314
    35  C    0.132786
    36  C   -0.139564
    37  C   -0.054012
    38  C    0.207833
    39  C    0.054304
    40  C    0.119457
    41  O   -0.251335
    42  C   -0.110295
    43  C    0.273311
    44  O   -0.259054
    45  O   -0.363872
    46  C    0.122769
    47  C    0.217081
    48  C   -0.117745
    49  C   -0.240244
    50  C    0.004798
    51  C    0.003742
    52  C   -0.036466
    53  C    0.014632
    54  C   -0.235402
    55  C    0.007676
    56  C   -0.026190
    57  C   -0.072033
    58  C   -0.018817
    59  C   -0.232629
    60  C    0.005586
    61  C    0.020862
    62  C   -0.068707
    63  C   -0.017493
    64  C   -0.232932
    65  C   -0.012107
    66  C   -0.019903
    67  H    0.012266
    68  H   -0.011364
    69  H    0.001132
    70  H    0.055752
    71  H    0.050584
    72  H    0.037570
    73  H    0.061129
    74  H    0.032352
    75  H    0.044553
    76  H    0.040698
    77  H    0.075218
    78  H    0.072283
    79  H    0.038981
    80  H    0.065336
    81  H    0.074452
    82  H    0.058714
    83  H    0.071691
    84  H    0.049342
    85  H    0.042504
    86  H    0.051548
    87  H    0.049917
    88  H    0.046975
    89  H    0.042130
    90  H    0.034887
    91  H    0.031317
    92  H    0.058782
    93  H    0.045672
    94  H    0.043601
    95  H    0.066204
    96  H    0.052237
    97  H    0.042788
    98  H    0.075257
    99  H    0.048067
   100  H    0.063992
   101  H    0.078093
   102  H    0.049927
   103  H    0.073030
   104  H    0.017848
   105  H    0.046802
   106  H    0.054366
   107  H    0.056855
   108  H    0.027305
   109  H    0.046071
   110  H    0.029641
   111  H    0.043490
   112  H    0.028751
   113  H    0.037006
   114  H    0.041901
   115  H    0.034229
   116  H    0.038807
   117  H    0.032041
   118  H    0.038810
   119  H    0.027362
   120  H    0.026869
   121  H    0.023483
   122  H    0.020604
   123  H    0.011345
   124  H    0.053004
   125  H    0.044330
   126  H    0.033165
   127  H    0.030188
   128  H    0.036658
   129  H    0.030176
   130  H    0.034200
   131  H    0.033191
   132  H    0.017142
   133  H    0.008571
   134  H    0.033394
   135  H    0.018120
   136  H    0.038950
   137  H    0.042482
   138  H    0.017444
   139  H    0.036500
   140  H    0.038944
 Sum of Mulliken charges =  -0.00000

 Dipole moment (field-independent basis, Debye):
    X=              0.3187    Y=             -3.2546    Z=              0.7409  Tot=              3.3530
 Quadrupole moment (field-independent basis, Debye-Ang):
   XX=           -367.3921   YY=           -412.0298   ZZ=           -418.5047
   XY=             29.3378   XZ=            -14.8243   YZ=            -33.2929

 Normal termination of Gaussian 16 at Tue May  3 16:10:34 2022.
