 Gaussian 16, Revision A.03,
 Gaussian 16:  ES64L-G16RevA.03 25-Dec-2016

 --------------------------------
 #p wB97XD/Def2SVP td=(nstates=5)
 --------------------------------

 -----------------------------------------------------
 step_1001_chromophore_23 TDDFT with wB97XD functional
 -----------------------------------------------------
 Symbolic Z-matrix:
 Charge =  0 Multiplicity = 1

                         Standard orientation:
 ---------------------------------------------------------------------
 Center     Atomic      Atomic             Coordinates (Angstroms)
 Number     Number       Type             X           Y           Z
 ---------------------------------------------------------------------
      1         12           0       -4.577069    0.049446   -0.625597
      2          6           0       -2.603557    2.765848    0.401814
      3          6           0       -2.601169   -0.070823   -3.396904
      4          6           0       -5.908384   -3.020166   -1.226488
      5          6           0       -5.967601   -0.130252    2.644302
      6          7           0       -2.646168    1.218801   -1.306112
      7          6           0       -2.109820    2.337769   -0.799092
      8          6           0       -0.937311    2.982714   -1.680854
      9          6           0       -1.226088    2.182094   -3.045126
     10          6           0       -2.176927    1.016610   -2.593294
     11          6           0       -1.801348    3.033602   -4.172423
     12          6           0        0.470542    2.725633   -1.061887
     13          6           0        1.343896    3.905419   -0.633412
     14          6           0        2.739908    3.825607   -1.108928
     15          8           0        3.074785    3.880337   -2.306205
     16          8           0        3.643702    3.916460   -0.054249
     17          7           0       -4.338625   -1.339053   -2.110306
     18          6           0       -3.445701   -1.234254   -3.094003
     19          6           0       -3.587514   -2.398658   -4.031399
     20          6           0       -4.687693   -3.122747   -3.556485
     21          6           0       -5.041974   -2.509908   -2.233659
     22          6           0       -2.730586   -2.636743   -5.165561
     23          6           0       -5.283267   -4.270994   -4.338365
     24          8           0       -4.872687   -4.640409   -5.423753
     25          6           0       -6.407107   -5.150317   -3.734796
     26          7           0       -5.878520   -1.318396    0.543578
     27          6           0       -6.289654   -2.561194    0.064516
     28          6           0       -7.170082   -3.259427    1.105358
     29          6           0       -7.041785   -2.372508    2.384175
     30          6           0       -6.210959   -1.201105    1.816966
     31          6           0       -8.598566   -3.541545    0.556768
     32          6           0       -6.366310   -3.131540    3.620022
     33          6           0       -6.894057   -2.768965    5.028674
     34          7           0       -4.480668    1.181444    1.084168
     35          6           0       -5.138481    1.008935    2.331980
     36          6           0       -4.786659    2.126145    3.208210
     37          6           0       -3.740788    2.832333    2.474290
     38          6           0       -3.625624    2.264300    1.165344
     39          6           0       -5.292540    2.359864    4.626302
     40          6           0       -2.853371    3.910221    2.520922
     41          8           0       -2.627280    4.716432    3.448244
     42          6           0       -2.091286    3.894004    1.176141
     43          6           0       -2.118200    5.178701    0.523895
     44          8           0       -3.163983    5.727219    0.191064
     45          8           0       -0.903033    5.745336    0.725037
     46          6           0       -0.679247    7.146669    0.364141
     47          6           0        5.074281    4.077989   -0.538538
     48          6           0        6.003284    3.155335    0.269406
     49          6           0        6.316149    1.841078    0.150812
     50          6           0        5.625321    0.901862   -0.875806
     51          6           0        7.536743    1.334237    0.913704
     52          6           0        8.894107    1.493021    0.182931
     53          6           0        9.828086    0.226279   -0.046992
     54          6           0        9.804656   -0.238431   -1.489479
     55          6           0       10.941688    0.345952   -2.417315
     56          6           0        9.758567   -1.766741   -1.502120
     57          6           0        8.252883   -2.358573   -1.499254
     58          6           0        8.266677   -3.724726   -0.804976
     59          6           0        8.025433   -3.679442    0.788263
     60          6           0        9.203917   -4.416284    1.548074
     61          6           0        6.635061   -4.126105    1.149850
     62          6           0        5.817086   -3.113668    1.922552
     63          6           0        4.578838   -3.817129    2.520984
     64          6           0        4.587691   -4.080705    4.080005
     65          6           0        4.844733   -5.572522    4.394798
     66          6           0        3.340683   -3.494041    4.807385
     67          1           0       -2.173154   -0.064951   -4.401299
     68          1           0       -6.202011   -4.033600   -1.507849
     69          1           0       -6.219692   -0.227635    3.702133
     70          1           0       -1.062612    4.062895   -1.755519
     71          1           0       -0.323793    1.735696   -3.462796
     72          1           0       -1.124610    3.062188   -5.025850
     73          1           0       -2.103006    4.050678   -3.922103
     74          1           0       -2.601300    2.442628   -4.618419
     75          1           0        0.965031    1.918893   -1.602835
     76          1           0        0.323757    2.212596   -0.111999
     77          1           0        1.472142    3.911587    0.448855
     78          1           0        0.943625    4.780037   -1.145813
     79          1           0       -1.842094   -2.034524   -4.976874
     80          1           0       -3.277421   -2.206277   -6.004093
     81          1           0       -2.542273   -3.701656   -5.309051
     82          1           0       -7.246925   -4.528625   -3.425984
     83          1           0       -6.022983   -5.755361   -2.913258
     84          1           0       -6.780898   -5.883447   -4.449566
     85          1           0       -6.929347   -4.310923    1.258108
     86          1           0       -8.008555   -2.000027    2.725594
     87          1           0       -8.765421   -2.948434   -0.341195
     88          1           0       -9.302579   -3.311143    1.357603
     89          1           0       -8.609841   -4.595941    0.282069
     90          1           0       -5.295143   -2.932028    3.572738
     91          1           0       -6.286329   -4.199675    3.415248
     92          1           0       -7.605288   -3.472974    5.461255
     93          1           0       -7.263957   -1.745169    5.083025
     94          1           0       -5.972479   -2.732640    5.609401
     95          1           0       -4.964078    3.310885    5.043773
     96          1           0       -4.972515    1.546406    5.277955
     97          1           0       -6.376686    2.370560    4.747446
     98          1           0       -1.065515    3.682204    1.476932
     99          1           0       -1.193403    7.480746   -0.535506
    100          1           0        0.370028    7.214724    0.077322
    101          1           0       -1.103792    7.764984    1.155188
    102          1           0        5.379922    5.123078   -0.487358
    103          1           0        5.216348    3.771504   -1.575271
    104          1           0        6.780925    3.744022    0.756512
    105          1           0        4.840477    1.506437   -1.330312
    106          1           0        5.203396   -0.005573   -0.442025
    107          1           0        6.368199    0.582460   -1.606401
    108          1           0        7.363867    0.281456    1.135368
    109          1           0        7.450423    1.877811    1.854696
    110          1           0        9.388767    2.218404    0.829250
    111          1           0        8.678753    1.993258   -0.761629
    112          1           0        9.394269   -0.638991    0.454514
    113          1           0       10.788886    0.398002    0.438206
    114          1           0        8.860536   -0.076984   -2.008991
    115          1           0       11.711289   -0.369169   -2.708063
    116          1           0       11.347430    1.192043   -1.863668
    117          1           0       10.464068    0.591132   -3.365351
    118          1           0       10.389220   -2.121585   -0.686840
    119          1           0       10.129573   -2.115569   -2.466631
    120          1           0        7.831319   -2.490437   -2.496327
    121          1           0        7.459426   -1.769865   -1.039164
    122          1           0        9.143355   -4.302516   -1.097690
    123          1           0        7.476512   -4.293130   -1.294491
    124          1           0        8.082474   -2.628387    1.070465
    125          1           0        9.670295   -3.757766    2.280359
    126          1           0        9.906107   -4.762801    0.790773
    127          1           0        8.729475   -5.287682    1.999970
    128          1           0        6.629123   -4.986442    1.818365
    129          1           0        6.049342   -4.305814    0.248061
    130          1           0        5.380358   -2.298596    1.344921
    131          1           0        6.434839   -2.649711    2.690187
    132          1           0        4.270073   -4.754411    2.058655
    133          1           0        3.696588   -3.239095    2.248578
    134          1           0        5.443343   -3.536396    4.479077
    135          1           0        3.917817   -5.891502    4.872326
    136          1           0        5.604533   -5.665013    5.171268
    137          1           0        4.972918   -6.258968    3.557996
    138          1           0        3.030715   -4.121453    5.642278
    139          1           0        2.433804   -3.444314    4.205563
    140          1           0        3.505553   -2.542286    5.312348
 ---------------------------------------------------------------------

 SCF Done:  E(RwB97XD) =  -3007.82466444     A.U. after   18 cycles

 Excitation energies and oscillator strengths:

 Excited State   1:      Singlet-A      1.6496 eV  751.60 nm  f=0.3672  <S**2>=0.000
     245 -> 248       -0.19537
     246 -> 247        0.68041
     245 <- 248       -0.11978
 This state for optimization and/or second-order correction.
 Total Energy, E(TD-HF/TD-DFT) =  -3007.76404253
 Copying the excited state density for this state as the 1-particle RhoCI density.

 Excited State   2:      Singlet-A      2.1395 eV  579.50 nm  f=0.1015  <S**2>=0.000
     245 -> 247        0.63752
     246 -> 248        0.29091

 Excited State   3:      Singlet-A      3.2972 eV  376.03 nm  f=0.0043  <S**2>=0.000
     242 -> 247        0.24781
     242 -> 249       -0.16045
     242 -> 250       -0.12445
     244 -> 247        0.58658
     246 -> 248       -0.14776

 Excited State   4:      Singlet-A      3.3283 eV  372.52 nm  f=0.0048  <S**2>=0.000
     242 -> 247        0.52677
     242 -> 249       -0.25420
     242 -> 250       -0.17845
     244 -> 247       -0.29221
     246 -> 248        0.12577

 Excited State   5:      Singlet-A      3.5269 eV  351.54 nm  f=0.6618  <S**2>=0.000
     241 -> 247        0.22695
     244 -> 247        0.15433
     245 -> 247       -0.27406
     246 -> 248        0.57730
     245 <- 247        0.11033

 The electronic state is 1-A.
 Alpha  occ. eigenvalues --  -46.96359 -19.30766 -19.30369 -19.24363 -19.24355
 Alpha  occ. eigenvalues --  -19.24198 -19.22690 -14.46975 -14.46872 -14.45504
 Alpha  occ. eigenvalues --  -14.44125 -10.42858 -10.42560 -10.39508 -10.37653
 Alpha  occ. eigenvalues --  -10.36112 -10.35944 -10.35836 -10.35803 -10.35793
 Alpha  occ. eigenvalues --  -10.35222 -10.35005 -10.34432 -10.34360 -10.33901
 Alpha  occ. eigenvalues --  -10.33077 -10.33024 -10.32819 -10.32640 -10.32255
 Alpha  occ. eigenvalues --  -10.32184 -10.32176 -10.31774 -10.31570 -10.31559
 Alpha  occ. eigenvalues --  -10.31441 -10.31365 -10.31015 -10.30833 -10.30727
 Alpha  occ. eigenvalues --  -10.30390 -10.30354 -10.30112 -10.30052 -10.29962
 Alpha  occ. eigenvalues --  -10.29948 -10.29901 -10.29840 -10.29581 -10.29567
 Alpha  occ. eigenvalues --  -10.29549 -10.29533 -10.29508 -10.29415 -10.29372
 Alpha  occ. eigenvalues --  -10.29360 -10.29193 -10.29050 -10.28560 -10.28558
 Alpha  occ. eigenvalues --  -10.28469 -10.28422 -10.28279 -10.28194 -10.28143
 Alpha  occ. eigenvalues --  -10.28050  -3.22251  -1.95815  -1.95382  -1.95203
 Alpha  occ. eigenvalues --   -1.18708  -1.16912  -1.12835  -1.10172  -1.09412
 Alpha  occ. eigenvalues --   -1.08452  -1.06680  -1.05943  -1.05631  -1.03303
 Alpha  occ. eigenvalues --   -0.95687  -0.92105  -0.91718  -0.91257  -0.90759
 Alpha  occ. eigenvalues --   -0.90582  -0.90405  -0.89821  -0.89459  -0.88609
 Alpha  occ. eigenvalues --   -0.87969  -0.87388  -0.86048  -0.85977  -0.85554
 Alpha  occ. eigenvalues --   -0.84529  -0.84149  -0.83155  -0.82741  -0.82301
 Alpha  occ. eigenvalues --   -0.81606  -0.80383  -0.79955  -0.79657  -0.78286
 Alpha  occ. eigenvalues --   -0.77958  -0.77365  -0.77055  -0.76583  -0.76078
 Alpha  occ. eigenvalues --   -0.75088  -0.74511  -0.73730  -0.72608  -0.71350
 Alpha  occ. eigenvalues --   -0.70474  -0.70129  -0.69846  -0.68700  -0.68120
 Alpha  occ. eigenvalues --   -0.67762  -0.67698  -0.67403  -0.66599  -0.65651
 Alpha  occ. eigenvalues --   -0.65074  -0.64798  -0.64668  -0.64558  -0.62037
 Alpha  occ. eigenvalues --   -0.61741  -0.61481  -0.60966  -0.60471  -0.60439
 Alpha  occ. eigenvalues --   -0.59402  -0.58941  -0.58829  -0.57972  -0.57650
 Alpha  occ. eigenvalues --   -0.57523  -0.56663  -0.56355  -0.55830  -0.55729
 Alpha  occ. eigenvalues --   -0.55511  -0.55364  -0.54988  -0.54948  -0.54770
 Alpha  occ. eigenvalues --   -0.54208  -0.53863  -0.53732  -0.53614  -0.53537
 Alpha  occ. eigenvalues --   -0.53351  -0.53129  -0.52863  -0.52751  -0.52421
 Alpha  occ. eigenvalues --   -0.52217  -0.52012  -0.51935  -0.51884  -0.51403
 Alpha  occ. eigenvalues --   -0.51286  -0.51006  -0.50864  -0.50665  -0.50391
 Alpha  occ. eigenvalues --   -0.50282  -0.50152  -0.49854  -0.49764  -0.49531
 Alpha  occ. eigenvalues --   -0.49404  -0.49021  -0.48948  -0.48827  -0.48472
 Alpha  occ. eigenvalues --   -0.48322  -0.48161  -0.47921  -0.47760  -0.47726
 Alpha  occ. eigenvalues --   -0.47486  -0.47290  -0.47093  -0.46976  -0.46873
 Alpha  occ. eigenvalues --   -0.46798  -0.46671  -0.46520  -0.46428  -0.46141
 Alpha  occ. eigenvalues --   -0.45774  -0.45517  -0.45496  -0.45286  -0.45119
 Alpha  occ. eigenvalues --   -0.44953  -0.44687  -0.44563  -0.44392  -0.44231
 Alpha  occ. eigenvalues --   -0.43864  -0.43639  -0.43550  -0.43280  -0.43123
 Alpha  occ. eigenvalues --   -0.42952  -0.42715  -0.42529  -0.42416  -0.42144
 Alpha  occ. eigenvalues --   -0.41739  -0.41467  -0.41299  -0.41107  -0.40795
 Alpha  occ. eigenvalues --   -0.40505  -0.39759  -0.39441  -0.39368  -0.39246
 Alpha  occ. eigenvalues --   -0.39154  -0.38750  -0.38528  -0.38498  -0.38193
 Alpha  occ. eigenvalues --   -0.38042  -0.37575  -0.37290  -0.36703  -0.36163
 Alpha  occ. eigenvalues --   -0.36047  -0.35727  -0.35110  -0.33798  -0.33204
 Alpha  occ. eigenvalues --   -0.32762  -0.32097  -0.31930  -0.31312  -0.25995
 Alpha  occ. eigenvalues --   -0.23210
 Alpha virt. eigenvalues --   -0.07236  -0.00320   0.02111   0.04312   0.04860
 Alpha virt. eigenvalues --    0.06263   0.06469   0.06669   0.07972   0.09293
 Alpha virt. eigenvalues --    0.10269   0.11208   0.11439   0.11948   0.12397

 Mulliken charges:
               1
     1  Mg   0.975859
     2  C    0.016111
     3  C   -0.106972
     4  C   -0.072109
     5  C   -0.077577
     6  N   -0.312219
     7  C   -0.059690
     8  C   -0.068788
     9  C   -0.077450
    10  C    0.055448
    11  C    0.029746
    12  C    0.033316
    13  C    0.047844
    14  C    0.198262
    15  O   -0.301221
    16  O   -0.374606
    17  N   -0.453892
    18  C    0.154736
    19  C   -0.195334
    20  C   -0.068862
    21  C    0.137490
    22  C    0.100876
    23  C    0.038317
    24  O   -0.227311
    25  C   -0.033161
    26  N   -0.330425
    27  C    0.075705
    28  C   -0.093336
    29  C   -0.073850
    30  C    0.092163
    31  C    0.012881
    32  C   -0.022676
    33  C   -0.045772
    34  N   -0.497024
    35  C    0.123624
    36  C   -0.140157
    37  C   -0.046151
    38  C    0.181914
    39  C    0.063554
    40  C    0.102339
    41  O   -0.241382
    42  C   -0.065075
    43  C    0.243735
    44  O   -0.251945
    45  O   -0.359287
    46  C    0.135842
    47  C    0.233537
    48  C   -0.128099
    49  C   -0.227471
    50  C    0.027285
    51  C    0.027798
    52  C   -0.023256
    53  C    0.039907
    54  C   -0.204753
    55  C    0.018130
    56  C   -0.006701
    57  C   -0.046131
    58  C   -0.002862
    59  C   -0.196804
    60  C    0.021089
    61  C    0.039218
    62  C   -0.047525
    63  C   -0.003410
    64  C   -0.206268
    65  C    0.000450
    66  C   -0.007213
    67  H    0.006622
    68  H   -0.023444
    69  H   -0.010294
    70  H    0.041086
    71  H    0.042372
    72  H    0.032794
    73  H    0.057327
    74  H    0.024168
    75  H    0.038499
    76  H    0.031990
    77  H    0.070813
    78  H    0.063232
    79  H    0.032753
    80  H    0.061429
    81  H    0.071527
    82  H    0.052486
    83  H    0.067202
    84  H    0.048140
    85  H    0.032385
    86  H    0.040611
    87  H    0.043029
    88  H    0.041511
    89  H    0.036867
    90  H    0.026260
    91  H    0.023813
    92  H    0.054183
    93  H    0.038741
    94  H    0.037673
    95  H    0.063583
    96  H    0.046688
    97  H    0.037553
    98  H    0.063902
    99  H    0.044169
   100  H    0.060991
   101  H    0.075615
   102  H    0.047334
   103  H    0.066737
   104  H    0.013127
   105  H    0.037789
   106  H    0.048540
   107  H    0.047384
   108  H    0.013874
   109  H    0.039084
   110  H    0.023269
   111  H    0.031928
   112  H    0.007227
   113  H    0.032065
   114  H    0.022229
   115  H    0.028902
   116  H    0.032687
   117  H    0.026949
   118  H    0.027187
   119  H    0.018590
   120  H    0.020369
   121  H    0.003115
   122  H    0.010935
   123  H    0.002695
   124  H    0.027622
   125  H    0.039790
   126  H    0.026206
   127  H    0.023573
   128  H    0.020914
   129  H    0.020170
   130  H    0.024433
   131  H    0.023304
   132  H    0.006810
   133  H    0.000403
   134  H    0.021589
   135  H    0.010412
   136  H    0.034106
   137  H    0.037204
   138  H    0.010429
   139  H    0.030350
   140  H    0.033990
 Sum of Mulliken charges =  -0.00000

 Dipole moment (field-independent basis, Debye):
    X=              0.3393    Y=             -3.3352    Z=              0.5154  Tot=              3.3918
 Quadrupole moment (field-independent basis, Debye-Ang):
   XX=           -366.7912   YY=           -410.9520   ZZ=           -418.2732
   XY=             29.9366   XZ=            -13.5153   YZ=            -32.8348

 Normal termination of Gaussian 16 at Tue May  3 16:40:30 2022.
