 Gaussian 16, Revision A.03,
 Gaussian 16:  ES64L-G16RevA.03 25-Dec-2016

 --------------------
 #p ZINDO=(nstates=5)
 --------------------

 ------------------------------
 step_1001_chromophore_23 ZINDO
 ------------------------------
 Symbolic Z-matrix:
 Charge =  0 Multiplicity = 1

                         Standard orientation:
 ---------------------------------------------------------------------
 Center     Atomic      Atomic             Coordinates (Angstroms)
 Number     Number       Type             X           Y           Z
 ---------------------------------------------------------------------
      1         12           0       -4.577069    0.049446   -0.625597
      2          6           0       -2.603557    2.765848    0.401814
      3          6           0       -2.601169   -0.070823   -3.396904
      4          6           0       -5.908384   -3.020166   -1.226488
      5          6           0       -5.967601   -0.130252    2.644302
      6          7           0       -2.646168    1.218801   -1.306112
      7          6           0       -2.109820    2.337769   -0.799092
      8          6           0       -0.937311    2.982714   -1.680854
      9          6           0       -1.226088    2.182094   -3.045126
     10          6           0       -2.176927    1.016610   -2.593294
     11          6           0       -1.801348    3.033602   -4.172423
     12          6           0        0.470542    2.725633   -1.061887
     13          6           0        1.343896    3.905419   -0.633412
     14          6           0        2.739908    3.825607   -1.108928
     15          8           0        3.074785    3.880337   -2.306205
     16          8           0        3.643702    3.916460   -0.054249
     17          7           0       -4.338625   -1.339053   -2.110306
     18          6           0       -3.445701   -1.234254   -3.094003
     19          6           0       -3.587514   -2.398658   -4.031399
     20          6           0       -4.687693   -3.122747   -3.556485
     21          6           0       -5.041974   -2.509908   -2.233659
     22          6           0       -2.730586   -2.636743   -5.165561
     23          6           0       -5.283267   -4.270994   -4.338365
     24          8           0       -4.872687   -4.640409   -5.423753
     25          6           0       -6.407107   -5.150317   -3.734796
     26          7           0       -5.878520   -1.318396    0.543578
     27          6           0       -6.289654   -2.561194    0.064516
     28          6           0       -7.170082   -3.259427    1.105358
     29          6           0       -7.041785   -2.372508    2.384175
     30          6           0       -6.210959   -1.201105    1.816966
     31          6           0       -8.598566   -3.541545    0.556768
     32          6           0       -6.366310   -3.131540    3.620022
     33          6           0       -6.894057   -2.768965    5.028674
     34          7           0       -4.480668    1.181444    1.084168
     35          6           0       -5.138481    1.008935    2.331980
     36          6           0       -4.786659    2.126145    3.208210
     37          6           0       -3.740788    2.832333    2.474290
     38          6           0       -3.625624    2.264300    1.165344
     39          6           0       -5.292540    2.359864    4.626302
     40          6           0       -2.853371    3.910221    2.520922
     41          8           0       -2.627280    4.716432    3.448244
     42          6           0       -2.091286    3.894004    1.176141
     43          6           0       -2.118200    5.178701    0.523895
     44          8           0       -3.163983    5.727219    0.191064
     45          8           0       -0.903033    5.745336    0.725037
     46          6           0       -0.679247    7.146669    0.364141
     47          6           0        5.074281    4.077989   -0.538538
     48          6           0        6.003284    3.155335    0.269406
     49          6           0        6.316149    1.841078    0.150812
     50          6           0        5.625321    0.901862   -0.875806
     51          6           0        7.536743    1.334237    0.913704
     52          6           0        8.894107    1.493021    0.182931
     53          6           0        9.828086    0.226279   -0.046992
     54          6           0        9.804656   -0.238431   -1.489479
     55          6           0       10.941688    0.345952   -2.417315
     56          6           0        9.758567   -1.766741   -1.502120
     57          6           0        8.252883   -2.358573   -1.499254
     58          6           0        8.266677   -3.724726   -0.804976
     59          6           0        8.025433   -3.679442    0.788263
     60          6           0        9.203917   -4.416284    1.548074
     61          6           0        6.635061   -4.126105    1.149850
     62          6           0        5.817086   -3.113668    1.922552
     63          6           0        4.578838   -3.817129    2.520984
     64          6           0        4.587691   -4.080705    4.080005
     65          6           0        4.844733   -5.572522    4.394798
     66          6           0        3.340683   -3.494041    4.807385
     67          1           0       -2.173154   -0.064951   -4.401299
     68          1           0       -6.202011   -4.033600   -1.507849
     69          1           0       -6.219692   -0.227635    3.702133
     70          1           0       -1.062612    4.062895   -1.755519
     71          1           0       -0.323793    1.735696   -3.462796
     72          1           0       -1.124610    3.062188   -5.025850
     73          1           0       -2.103006    4.050678   -3.922103
     74          1           0       -2.601300    2.442628   -4.618419
     75          1           0        0.965031    1.918893   -1.602835
     76          1           0        0.323757    2.212596   -0.111999
     77          1           0        1.472142    3.911587    0.448855
     78          1           0        0.943625    4.780037   -1.145813
     79          1           0       -1.842094   -2.034524   -4.976874
     80          1           0       -3.277421   -2.206277   -6.004093
     81          1           0       -2.542273   -3.701656   -5.309051
     82          1           0       -7.246925   -4.528625   -3.425984
     83          1           0       -6.022983   -5.755361   -2.913258
     84          1           0       -6.780898   -5.883447   -4.449566
     85          1           0       -6.929347   -4.310923    1.258108
     86          1           0       -8.008555   -2.000027    2.725594
     87          1           0       -8.765421   -2.948434   -0.341195
     88          1           0       -9.302579   -3.311143    1.357603
     89          1           0       -8.609841   -4.595941    0.282069
     90          1           0       -5.295143   -2.932028    3.572738
     91          1           0       -6.286329   -4.199675    3.415248
     92          1           0       -7.605288   -3.472974    5.461255
     93          1           0       -7.263957   -1.745169    5.083025
     94          1           0       -5.972479   -2.732640    5.609401
     95          1           0       -4.964078    3.310885    5.043773
     96          1           0       -4.972515    1.546406    5.277955
     97          1           0       -6.376686    2.370560    4.747446
     98          1           0       -1.065515    3.682204    1.476932
     99          1           0       -1.193403    7.480746   -0.535506
    100          1           0        0.370028    7.214724    0.077322
    101          1           0       -1.103792    7.764984    1.155188
    102          1           0        5.379922    5.123078   -0.487358
    103          1           0        5.216348    3.771504   -1.575271
    104          1           0        6.780925    3.744022    0.756512
    105          1           0        4.840477    1.506437   -1.330312
    106          1           0        5.203396   -0.005573   -0.442025
    107          1           0        6.368199    0.582460   -1.606401
    108          1           0        7.363867    0.281456    1.135368
    109          1           0        7.450423    1.877811    1.854696
    110          1           0        9.388767    2.218404    0.829250
    111          1           0        8.678753    1.993258   -0.761629
    112          1           0        9.394269   -0.638991    0.454514
    113          1           0       10.788886    0.398002    0.438206
    114          1           0        8.860536   -0.076984   -2.008991
    115          1           0       11.711289   -0.369169   -2.708063
    116          1           0       11.347430    1.192043   -1.863668
    117          1           0       10.464068    0.591132   -3.365351
    118          1           0       10.389220   -2.121585   -0.686840
    119          1           0       10.129573   -2.115569   -2.466631
    120          1           0        7.831319   -2.490437   -2.496327
    121          1           0        7.459426   -1.769865   -1.039164
    122          1           0        9.143355   -4.302516   -1.097690
    123          1           0        7.476512   -4.293130   -1.294491
    124          1           0        8.082474   -2.628387    1.070465
    125          1           0        9.670295   -3.757766    2.280359
    126          1           0        9.906107   -4.762801    0.790773
    127          1           0        8.729475   -5.287682    1.999970
    128          1           0        6.629123   -4.986442    1.818365
    129          1           0        6.049342   -4.305814    0.248061
    130          1           0        5.380358   -2.298596    1.344921
    131          1           0        6.434839   -2.649711    2.690187
    132          1           0        4.270073   -4.754411    2.058655
    133          1           0        3.696588   -3.239095    2.248578
    134          1           0        5.443343   -3.536396    4.479077
    135          1           0        3.917817   -5.891502    4.872326
    136          1           0        5.604533   -5.665013    5.171268
    137          1           0        4.972918   -6.258968    3.557996
    138          1           0        3.030715   -4.121453    5.642278
    139          1           0        2.433804   -3.444314    4.205563
    140          1           0        3.505553   -2.542286    5.312348
 ---------------------------------------------------------------------

 SCF Done:  E(RZINDO/S) =  -474.000927502     A.U. after   20 cycles

 Excitation energies and oscillator strengths:

 Excited State   1:      Singlet-A      1.2705 eV  975.87 nm  f=0.5858  <S**2>=0.000
     175 ->178        -0.19381
     176 ->177         0.66119
 This state for optimization and/or second-order correction.
 Total Energy, E(CIS/TDA) =  -473.954237410
 Copying the excited state density for this state as the 1-particle RhoCI density.

 Excited State   2:      Singlet-A      1.8814 eV  659.01 nm  f=0.0343  <S**2>=0.000
     175 ->177         0.53984
     176 ->178         0.42845

 Excited State   3:      Singlet-A      2.9167 eV  425.09 nm  f=0.0173  <S**2>=0.000
     170 ->177         0.36689
     170 ->178         0.11832
     170 ->179        -0.34608
     170 ->180        -0.15590
     170 ->181        -0.21999
     170 ->183        -0.14556
     170 ->186         0.14909
     170 ->188        -0.17248
     170 ->202         0.11896
     176 ->179        -0.11899

 Excited State   4:      Singlet-A      2.9577 eV  419.19 nm  f=0.7178  <S**2>=0.000
     168 ->177         0.10380
     168 ->179         0.16536
     168 ->181        -0.12946
     168 ->186        -0.10418
     171 ->177         0.11364
     175 ->177        -0.31491
     176 ->178         0.43130
     176 ->179         0.17518
     176 ->180        -0.21556

 Excited State   5:      Singlet-A      2.9879 eV  414.96 nm  f=0.3521  <S**2>=0.000
     168 ->177         0.16796
     168 ->178         0.13599
     168 ->179         0.26961
     168 ->181        -0.20577
     168 ->183        -0.10556
     168 ->186        -0.15900
     175 ->177         0.22008
     176 ->178        -0.26387
     176 ->179         0.29763

 The electronic state is 1-A.
 Alpha  occ. eigenvalues --   -1.83175  -1.80940  -1.78451  -1.72781  -1.71595
 Alpha  occ. eigenvalues --   -1.69154  -1.65352  -1.60410  -1.59951  -1.58184
 Alpha  occ. eigenvalues --   -1.53438  -1.50663  -1.47986  -1.47633  -1.45917
 Alpha  occ. eigenvalues --   -1.44952  -1.42392  -1.40897  -1.39867  -1.38007
 Alpha  occ. eigenvalues --   -1.37204  -1.32523  -1.31542  -1.31014  -1.29132
 Alpha  occ. eigenvalues --   -1.27491  -1.26113  -1.22943  -1.20915  -1.18801
 Alpha  occ. eigenvalues --   -1.18203  -1.16749  -1.14960  -1.14817  -1.13673
 Alpha  occ. eigenvalues --   -1.13095  -1.10778  -1.10011  -1.04457  -1.03348
 Alpha  occ. eigenvalues --   -1.01536  -1.00766  -0.98659  -0.97660  -0.97269
 Alpha  occ. eigenvalues --   -0.95629  -0.95006  -0.94150  -0.92760  -0.92403
 Alpha  occ. eigenvalues --   -0.91787  -0.90514  -0.89181  -0.88992  -0.87956
 Alpha  occ. eigenvalues --   -0.86966  -0.84703  -0.83397  -0.81989  -0.79995
 Alpha  occ. eigenvalues --   -0.79242  -0.78281  -0.77180  -0.76544  -0.76279
 Alpha  occ. eigenvalues --   -0.75521  -0.75032  -0.74761  -0.74248  -0.73993
 Alpha  occ. eigenvalues --   -0.73201  -0.72387  -0.71841  -0.71321  -0.71067
 Alpha  occ. eigenvalues --   -0.70462  -0.69310  -0.68928  -0.68776  -0.67906
 Alpha  occ. eigenvalues --   -0.67358  -0.67308  -0.66614  -0.66432  -0.65736
 Alpha  occ. eigenvalues --   -0.65214  -0.64856  -0.64063  -0.63619  -0.63354
 Alpha  occ. eigenvalues --   -0.62840  -0.62699  -0.62469  -0.61852  -0.61698
 Alpha  occ. eigenvalues --   -0.61230  -0.60987  -0.60722  -0.60640  -0.59962
 Alpha  occ. eigenvalues --   -0.59766  -0.59265  -0.59032  -0.59008  -0.58507
 Alpha  occ. eigenvalues --   -0.58067  -0.57889  -0.57452  -0.56898  -0.56741
 Alpha  occ. eigenvalues --   -0.56703  -0.56385  -0.55624  -0.55358  -0.54807
 Alpha  occ. eigenvalues --   -0.54449  -0.53949  -0.53600  -0.53518  -0.53176
 Alpha  occ. eigenvalues --   -0.53045  -0.52589  -0.52190  -0.51709  -0.51532
 Alpha  occ. eigenvalues --   -0.51341  -0.51030  -0.50619  -0.50359  -0.49928
 Alpha  occ. eigenvalues --   -0.49637  -0.49535  -0.49409  -0.48965  -0.48787
 Alpha  occ. eigenvalues --   -0.48585  -0.48363  -0.48254  -0.47805  -0.47712
 Alpha  occ. eigenvalues --   -0.47515  -0.47115  -0.46917  -0.46716  -0.46560
 Alpha  occ. eigenvalues --   -0.46284  -0.46074  -0.45861  -0.45739  -0.45547
 Alpha  occ. eigenvalues --   -0.45131  -0.45013  -0.44942  -0.44274  -0.43995
 Alpha  occ. eigenvalues --   -0.43970  -0.43651  -0.42974  -0.42912  -0.42405
 Alpha  occ. eigenvalues --   -0.41871  -0.41833  -0.41447  -0.39163  -0.38713
 Alpha  occ. eigenvalues --   -0.38169  -0.37477  -0.36029  -0.34738  -0.34051
 Alpha  occ. eigenvalues --   -0.33507  -0.33113  -0.32336  -0.31834  -0.26764
 Alpha  occ. eigenvalues --   -0.22019
 Alpha virt. eigenvalues --   -0.08674  -0.02650  -0.00812   0.00827   0.01065
 Alpha virt. eigenvalues --    0.01230   0.02034   0.02729   0.04000   0.04479
 Alpha virt. eigenvalues --    0.06240   0.06694   0.06981   0.07184   0.07687

 Mulliken charges:
               1
     1  Mg   0.440328
     2  C   -0.020264
     3  C   -0.091754
     4  C   -0.088357
     5  C   -0.075506
     6  N   -0.294412
     7  C    0.114367
     8  C    0.002212
     9  C    0.014281
    10  C    0.134238
    11  C   -0.050499
    12  C   -0.024004
    13  C    0.011753
    14  C    0.466204
    15  O   -0.538865
    16  O   -0.267849
    17  N   -0.291793
    18  C    0.120410
    19  C    0.060765
    20  C   -0.058128
    21  C    0.129253
    22  C   -0.029207
    23  C    0.326635
    24  O   -0.514381
    25  C   -0.031418
    26  N   -0.271946
    27  C    0.140242
    28  C    0.000138
    29  C   -0.003121
    30  C    0.127666
    31  C   -0.052318
    32  C   -0.035538
    33  C   -0.055352
    34  N   -0.335318
    35  C    0.077437
    36  C    0.022634
    37  C   -0.056280
    38  C    0.111403
    39  C   -0.033811
    40  C    0.334518
    41  O   -0.553618
    42  C    0.060287
    43  C    0.492595
    44  O   -0.522827
    45  O   -0.271645
    46  C    0.069547
    47  C    0.098753
    48  C   -0.103847
    49  C    0.006354
    50  C   -0.045100
    51  C   -0.019404
    52  C   -0.036083
    53  C   -0.028654
    54  C   -0.017301
    55  C   -0.063694
    56  C   -0.035748
    57  C   -0.042250
    58  C   -0.044086
    59  C   -0.017922
    60  C   -0.063926
    61  C   -0.024631
    62  C   -0.030785
    63  C   -0.042676
    64  C   -0.007906
    65  C   -0.060237
    66  C   -0.057138
    67  H    0.025563
    68  H    0.020442
    69  H    0.029830
    70  H    0.041337
    71  H    0.033235
    72  H    0.017413
    73  H    0.035311
    74  H    0.019489
    75  H    0.034794
    76  H    0.012636
    77  H    0.047628
    78  H    0.060404
    79  H    0.024668
    80  H    0.047041
    81  H    0.050207
    82  H    0.031045
    83  H    0.037469
    84  H    0.033807
    85  H    0.031685
    86  H    0.034183
    87  H    0.025817
    88  H    0.027008
    89  H    0.020357
    90  H    0.016422
    91  H    0.020527
    92  H    0.029237
    93  H    0.024739
    94  H    0.016609
    95  H    0.034340
    96  H    0.027177
    97  H    0.024991
    98  H    0.041016
    99  H    0.036270
   100  H    0.036829
   101  H    0.057516
   102  H    0.043537
   103  H    0.055006
   104  H    0.016852
   105  H    0.029844
   106  H    0.027391
   107  H    0.031800
   108  H    0.015070
   109  H    0.026222
   110  H    0.014543
   111  H    0.024655
   112  H    0.016477
   113  H    0.030714
   114  H    0.024418
   115  H    0.023024
   116  H    0.024300
   117  H    0.018928
   118  H    0.026869
   119  H    0.012366
   120  H    0.016129
   121  H    0.021054
   122  H    0.018363
   123  H    0.006079
   124  H    0.017273
   125  H    0.026263
   126  H    0.023371
   127  H    0.020960
   128  H    0.023605
   129  H    0.021021
   130  H    0.017099
   131  H    0.020308
   132  H    0.017698
   133  H    0.005320
   134  H    0.015849
   135  H    0.010747
   136  H    0.020320
   137  H    0.027671
   138  H    0.009055
   139  H    0.020940
   140  H    0.019399
 Sum of Mulliken charges =  -0.00000

 Dipole moment (field-independent basis, Debye):
    X=              0.3091    Y=             -6.4253    Z=             -0.5899  Tot=              6.4597
 N-N= 4.483522857677D+03 E-N= 0.000000000000D+00  KE=-9.640747348912D+03
 Leave Link  601 at Tue May  3 16:54:14 2022, MaxMem=  6710886400 cpu:               1.3 elap:               0.1
 (Enter /sw/apps/gaussian-16.0/g16/l9999.exe)
 1\1\GINC-BP1-COMPUTE174\SP\RZINDO CIS\STO-3G\C55H74Mg1N4O6\OF15641\03-
 May-2022\0\\#p ZINDO=(nstates=5)\\step_1001_chromophore_23 ZINDO\\0,1\
 Mg,0,-10.768,39.74,42.765\C,0,-9.008,36.92,41.634\C,0,-8.556,41.59,40.
 953\C,0,-12.901,42.357,43.162\C,0,-13.376,37.608,43.91\N,0,-9.01,39.19
 9,41.29\C,0,-8.408,38.019,41.085\C,0,-7.081,38.086,40.189\C,0,-6.834,3
 9.672,40.285\C,0,-8.198,40.224,40.834\C,0,-5.63,40.078,41.129\C,0,-7.3
 22,37.552,38.744\C,0,-6.542,36.338,38.238\C,0,-5.944,36.521,36.9\O,0,-

 Normal termination of Gaussian 16 at Tue May  3 16:54:14 2022.
