 Gaussian 16, Revision A.03,
 Gaussian 16:  ES64L-G16RevA.03 25-Dec-2016

 ------------------------------
 #p blyp/Def2SVP td=(nstates=5)
 ------------------------------

 --------------------------------------------------
 step_351_chromophore_17 TDDFT with blyp functional
 --------------------------------------------------
 Symbolic Z-matrix:
 Charge =  0 Multiplicity = 1

                         Standard orientation:
 ---------------------------------------------------------------------
 Center     Atomic      Atomic             Coordinates (Angstroms)
 Number     Number       Type             X           Y           Z
 ---------------------------------------------------------------------
      1         12           0       -4.630589   -1.244492   -0.361457
      2          6           0       -4.252490    2.223206    0.308261
      3          6           0       -2.002307   -0.996864   -2.652404
      4          6           0       -4.306943   -4.666861   -0.476629
      5          6           0       -6.821208   -1.415392    2.377590
      6          7           0       -3.158059    0.399346   -0.948200
      7          6           0       -3.371381    1.737496   -0.729320
      8          6           0       -2.419298    2.573424   -1.659174
      9          6           0       -1.853563    1.524155   -2.678742
     10          6           0       -2.323159    0.186018   -2.049049
     11          6           0       -2.252123    1.811234   -4.201580
     12          6           0       -1.391502    3.440593   -0.900576
     13          6           0       -0.928644    4.685700   -1.699817
     14          6           0        0.528329    4.969828   -1.435715
     15          8           0        1.323828    5.139865   -2.350984
     16          8           0        0.825869    5.105209   -0.043645
     17          7           0       -3.355792   -2.666867   -1.468878
     18          6           0       -2.373272   -2.314917   -2.323280
     19          6           0       -1.641442   -3.502844   -2.819691
     20          6           0       -2.359659   -4.657521   -2.225425
     21          6           0       -3.412061   -4.023773   -1.319014
     22          6           0       -0.359929   -3.496417   -3.769708
     23          6           0       -1.993786   -6.125188   -2.403880
     24          8           0       -1.185233   -6.395486   -3.250562
     25          6           0       -2.708374   -7.158898   -1.823727
     26          7           0       -5.458931   -2.833671    0.840115
     27          6           0       -5.301413   -4.172058    0.441871
     28          6           0       -6.352282   -4.994134    1.231716
     29          6           0       -6.921510   -4.035654    2.300884
     30          6           0       -6.435537   -2.644161    1.811906
     31          6           0       -7.386110   -5.706670    0.205998
     32          6           0       -6.643378   -4.303763    3.786356
     33          6           0       -7.868422   -3.886814    4.676557
     34          7           0       -5.530273    0.071375    0.940086
     35          6           0       -6.412060   -0.114630    1.995816
     36          6           0       -6.765483    1.088363    2.467902
     37          6           0       -6.027837    2.107419    1.811640
     38          6           0       -5.245194    1.444048    0.949349
     39          6           0       -7.777484    1.437359    3.618380
     40          6           0       -5.763670    3.468140    1.720375
     41          8           0       -6.284706    4.423904    2.322882
     42          6           0       -4.581438    3.619265    0.677257
     43          6           0       -4.965589    4.424694   -0.507093
     44          8           0       -6.078531    4.374411   -1.090872
     45          8           0       -3.987282    5.358903   -0.860162
     46          6           0       -4.352076    6.333607   -1.829048
     47          6           0        2.130285    5.648807    0.398489
     48          6           0        3.095694    4.532700    0.835840
     49          6           0        4.398656    4.673520    1.254969
     50          6           0        5.134196    6.022497    1.412640
     51          6           0        5.176681    3.532642    1.711625
     52          6           0        6.265626    3.121547    0.733220
     53          6           0        6.119827    1.708294    0.093836
     54          6           0        7.388404    0.858959    0.352009
     55          6           0        7.706771    0.797432    1.876271
     56          6           0        7.117303   -0.578676   -0.215805
     57          6           0        7.663198   -0.673484   -1.659623
     58          6           0        8.603842   -1.908380   -1.949458
     59          6           0       10.043312   -1.613582   -1.515059
     60          6           0       10.944889   -1.382877   -2.801732
     61          6           0       10.696269   -2.620791   -0.540379
     62          6           0       10.812342   -2.188959    0.976042
     63          6           0       12.224379   -2.311933    1.472114
     64          6           0       12.438617   -2.768136    2.935146
     65          6           0       12.671714   -1.566936    3.903015
     66          6           0       13.619858   -3.748921    3.039704
     67          1           0       -1.244780   -0.884588   -3.430830
     68          1           0       -4.364088   -5.756944   -0.451474
     69          1           0       -7.492148   -1.605391    3.218619
     70          1           0       -3.059048    3.296593   -2.163420
     71          1           0       -0.763971    1.535092   -2.707137
     72          1           0       -1.420741    1.583381   -4.867830
     73          1           0       -2.512311    2.861990   -4.332882
     74          1           0       -3.128830    1.210021   -4.443268
     75          1           0       -0.484283    2.855370   -0.754491
     76          1           0       -1.677368    3.756935    0.103098
     77          1           0       -1.497045    5.547997   -1.352358
     78          1           0       -1.172812    4.414974   -2.727197
     79          1           0        0.193365   -4.430028   -3.869472
     80          1           0        0.318319   -2.770367   -3.321835
     81          1           0       -0.603583   -3.256995   -4.804937
     82          1           0       -2.764890   -6.991841   -0.747982
     83          1           0       -2.305604   -8.146566   -2.050134
     84          1           0       -3.679841   -7.200869   -2.315251
     85          1           0       -5.762259   -5.733249    1.773778
     86          1           0       -7.975775   -4.133021    2.041103
     87          1           0       -7.461578   -6.760301    0.471588
     88          1           0       -7.017202   -5.546377   -0.807468
     89          1           0       -8.361821   -5.220571    0.215024
     90          1           0       -5.773956   -3.740665    4.123350
     91          1           0       -6.585107   -5.385183    3.914893
     92          1           0       -7.505329   -3.112175    5.351460
     93          1           0       -8.307678   -4.719141    5.225866
     94          1           0       -8.585383   -3.384390    4.026988
     95          1           0       -7.212880    1.296818    4.539803
     96          1           0       -8.613189    0.737788    3.641783
     97          1           0       -8.101603    2.475096    3.553990
     98          1           0       -3.818579    4.123400    1.270253
     99          1           0       -5.255550    6.875823   -1.549314
    100          1           0       -4.413401    5.750763   -2.748371
    101          1           0       -3.481870    6.955656   -2.032949
    102          1           0        1.994185    6.201776    1.328054
    103          1           0        2.586891    6.369585   -0.280899
    104          1           0        2.631695    3.547655    0.874570
    105          1           0        5.297481    6.360858    2.435484
    106          1           0        4.716883    6.822510    0.799955
    107          1           0        6.175139    5.864712    1.129200
    108          1           0        4.432693    2.760196    1.905190
    109          1           0        5.683791    3.736993    2.655541
    110          1           0        7.222481    3.209838    1.248280
    111          1           0        6.318725    3.873153   -0.054946
    112          1           0        5.889428    1.819152   -0.965322
    113          1           0        5.240357    1.166364    0.443071
    114          1           0        8.209438    1.296981   -0.215146
    115          1           0        7.777552   -0.224966    2.245378
    116          1           0        7.016848    1.297377    2.555849
    117          1           0        8.629395    1.378012    1.878646
    118          1           0        6.046366   -0.771651   -0.283537
    119          1           0        7.485406   -1.394990    0.405633
    120          1           0        8.100175    0.296054   -1.898801
    121          1           0        6.919887   -0.915055   -2.419408
    122          1           0        8.426186   -2.250163   -2.969900
    123          1           0        8.314200   -2.747271   -1.317031
    124          1           0       10.115821   -0.589360   -1.147388
    125          1           0       10.382895   -1.466246   -3.731794
    126          1           0       11.649331   -2.213704   -2.826605
    127          1           0       11.553004   -0.484294   -2.692567
    128          1           0       11.657326   -2.966812   -0.918834
    129          1           0       10.033078   -3.486273   -0.537206
    130          1           0       10.210233   -2.803765    1.645286
    131          1           0       10.516778   -1.145443    1.084100
    132          1           0       12.526341   -1.275931    1.314197
    133          1           0       12.825554   -2.877071    0.759859
    134          1           0       11.524453   -3.133986    3.402627
    135          1           0       13.643334   -1.443127    4.382152
    136          1           0       12.098665   -1.949808    4.748521
    137          1           0       12.198692   -0.636307    3.587789
    138          1           0       13.311410   -4.630560    3.601954
    139          1           0       14.448171   -3.341392    3.618563
    140          1           0       14.002009   -4.014178    2.053735
 ---------------------------------------------------------------------

 SCF Done:  E(RB-LYP) =  -3007.32326370     A.U. after   21 cycles

 Excitation energies and oscillator strengths:

 Excited State   1:      Singlet-A      1.7019 eV  728.52 nm  f=0.0076  <S**2>=0.000
     244 -> 247        0.69123
     246 -> 247       -0.11984
 This state for optimization and/or second-order correction.
 Total Energy, E(TD-HF/TD-DFT) =  -3007.26072109
 Copying the excited state density for this state as the 1-particle RhoCI density.

 Excited State   2:      Singlet-A      1.7668 eV  701.74 nm  f=0.0038  <S**2>=0.000
     243 -> 247        0.69533

 Excited State   3:      Singlet-A      1.7976 eV  689.71 nm  f=0.2846  <S**2>=0.000
     244 -> 247        0.12495
     245 -> 248       -0.19449
     246 -> 247        0.67205
     246 <- 247       -0.14652

 Excited State   4:      Singlet-A      1.9714 eV  628.90 nm  f=0.0007  <S**2>=0.000
     242 -> 247        0.70641

 Excited State   5:      Singlet-A      1.9869 eV  624.02 nm  f=0.0819  <S**2>=0.000
     241 -> 247        0.12672
     245 -> 247        0.63544
     246 -> 248        0.22880

 The electronic state is 1-A.
 Alpha  occ. eigenvalues --  -46.28417 -18.82565 -18.81926 -18.77117 -18.77046
 Alpha  occ. eigenvalues --  -18.75251 -18.74910 -14.03881 -14.03554 -14.01940
 Alpha  occ. eigenvalues --  -14.00557 -10.04625 -10.04440  -9.99095  -9.99093
 Alpha  occ. eigenvalues --   -9.98412  -9.97896  -9.97786  -9.97721  -9.96983
 Alpha  occ. eigenvalues --   -9.96977  -9.96950  -9.96329  -9.95084  -9.95024
 Alpha  occ. eigenvalues --   -9.94756  -9.94683  -9.94447  -9.94384  -9.94351
 Alpha  occ. eigenvalues --   -9.94143  -9.94029  -9.93901  -9.93668  -9.93581
 Alpha  occ. eigenvalues --   -9.93552  -9.93487  -9.93451  -9.93168  -9.92980
 Alpha  occ. eigenvalues --   -9.92977  -9.92971  -9.92717  -9.92644  -9.92465
 Alpha  occ. eigenvalues --   -9.92294  -9.92066  -9.92022  -9.91987  -9.91945
 Alpha  occ. eigenvalues --   -9.91940  -9.91263  -9.91183  -9.91173  -9.91061
 Alpha  occ. eigenvalues --   -9.90927  -9.90831  -9.90751  -9.90736  -9.90727
 Alpha  occ. eigenvalues --   -9.90722  -9.90651  -9.90424  -9.90319  -9.90121
 Alpha  occ. eigenvalues --   -9.90110  -2.92799  -1.73201  -1.72686  -1.72520
 Alpha  occ. eigenvalues --   -0.97684  -0.95853  -0.92861  -0.90031  -0.89476
 Alpha  occ. eigenvalues --   -0.88894  -0.86265  -0.85750  -0.84821  -0.84212
 Alpha  occ. eigenvalues --   -0.76770  -0.73778  -0.72913  -0.72578  -0.72570
 Alpha  occ. eigenvalues --   -0.71968  -0.71778  -0.71071  -0.70525  -0.69532
 Alpha  occ. eigenvalues --   -0.69167  -0.68956  -0.68054  -0.67852  -0.67322
 Alpha  occ. eigenvalues --   -0.66954  -0.66417  -0.65916  -0.64974  -0.64521
 Alpha  occ. eigenvalues --   -0.63490  -0.62404  -0.62110  -0.61564  -0.61096
 Alpha  occ. eigenvalues --   -0.60486  -0.60085  -0.59921  -0.59285  -0.58869
 Alpha  occ. eigenvalues --   -0.58274  -0.57739  -0.57374  -0.55764  -0.54980
 Alpha  occ. eigenvalues --   -0.54402  -0.53351  -0.53046  -0.52138  -0.51906
 Alpha  occ. eigenvalues --   -0.51320  -0.51217  -0.50822  -0.50451  -0.49833
 Alpha  occ. eigenvalues --   -0.49437  -0.49177  -0.49160  -0.48774  -0.46701
 Alpha  occ. eigenvalues --   -0.46496  -0.46068  -0.45727  -0.45623  -0.45203
 Alpha  occ. eigenvalues --   -0.44423  -0.43908  -0.43198  -0.42719  -0.42302
 Alpha  occ. eigenvalues --   -0.42140  -0.41596  -0.41481  -0.41433  -0.41325
 Alpha  occ. eigenvalues --   -0.40955  -0.40889  -0.40384  -0.40332  -0.40133
 Alpha  occ. eigenvalues --   -0.40021  -0.39725  -0.39461  -0.39403  -0.39285
 Alpha  occ. eigenvalues --   -0.38944  -0.38859  -0.38768  -0.38592  -0.38164
 Alpha  occ. eigenvalues --   -0.38042  -0.37796  -0.37554  -0.37417  -0.37301
 Alpha  occ. eigenvalues --   -0.36874  -0.36816  -0.36679  -0.36613  -0.36451
 Alpha  occ. eigenvalues --   -0.36341  -0.36152  -0.36001  -0.35698  -0.35541
 Alpha  occ. eigenvalues --   -0.35405  -0.35162  -0.35015  -0.34877  -0.34757
 Alpha  occ. eigenvalues --   -0.34635  -0.34507  -0.34370  -0.34050  -0.33942
 Alpha  occ. eigenvalues --   -0.33784  -0.33528  -0.33518  -0.33278  -0.33060
 Alpha  occ. eigenvalues --   -0.32934  -0.32738  -0.32509  -0.32413  -0.32263
 Alpha  occ. eigenvalues --   -0.31816  -0.31530  -0.31419  -0.31380  -0.31129
 Alpha  occ. eigenvalues --   -0.31083  -0.30837  -0.30802  -0.30494  -0.30476
 Alpha  occ. eigenvalues --   -0.30407  -0.30247  -0.29949  -0.29873  -0.29804
 Alpha  occ. eigenvalues --   -0.29618  -0.29441  -0.29374  -0.29300  -0.29058
 Alpha  occ. eigenvalues --   -0.28709  -0.28565  -0.28348  -0.28259  -0.28068
 Alpha  occ. eigenvalues --   -0.27540  -0.27130  -0.26994  -0.26581  -0.26579
 Alpha  occ. eigenvalues --   -0.26505  -0.25919  -0.25542  -0.25536  -0.25085
 Alpha  occ. eigenvalues --   -0.25028  -0.24668  -0.24461  -0.23969  -0.23706
 Alpha  occ. eigenvalues --   -0.23070  -0.22660  -0.21802  -0.21546  -0.20569
 Alpha  occ. eigenvalues --   -0.20044  -0.19489  -0.18639  -0.18436  -0.17798
 Alpha  occ. eigenvalues --   -0.16486
 Alpha virt. eigenvalues --   -0.12245  -0.07488  -0.06420  -0.04587  -0.04078
 Alpha virt. eigenvalues --   -0.03538  -0.03144  -0.02019  -0.01722  -0.00305
 Alpha virt. eigenvalues --    0.00823   0.01824   0.01895   0.02412   0.02800

 Mulliken charges:
               1
     1  Mg   0.678198
     2  C   -0.030306
     3  C   -0.057692
     4  C   -0.041073
     5  C   -0.076168
     6  N   -0.220096
     7  C   -0.064405
     8  C    0.046992
     9  C   -0.008027
    10  C    0.035491
    11  C    0.108541
    12  C    0.081744
    13  C    0.156876
    14  C    0.076606
    15  O   -0.175180
    16  O   -0.314889
    17  N   -0.230499
    18  C    0.132653
    19  C   -0.129578
    20  C   -0.013968
    21  C    0.151689
    22  C    0.155590
    23  C   -0.091703
    24  O   -0.150666
    25  C    0.177376
    26  N   -0.261824
    27  C   -0.040213
    28  C   -0.013176
    29  C    0.039097
    30  C   -0.003860
    31  C    0.125097
    32  C    0.125747
    33  C    0.045133
    34  N   -0.312624
    35  C    0.191496
    36  C   -0.184454
    37  C    0.161899
    38  C    0.084467
    39  C    0.172064
    40  C   -0.108664
    41  O   -0.150523
    42  C    0.106836
    43  C    0.129072
    44  O   -0.205724
    45  O   -0.283760
    46  C    0.234417
    47  C    0.306482
    48  C   -0.111358
    49  C   -0.135471
    50  C    0.134360
    51  C    0.151552
    52  C    0.079613
    53  C    0.102473
    54  C   -0.116845
    55  C    0.112791
    56  C    0.141496
    57  C    0.043457
    58  C    0.109272
    59  C   -0.089481
    60  C    0.082955
    61  C    0.119496
    62  C    0.067837
    63  C    0.082816
    64  C   -0.071427
    65  C    0.081247
    66  C    0.112279
    67  H   -0.058370
    68  H   -0.071165
    69  H   -0.080353
    70  H   -0.022015
    71  H   -0.016435
    72  H    0.002148
    73  H   -0.000562
    74  H   -0.002678
    75  H   -0.020210
    76  H   -0.009327
    77  H    0.018831
    78  H   -0.014106
    79  H    0.007570
    80  H   -0.001450
    81  H    0.005812
    82  H    0.012824
    83  H   -0.015362
    84  H    0.017438
    85  H   -0.030946
    86  H   -0.037321
    87  H    0.008562
    88  H   -0.002066
    89  H   -0.004972
    90  H   -0.003578
    91  H   -0.019652
    92  H   -0.003724
    93  H    0.001040
    94  H    0.006556
    95  H   -0.003620
    96  H   -0.011141
    97  H    0.015507
    98  H    0.001032
    99  H    0.034807
   100  H   -0.005861
   101  H    0.007064
   102  H    0.004603
   103  H    0.010767
   104  H   -0.033767
   105  H   -0.004068
   106  H   -0.010679
   107  H   -0.025176
   108  H   -0.033067
   109  H   -0.034415
   110  H   -0.036535
   111  H   -0.022516
   112  H   -0.037668
   113  H   -0.037888
   114  H   -0.020284
   115  H   -0.007810
   116  H   -0.014837
   117  H   -0.009516
   118  H   -0.038500
   119  H   -0.031822
   120  H   -0.024168
   121  H   -0.040685
   122  H   -0.032327
   123  H   -0.045046
   124  H   -0.030926
   125  H   -0.015531
   126  H   -0.034138
   127  H   -0.011973
   128  H   -0.028816
   129  H   -0.038248
   130  H   -0.032577
   131  H   -0.024079
   132  H   -0.040687
   133  H   -0.034535
   134  H   -0.027213
   135  H   -0.013641
   136  H   -0.037229
   137  H   -0.010752
   138  H   -0.017286
   139  H   -0.020320
   140  H   -0.012477
 Sum of Mulliken charges =  -0.00000

 Dipole moment (field-independent basis, Debye):
    X=              0.0133    Y=             -3.3903    Z=              1.3991  Tot=              3.6676
 Quadrupole moment (field-independent basis, Debye-Ang):
   XX=           -405.5521   YY=           -400.6552   ZZ=           -407.2511
   XY=             54.6159   XZ=             11.0975   YZ=            -22.5531

 Normal termination of Gaussian 16 at Wed May  4 20:27:41 2022.
