 Gaussian 16, Revision A.03,
 Gaussian 16:  ES64L-G16RevA.03 25-Dec-2016

 -----------------------------------
 #p cam-b3lyp/Def2SVP td=(nstates=5)
 -----------------------------------

 -------------------------------------------------------
 step_351_chromophore_17 TDDFT with cam-b3lyp functional
 -------------------------------------------------------
 Symbolic Z-matrix:
 Charge =  0 Multiplicity = 1

                         Standard orientation:
 ---------------------------------------------------------------------
 Center     Atomic      Atomic             Coordinates (Angstroms)
 Number     Number       Type             X           Y           Z
 ---------------------------------------------------------------------
      1         12           0       -4.630589   -1.244492   -0.361457
      2          6           0       -4.252490    2.223206    0.308261
      3          6           0       -2.002307   -0.996864   -2.652404
      4          6           0       -4.306943   -4.666861   -0.476629
      5          6           0       -6.821208   -1.415392    2.377590
      6          7           0       -3.158059    0.399346   -0.948200
      7          6           0       -3.371381    1.737496   -0.729320
      8          6           0       -2.419298    2.573424   -1.659174
      9          6           0       -1.853563    1.524155   -2.678742
     10          6           0       -2.323159    0.186018   -2.049049
     11          6           0       -2.252123    1.811234   -4.201580
     12          6           0       -1.391502    3.440593   -0.900576
     13          6           0       -0.928644    4.685700   -1.699817
     14          6           0        0.528329    4.969828   -1.435715
     15          8           0        1.323828    5.139865   -2.350984
     16          8           0        0.825869    5.105209   -0.043645
     17          7           0       -3.355792   -2.666867   -1.468878
     18          6           0       -2.373272   -2.314917   -2.323280
     19          6           0       -1.641442   -3.502844   -2.819691
     20          6           0       -2.359659   -4.657521   -2.225425
     21          6           0       -3.412061   -4.023773   -1.319014
     22          6           0       -0.359929   -3.496417   -3.769708
     23          6           0       -1.993786   -6.125188   -2.403880
     24          8           0       -1.185233   -6.395486   -3.250562
     25          6           0       -2.708374   -7.158898   -1.823727
     26          7           0       -5.458931   -2.833671    0.840115
     27          6           0       -5.301413   -4.172058    0.441871
     28          6           0       -6.352282   -4.994134    1.231716
     29          6           0       -6.921510   -4.035654    2.300884
     30          6           0       -6.435537   -2.644161    1.811906
     31          6           0       -7.386110   -5.706670    0.205998
     32          6           0       -6.643378   -4.303763    3.786356
     33          6           0       -7.868422   -3.886814    4.676557
     34          7           0       -5.530273    0.071375    0.940086
     35          6           0       -6.412060   -0.114630    1.995816
     36          6           0       -6.765483    1.088363    2.467902
     37          6           0       -6.027837    2.107419    1.811640
     38          6           0       -5.245194    1.444048    0.949349
     39          6           0       -7.777484    1.437359    3.618380
     40          6           0       -5.763670    3.468140    1.720375
     41          8           0       -6.284706    4.423904    2.322882
     42          6           0       -4.581438    3.619265    0.677257
     43          6           0       -4.965589    4.424694   -0.507093
     44          8           0       -6.078531    4.374411   -1.090872
     45          8           0       -3.987282    5.358903   -0.860162
     46          6           0       -4.352076    6.333607   -1.829048
     47          6           0        2.130285    5.648807    0.398489
     48          6           0        3.095694    4.532700    0.835840
     49          6           0        4.398656    4.673520    1.254969
     50          6           0        5.134196    6.022497    1.412640
     51          6           0        5.176681    3.532642    1.711625
     52          6           0        6.265626    3.121547    0.733220
     53          6           0        6.119827    1.708294    0.093836
     54          6           0        7.388404    0.858959    0.352009
     55          6           0        7.706771    0.797432    1.876271
     56          6           0        7.117303   -0.578676   -0.215805
     57          6           0        7.663198   -0.673484   -1.659623
     58          6           0        8.603842   -1.908380   -1.949458
     59          6           0       10.043312   -1.613582   -1.515059
     60          6           0       10.944889   -1.382877   -2.801732
     61          6           0       10.696269   -2.620791   -0.540379
     62          6           0       10.812342   -2.188959    0.976042
     63          6           0       12.224379   -2.311933    1.472114
     64          6           0       12.438617   -2.768136    2.935146
     65          6           0       12.671714   -1.566936    3.903015
     66          6           0       13.619858   -3.748921    3.039704
     67          1           0       -1.244780   -0.884588   -3.430830
     68          1           0       -4.364088   -5.756944   -0.451474
     69          1           0       -7.492148   -1.605391    3.218619
     70          1           0       -3.059048    3.296593   -2.163420
     71          1           0       -0.763971    1.535092   -2.707137
     72          1           0       -1.420741    1.583381   -4.867830
     73          1           0       -2.512311    2.861990   -4.332882
     74          1           0       -3.128830    1.210021   -4.443268
     75          1           0       -0.484283    2.855370   -0.754491
     76          1           0       -1.677368    3.756935    0.103098
     77          1           0       -1.497045    5.547997   -1.352358
     78          1           0       -1.172812    4.414974   -2.727197
     79          1           0        0.193365   -4.430028   -3.869472
     80          1           0        0.318319   -2.770367   -3.321835
     81          1           0       -0.603583   -3.256995   -4.804937
     82          1           0       -2.764890   -6.991841   -0.747982
     83          1           0       -2.305604   -8.146566   -2.050134
     84          1           0       -3.679841   -7.200869   -2.315251
     85          1           0       -5.762259   -5.733249    1.773778
     86          1           0       -7.975775   -4.133021    2.041103
     87          1           0       -7.461578   -6.760301    0.471588
     88          1           0       -7.017202   -5.546377   -0.807468
     89          1           0       -8.361821   -5.220571    0.215024
     90          1           0       -5.773956   -3.740665    4.123350
     91          1           0       -6.585107   -5.385183    3.914893
     92          1           0       -7.505329   -3.112175    5.351460
     93          1           0       -8.307678   -4.719141    5.225866
     94          1           0       -8.585383   -3.384390    4.026988
     95          1           0       -7.212880    1.296818    4.539803
     96          1           0       -8.613189    0.737788    3.641783
     97          1           0       -8.101603    2.475096    3.553990
     98          1           0       -3.818579    4.123400    1.270253
     99          1           0       -5.255550    6.875823   -1.549314
    100          1           0       -4.413401    5.750763   -2.748371
    101          1           0       -3.481870    6.955656   -2.032949
    102          1           0        1.994185    6.201776    1.328054
    103          1           0        2.586891    6.369585   -0.280899
    104          1           0        2.631695    3.547655    0.874570
    105          1           0        5.297481    6.360858    2.435484
    106          1           0        4.716883    6.822510    0.799955
    107          1           0        6.175139    5.864712    1.129200
    108          1           0        4.432693    2.760196    1.905190
    109          1           0        5.683791    3.736993    2.655541
    110          1           0        7.222481    3.209838    1.248280
    111          1           0        6.318725    3.873153   -0.054946
    112          1           0        5.889428    1.819152   -0.965322
    113          1           0        5.240357    1.166364    0.443071
    114          1           0        8.209438    1.296981   -0.215146
    115          1           0        7.777552   -0.224966    2.245378
    116          1           0        7.016848    1.297377    2.555849
    117          1           0        8.629395    1.378012    1.878646
    118          1           0        6.046366   -0.771651   -0.283537
    119          1           0        7.485406   -1.394990    0.405633
    120          1           0        8.100175    0.296054   -1.898801
    121          1           0        6.919887   -0.915055   -2.419408
    122          1           0        8.426186   -2.250163   -2.969900
    123          1           0        8.314200   -2.747271   -1.317031
    124          1           0       10.115821   -0.589360   -1.147388
    125          1           0       10.382895   -1.466246   -3.731794
    126          1           0       11.649331   -2.213704   -2.826605
    127          1           0       11.553004   -0.484294   -2.692567
    128          1           0       11.657326   -2.966812   -0.918834
    129          1           0       10.033078   -3.486273   -0.537206
    130          1           0       10.210233   -2.803765    1.645286
    131          1           0       10.516778   -1.145443    1.084100
    132          1           0       12.526341   -1.275931    1.314197
    133          1           0       12.825554   -2.877071    0.759859
    134          1           0       11.524453   -3.133986    3.402627
    135          1           0       13.643334   -1.443127    4.382152
    136          1           0       12.098665   -1.949808    4.748521
    137          1           0       12.198692   -0.636307    3.587789
    138          1           0       13.311410   -4.630560    3.601954
    139          1           0       14.448171   -3.341392    3.618563
    140          1           0       14.002009   -4.014178    2.053735
 ---------------------------------------------------------------------

 SCF Done:  E(RCAM-B3LYP) =  -3007.10440666     A.U. after   18 cycles

 Excitation energies and oscillator strengths:

 Excited State   1:      Singlet-A      1.7280 eV  717.49 nm  f=0.3831  <S**2>=0.000
     245 -> 248       -0.17933
     246 -> 247        0.68534
     245 <- 248       -0.10708
 This state for optimization and/or second-order correction.
 Total Energy, E(TD-HF/TD-DFT) =  -3007.04090268
 Copying the excited state density for this state as the 1-particle RhoCI density.

 Excited State   2:      Singlet-A      2.1876 eV  566.77 nm  f=0.1283  <S**2>=0.000
     245 -> 247        0.64556
     246 -> 248        0.26850

 Excited State   3:      Singlet-A      3.0958 eV  400.49 nm  f=0.0087  <S**2>=0.000
     242 -> 247       -0.10316
     244 -> 247        0.67748

 Excited State   4:      Singlet-A      3.2895 eV  376.90 nm  f=0.0127  <S**2>=0.000
     241 -> 247        0.16308
     242 -> 247        0.65690
     246 -> 248       -0.11030

 Excited State   5:      Singlet-A      3.4183 eV  362.70 nm  f=0.0063  <S**2>=0.000
     241 -> 247        0.58015
     241 -> 249        0.21993
     241 -> 251       -0.20167
     242 -> 247       -0.13798
     242 -> 249       -0.10748

 The electronic state is 1-A.
 Alpha  occ. eigenvalues --  -46.90071 -19.25455 -19.24823 -19.20153 -19.20070
 Alpha  occ. eigenvalues --  -19.18428 -19.17918 -14.42728 -14.42598 -14.40753
 Alpha  occ. eigenvalues --  -14.38591 -10.40114 -10.39828 -10.34440 -10.34069
 Alpha  occ. eigenvalues --  -10.32819 -10.32461 -10.32172 -10.32032 -10.31807
 Alpha  occ. eigenvalues --  -10.31764 -10.31312 -10.31196 -10.30380 -10.28929
 Alpha  occ. eigenvalues --  -10.28835 -10.28621 -10.28611 -10.28507 -10.28434
 Alpha  occ. eigenvalues --  -10.28349 -10.28327 -10.28294 -10.27935 -10.27577
 Alpha  occ. eigenvalues --  -10.27508 -10.27470 -10.27186 -10.27172 -10.27036
 Alpha  occ. eigenvalues --  -10.26879 -10.26853 -10.26849 -10.26768 -10.26105
 Alpha  occ. eigenvalues --  -10.26081 -10.26046 -10.25981 -10.25812 -10.25656
 Alpha  occ. eigenvalues --  -10.25391 -10.25000 -10.24837 -10.24802 -10.24727
 Alpha  occ. eigenvalues --  -10.24638 -10.24450 -10.24427 -10.24426 -10.24402
 Alpha  occ. eigenvalues --  -10.24387 -10.24239 -10.24016 -10.23947 -10.23731
 Alpha  occ. eigenvalues --  -10.23569  -3.18342  -1.93225  -1.92793  -1.92642
 Alpha  occ. eigenvalues --   -1.16068  -1.14280  -1.11644  -1.07968  -1.07305
 Alpha  occ. eigenvalues --   -1.06729  -1.03946  -1.03400  -1.02465  -1.01805
 Alpha  occ. eigenvalues --   -0.93705  -0.90675  -0.89707  -0.89428  -0.89368
 Alpha  occ. eigenvalues --   -0.88704  -0.88477  -0.87693  -0.87103  -0.86222
 Alpha  occ. eigenvalues --   -0.85659  -0.85241  -0.84319  -0.84153  -0.83670
 Alpha  occ. eigenvalues --   -0.83291  -0.82467  -0.81708  -0.80842  -0.80325
 Alpha  occ. eigenvalues --   -0.79173  -0.77974  -0.77643  -0.77291  -0.76521
 Alpha  occ. eigenvalues --   -0.75846  -0.75513  -0.75261  -0.74568  -0.74141
 Alpha  occ. eigenvalues --   -0.73187  -0.72735  -0.72350  -0.70669  -0.69503
 Alpha  occ. eigenvalues --   -0.68946  -0.67897  -0.67803  -0.66505  -0.66056
 Alpha  occ. eigenvalues --   -0.65543  -0.65252  -0.65068  -0.64446  -0.63842
 Alpha  occ. eigenvalues --   -0.63153  -0.63112  -0.62849  -0.62696  -0.60311
 Alpha  occ. eigenvalues --   -0.60000  -0.59704  -0.59175  -0.59150  -0.58662
 Alpha  occ. eigenvalues --   -0.57737  -0.57309  -0.56745  -0.55842  -0.55339
 Alpha  occ. eigenvalues --   -0.55192  -0.54736  -0.54468  -0.54341  -0.54247
 Alpha  occ. eigenvalues --   -0.53804  -0.53552  -0.53076  -0.52982  -0.52739
 Alpha  occ. eigenvalues --   -0.52713  -0.52367  -0.52136  -0.51869  -0.51777
 Alpha  occ. eigenvalues --   -0.51696  -0.51357  -0.51132  -0.51065  -0.50659
 Alpha  occ. eigenvalues --   -0.50437  -0.50346  -0.50325  -0.49878  -0.49647
 Alpha  occ. eigenvalues --   -0.49481  -0.49165  -0.48905  -0.48762  -0.48695
 Alpha  occ. eigenvalues --   -0.48611  -0.48460  -0.48049  -0.47997  -0.47727
 Alpha  occ. eigenvalues --   -0.47672  -0.47285  -0.47117  -0.46812  -0.46740
 Alpha  occ. eigenvalues --   -0.46645  -0.46561  -0.46132  -0.46057  -0.45718
 Alpha  occ. eigenvalues --   -0.45509  -0.45234  -0.45143  -0.45010  -0.44803
 Alpha  occ. eigenvalues --   -0.44496  -0.44358  -0.44062  -0.43972  -0.43833
 Alpha  occ. eigenvalues --   -0.43463  -0.43237  -0.42897  -0.42821  -0.42650
 Alpha  occ. eigenvalues --   -0.42520  -0.42483  -0.42247  -0.42106  -0.41770
 Alpha  occ. eigenvalues --   -0.41755  -0.41693  -0.41501  -0.41404  -0.41060
 Alpha  occ. eigenvalues --   -0.41028  -0.40787  -0.40599  -0.40424  -0.40173
 Alpha  occ. eigenvalues --   -0.39882  -0.39630  -0.39274  -0.39229  -0.39014
 Alpha  occ. eigenvalues --   -0.38472  -0.38134  -0.38006  -0.37532  -0.37432
 Alpha  occ. eigenvalues --   -0.37297  -0.36793  -0.36760  -0.36422  -0.36224
 Alpha  occ. eigenvalues --   -0.35852  -0.35588  -0.34790  -0.34661  -0.34466
 Alpha  occ. eigenvalues --   -0.33738  -0.33565  -0.33483  -0.31540  -0.31241
 Alpha  occ. eigenvalues --   -0.30412  -0.30288  -0.28986  -0.28942  -0.24561
 Alpha  occ. eigenvalues --   -0.21976
 Alpha virt. eigenvalues --   -0.09509  -0.02435   0.00005   0.01419   0.02499
 Alpha virt. eigenvalues --    0.03863   0.04614   0.05172   0.05736   0.06697
 Alpha virt. eigenvalues --    0.07834   0.08122   0.08304   0.08611   0.09110

 Mulliken charges:
               1
     1  Mg   0.804513
     2  C   -0.051368
     3  C   -0.080616
     4  C   -0.071122
     5  C   -0.076674
     6  N   -0.288065
     7  C   -0.023303
     8  C   -0.002084
     9  C   -0.065467
    10  C    0.063200
    11  C    0.054766
    12  C    0.033383
    13  C    0.089320
    14  C    0.161737
    15  O   -0.215142
    16  O   -0.381771
    17  N   -0.317983
    18  C    0.146541
    19  C   -0.133384
    20  C   -0.073053
    21  C    0.183441
    22  C    0.105247
    23  C   -0.008271
    24  O   -0.189613
    25  C    0.076687
    26  N   -0.329329
    27  C   -0.008078
    28  C   -0.068475
    29  C   -0.014390
    30  C    0.014918
    31  C    0.066941
    32  C    0.063154
    33  C   -0.016815
    34  N   -0.403242
    35  C    0.184799
    36  C   -0.180581
    37  C    0.074119
    38  C    0.122626
    39  C    0.125170
    40  C   -0.007465
    41  O   -0.195130
    42  C    0.020720
    43  C    0.217566
    44  O   -0.241367
    45  O   -0.347883
    46  C    0.191231
    47  C    0.276594
    48  C   -0.130650
    49  C   -0.159936
    50  C    0.076636
    51  C    0.088956
    52  C    0.015165
    53  C    0.059741
    54  C   -0.173540
    55  C    0.054342
    56  C    0.084946
    57  C   -0.006011
    58  C    0.057149
    59  C   -0.146961
    60  C    0.031490
    61  C    0.064113
    62  C    0.020224
    63  C    0.028647
    64  C   -0.134704
    65  C    0.025390
    66  C    0.052889
    67  H   -0.021715
    68  H   -0.033800
    69  H   -0.043899
    70  H    0.009084
    71  H    0.018498
    72  H    0.025924
    73  H    0.022266
    74  H    0.023048
    75  H    0.008820
    76  H    0.022759
    77  H    0.048893
    78  H    0.016401
    79  H    0.040421
    80  H    0.024063
    81  H    0.033103
    82  H    0.039997
    83  H    0.024567
    84  H    0.047026
    85  H    0.004780
    86  H   -0.001277
    87  H    0.032382
    88  H    0.022515
    89  H    0.020758
    90  H    0.026807
    91  H    0.008767
    92  H    0.019964
    93  H    0.026020
    94  H    0.026326
    95  H    0.020522
    96  H    0.010490
    97  H    0.041862
    98  H    0.044712
    99  H    0.058863
   100  H    0.016310
   101  H    0.028618
   102  H    0.032596
   103  H    0.038760
   104  H   -0.000487
   105  H    0.022049
   106  H    0.012860
   107  H   -0.000618
   108  H   -0.002450
   109  H   -0.003222
   110  H   -0.007063
   111  H    0.007533
   112  H   -0.007649
   113  H   -0.010335
   114  H    0.008294
   115  H    0.015718
   116  H    0.007902
   117  H    0.012728
   118  H   -0.008452
   119  H   -0.005293
   120  H    0.001012
   121  H   -0.011037
   122  H   -0.003092
   123  H   -0.016824
   124  H   -0.001162
   125  H    0.007993
   126  H   -0.010795
   127  H    0.011319
   128  H   -0.000729
   129  H   -0.008576
   130  H   -0.005776
   131  H   -0.000608
   132  H   -0.011235
   133  H   -0.007239
   134  H    0.003848
   135  H    0.010457
   136  H   -0.012772
   137  H    0.012572
   138  H    0.007079
   139  H    0.003574
   140  H    0.011355
 Sum of Mulliken charges =  -0.00000

 Dipole moment (field-independent basis, Debye):
    X=              0.5049    Y=             -4.4563    Z=              0.7868  Tot=              4.5533
 Quadrupole moment (field-independent basis, Debye-Ang):
   XX=           -409.4918   YY=           -394.9567   ZZ=           -406.3239
   XY=             59.8580   XZ=             13.2423   YZ=            -22.2931

 Normal termination of Gaussian 16 at Wed May  4 18:51:30 2022.
