 Gaussian 16, Revision A.03,
 Gaussian 16:  ES64L-G16RevA.03 25-Dec-2016

 ---------------------------------
 #p PBE1PBE/Def2SVP td=(nstates=5)
 ---------------------------------

 -----------------------------------------------------
 step_351_chromophore_17 TDDFT with PBE1PBE functional
 -----------------------------------------------------
 Symbolic Z-matrix:
 Charge =  0 Multiplicity = 1

                         Standard orientation:
 ---------------------------------------------------------------------
 Center     Atomic      Atomic             Coordinates (Angstroms)
 Number     Number       Type             X           Y           Z
 ---------------------------------------------------------------------
      1         12           0       -4.630589   -1.244492   -0.361457
      2          6           0       -4.252490    2.223206    0.308261
      3          6           0       -2.002307   -0.996864   -2.652404
      4          6           0       -4.306943   -4.666861   -0.476629
      5          6           0       -6.821208   -1.415392    2.377590
      6          7           0       -3.158059    0.399346   -0.948200
      7          6           0       -3.371381    1.737496   -0.729320
      8          6           0       -2.419298    2.573424   -1.659174
      9          6           0       -1.853563    1.524155   -2.678742
     10          6           0       -2.323159    0.186018   -2.049049
     11          6           0       -2.252123    1.811234   -4.201580
     12          6           0       -1.391502    3.440593   -0.900576
     13          6           0       -0.928644    4.685700   -1.699817
     14          6           0        0.528329    4.969828   -1.435715
     15          8           0        1.323828    5.139865   -2.350984
     16          8           0        0.825869    5.105209   -0.043645
     17          7           0       -3.355792   -2.666867   -1.468878
     18          6           0       -2.373272   -2.314917   -2.323280
     19          6           0       -1.641442   -3.502844   -2.819691
     20          6           0       -2.359659   -4.657521   -2.225425
     21          6           0       -3.412061   -4.023773   -1.319014
     22          6           0       -0.359929   -3.496417   -3.769708
     23          6           0       -1.993786   -6.125188   -2.403880
     24          8           0       -1.185233   -6.395486   -3.250562
     25          6           0       -2.708374   -7.158898   -1.823727
     26          7           0       -5.458931   -2.833671    0.840115
     27          6           0       -5.301413   -4.172058    0.441871
     28          6           0       -6.352282   -4.994134    1.231716
     29          6           0       -6.921510   -4.035654    2.300884
     30          6           0       -6.435537   -2.644161    1.811906
     31          6           0       -7.386110   -5.706670    0.205998
     32          6           0       -6.643378   -4.303763    3.786356
     33          6           0       -7.868422   -3.886814    4.676557
     34          7           0       -5.530273    0.071375    0.940086
     35          6           0       -6.412060   -0.114630    1.995816
     36          6           0       -6.765483    1.088363    2.467902
     37          6           0       -6.027837    2.107419    1.811640
     38          6           0       -5.245194    1.444048    0.949349
     39          6           0       -7.777484    1.437359    3.618380
     40          6           0       -5.763670    3.468140    1.720375
     41          8           0       -6.284706    4.423904    2.322882
     42          6           0       -4.581438    3.619265    0.677257
     43          6           0       -4.965589    4.424694   -0.507093
     44          8           0       -6.078531    4.374411   -1.090872
     45          8           0       -3.987282    5.358903   -0.860162
     46          6           0       -4.352076    6.333607   -1.829048
     47          6           0        2.130285    5.648807    0.398489
     48          6           0        3.095694    4.532700    0.835840
     49          6           0        4.398656    4.673520    1.254969
     50          6           0        5.134196    6.022497    1.412640
     51          6           0        5.176681    3.532642    1.711625
     52          6           0        6.265626    3.121547    0.733220
     53          6           0        6.119827    1.708294    0.093836
     54          6           0        7.388404    0.858959    0.352009
     55          6           0        7.706771    0.797432    1.876271
     56          6           0        7.117303   -0.578676   -0.215805
     57          6           0        7.663198   -0.673484   -1.659623
     58          6           0        8.603842   -1.908380   -1.949458
     59          6           0       10.043312   -1.613582   -1.515059
     60          6           0       10.944889   -1.382877   -2.801732
     61          6           0       10.696269   -2.620791   -0.540379
     62          6           0       10.812342   -2.188959    0.976042
     63          6           0       12.224379   -2.311933    1.472114
     64          6           0       12.438617   -2.768136    2.935146
     65          6           0       12.671714   -1.566936    3.903015
     66          6           0       13.619858   -3.748921    3.039704
     67          1           0       -1.244780   -0.884588   -3.430830
     68          1           0       -4.364088   -5.756944   -0.451474
     69          1           0       -7.492148   -1.605391    3.218619
     70          1           0       -3.059048    3.296593   -2.163420
     71          1           0       -0.763971    1.535092   -2.707137
     72          1           0       -1.420741    1.583381   -4.867830
     73          1           0       -2.512311    2.861990   -4.332882
     74          1           0       -3.128830    1.210021   -4.443268
     75          1           0       -0.484283    2.855370   -0.754491
     76          1           0       -1.677368    3.756935    0.103098
     77          1           0       -1.497045    5.547997   -1.352358
     78          1           0       -1.172812    4.414974   -2.727197
     79          1           0        0.193365   -4.430028   -3.869472
     80          1           0        0.318319   -2.770367   -3.321835
     81          1           0       -0.603583   -3.256995   -4.804937
     82          1           0       -2.764890   -6.991841   -0.747982
     83          1           0       -2.305604   -8.146566   -2.050134
     84          1           0       -3.679841   -7.200869   -2.315251
     85          1           0       -5.762259   -5.733249    1.773778
     86          1           0       -7.975775   -4.133021    2.041103
     87          1           0       -7.461578   -6.760301    0.471588
     88          1           0       -7.017202   -5.546377   -0.807468
     89          1           0       -8.361821   -5.220571    0.215024
     90          1           0       -5.773956   -3.740665    4.123350
     91          1           0       -6.585107   -5.385183    3.914893
     92          1           0       -7.505329   -3.112175    5.351460
     93          1           0       -8.307678   -4.719141    5.225866
     94          1           0       -8.585383   -3.384390    4.026988
     95          1           0       -7.212880    1.296818    4.539803
     96          1           0       -8.613189    0.737788    3.641783
     97          1           0       -8.101603    2.475096    3.553990
     98          1           0       -3.818579    4.123400    1.270253
     99          1           0       -5.255550    6.875823   -1.549314
    100          1           0       -4.413401    5.750763   -2.748371
    101          1           0       -3.481870    6.955656   -2.032949
    102          1           0        1.994185    6.201776    1.328054
    103          1           0        2.586891    6.369585   -0.280899
    104          1           0        2.631695    3.547655    0.874570
    105          1           0        5.297481    6.360858    2.435484
    106          1           0        4.716883    6.822510    0.799955
    107          1           0        6.175139    5.864712    1.129200
    108          1           0        4.432693    2.760196    1.905190
    109          1           0        5.683791    3.736993    2.655541
    110          1           0        7.222481    3.209838    1.248280
    111          1           0        6.318725    3.873153   -0.054946
    112          1           0        5.889428    1.819152   -0.965322
    113          1           0        5.240357    1.166364    0.443071
    114          1           0        8.209438    1.296981   -0.215146
    115          1           0        7.777552   -0.224966    2.245378
    116          1           0        7.016848    1.297377    2.555849
    117          1           0        8.629395    1.378012    1.878646
    118          1           0        6.046366   -0.771651   -0.283537
    119          1           0        7.485406   -1.394990    0.405633
    120          1           0        8.100175    0.296054   -1.898801
    121          1           0        6.919887   -0.915055   -2.419408
    122          1           0        8.426186   -2.250163   -2.969900
    123          1           0        8.314200   -2.747271   -1.317031
    124          1           0       10.115821   -0.589360   -1.147388
    125          1           0       10.382895   -1.466246   -3.731794
    126          1           0       11.649331   -2.213704   -2.826605
    127          1           0       11.553004   -0.484294   -2.692567
    128          1           0       11.657326   -2.966812   -0.918834
    129          1           0       10.033078   -3.486273   -0.537206
    130          1           0       10.210233   -2.803765    1.645286
    131          1           0       10.516778   -1.145443    1.084100
    132          1           0       12.526341   -1.275931    1.314197
    133          1           0       12.825554   -2.877071    0.759859
    134          1           0       11.524453   -3.133986    3.402627
    135          1           0       13.643334   -1.443127    4.382152
    136          1           0       12.098665   -1.949808    4.748521
    137          1           0       12.198692   -0.636307    3.587789
    138          1           0       13.311410   -4.630560    3.601954
    139          1           0       14.448171   -3.341392    3.618563
    140          1           0       14.002009   -4.014178    2.053735
 ---------------------------------------------------------------------

 SCF Done:  E(RPBE1PBE) =  -3005.29227260     A.U. after   16 cycles

 Excitation energies and oscillator strengths:

 Excited State   1:      Singlet-A      1.8557 eV  668.11 nm  f=0.3652  <S**2>=0.000
     245 -> 248       -0.17869
     246 -> 247        0.69136
     246 <- 247       -0.10694
 This state for optimization and/or second-order correction.
 Total Energy, E(TD-HF/TD-DFT) =  -3005.22407516
 Copying the excited state density for this state as the 1-particle RhoCI density.

 Excited State   2:      Singlet-A      2.1968 eV  564.39 nm  f=0.1203  <S**2>=0.000
     245 -> 247        0.65512
     246 -> 248        0.24473

 Excited State   3:      Singlet-A      2.7558 eV  449.90 nm  f=0.0120  <S**2>=0.000
     241 -> 247       -0.17006
     243 -> 247        0.66562

 Excited State   4:      Singlet-A      2.8363 eV  437.13 nm  f=0.0001  <S**2>=0.000
     241 -> 247        0.31492
     242 -> 247        0.58548
     243 -> 247        0.16731

 Excited State   5:      Singlet-A      2.8779 eV  430.82 nm  f=0.0022  <S**2>=0.000
     240 -> 247        0.30154
     240 -> 249       -0.10121
     241 -> 247        0.52990
     242 -> 247       -0.29383

 The electronic state is 1-A.
 Alpha  occ. eigenvalues --  -46.93462 -19.26159 -19.25551 -19.20440 -19.20401
 Alpha  occ. eigenvalues --  -19.18502 -19.18401 -14.42313 -14.42080 -14.40180
 Alpha  occ. eigenvalues --  -14.38522 -10.37241 -10.36910 -10.31464 -10.31291
 Alpha  occ. eigenvalues --  -10.30332 -10.30091 -10.29882 -10.29348 -10.29289
 Alpha  occ. eigenvalues --  -10.29137 -10.29031 -10.28586 -10.27772 -10.26685
 Alpha  occ. eigenvalues --  -10.26656 -10.26601 -10.26422 -10.26384 -10.26248
 Alpha  occ. eigenvalues --  -10.26059 -10.26045 -10.25841 -10.25801 -10.25189
 Alpha  occ. eigenvalues --  -10.25017 -10.25013 -10.24844 -10.24831 -10.24735
 Alpha  occ. eigenvalues --  -10.24523 -10.24497 -10.24475 -10.24111 -10.23602
 Alpha  occ. eigenvalues --  -10.23588 -10.23529 -10.23369 -10.23324 -10.23219
 Alpha  occ. eigenvalues --  -10.23065 -10.22694 -10.22403 -10.22330 -10.22284
 Alpha  occ. eigenvalues --  -10.22208 -10.22012 -10.21982 -10.21961 -10.21897
 Alpha  occ. eigenvalues --  -10.21838 -10.21618 -10.21612 -10.21419 -10.21353
 Alpha  occ. eigenvalues --  -10.21267  -3.15320  -1.88141  -1.87688  -1.87542
 Alpha  occ. eigenvalues --   -1.10911  -1.09079  -1.06164  -1.02954  -1.02203
 Alpha  occ. eigenvalues --   -1.01628  -0.98543  -0.98105  -0.97042  -0.96383
 Alpha  occ. eigenvalues --   -0.88299  -0.84791  -0.83925  -0.83640  -0.83454
 Alpha  occ. eigenvalues --   -0.82964  -0.82578  -0.82005  -0.81209  -0.80318
 Alpha  occ. eigenvalues --   -0.79951  -0.79673  -0.78564  -0.78413  -0.77776
 Alpha  occ. eigenvalues --   -0.77452  -0.76650  -0.76107  -0.75113  -0.74609
 Alpha  occ. eigenvalues --   -0.73373  -0.72274  -0.71982  -0.71482  -0.70846
 Alpha  occ. eigenvalues --   -0.69977  -0.69789  -0.69345  -0.68700  -0.68285
 Alpha  occ. eigenvalues --   -0.67735  -0.67071  -0.66734  -0.64976  -0.63929
 Alpha  occ. eigenvalues --   -0.63499  -0.62164  -0.62071  -0.60748  -0.60583
 Alpha  occ. eigenvalues --   -0.59942  -0.59685  -0.59257  -0.59017  -0.57968
 Alpha  occ. eigenvalues --   -0.57620  -0.57470  -0.57287  -0.56875  -0.54866
 Alpha  occ. eigenvalues --   -0.54360  -0.54246  -0.53782  -0.53676  -0.53189
 Alpha  occ. eigenvalues --   -0.52447  -0.51735  -0.51126  -0.50341  -0.49936
 Alpha  occ. eigenvalues --   -0.49829  -0.49225  -0.48961  -0.48772  -0.48617
 Alpha  occ. eigenvalues --   -0.48308  -0.48148  -0.47734  -0.47547  -0.47251
 Alpha  occ. eigenvalues --   -0.47135  -0.46964  -0.46760  -0.46659  -0.46329
 Alpha  occ. eigenvalues --   -0.46215  -0.45876  -0.45769  -0.45606  -0.45359
 Alpha  occ. eigenvalues --   -0.44907  -0.44833  -0.44682  -0.44393  -0.44216
 Alpha  occ. eigenvalues --   -0.44058  -0.43840  -0.43557  -0.43402  -0.43280
 Alpha  occ. eigenvalues --   -0.43235  -0.43063  -0.42796  -0.42559  -0.42301
 Alpha  occ. eigenvalues --   -0.42200  -0.41888  -0.41778  -0.41462  -0.41368
 Alpha  occ. eigenvalues --   -0.41309  -0.41278  -0.40769  -0.40699  -0.40463
 Alpha  occ. eigenvalues --   -0.40328  -0.40067  -0.39802  -0.39737  -0.39548
 Alpha  occ. eigenvalues --   -0.39297  -0.39017  -0.38887  -0.38767  -0.38562
 Alpha  occ. eigenvalues --   -0.38139  -0.37987  -0.37701  -0.37573  -0.37466
 Alpha  occ. eigenvalues --   -0.37329  -0.37197  -0.37089  -0.36827  -0.36620
 Alpha  occ. eigenvalues --   -0.36560  -0.36450  -0.36363  -0.36303  -0.36040
 Alpha  occ. eigenvalues --   -0.35810  -0.35757  -0.35464  -0.35355  -0.34954
 Alpha  occ. eigenvalues --   -0.34900  -0.34536  -0.34239  -0.34031  -0.33788
 Alpha  occ. eigenvalues --   -0.33204  -0.33099  -0.32753  -0.32613  -0.32188
 Alpha  occ. eigenvalues --   -0.32054  -0.31772  -0.31690  -0.31417  -0.31119
 Alpha  occ. eigenvalues --   -0.30780  -0.30454  -0.30025  -0.29730  -0.29346
 Alpha  occ. eigenvalues --   -0.29080  -0.28477  -0.28394  -0.27185  -0.25834
 Alpha  occ. eigenvalues --   -0.25545  -0.25485  -0.24850  -0.24299  -0.21507
 Alpha  occ. eigenvalues --   -0.19536
 Alpha virt. eigenvalues --   -0.11938  -0.05909  -0.04166  -0.01986  -0.01413
 Alpha virt. eigenvalues --   -0.00862   0.00033   0.00805   0.01319   0.02694
 Alpha virt. eigenvalues --    0.03882   0.04537   0.04653   0.05318   0.05599

 Mulliken charges:
               1
     1  Mg   0.942854
     2  C   -0.051449
     3  C   -0.067889
     4  C   -0.073879
     5  C   -0.073856
     6  N   -0.383458
     7  C    0.045994
     8  C   -0.078962
     9  C   -0.134740
    10  C    0.096629
    11  C   -0.004391
    12  C   -0.013022
    13  C    0.002636
    14  C    0.229476
    15  O   -0.248877
    16  O   -0.411109
    17  N   -0.431243
    18  C    0.160810
    19  C   -0.149699
    20  C   -0.114807
    21  C    0.205746
    22  C    0.045422
    23  C    0.040714
    24  O   -0.226369
    25  C   -0.001781
    26  N   -0.425304
    27  C    0.033033
    28  C   -0.143762
    29  C   -0.089000
    30  C    0.060383
    31  C    0.007446
    32  C   -0.003312
    33  C   -0.088046
    34  N   -0.525325
    35  C    0.202561
    36  C   -0.197065
    37  C    0.024024
    38  C    0.170397
    39  C    0.073361
    40  C    0.091233
    41  O   -0.239154
    42  C   -0.096127
    43  C    0.305392
    44  O   -0.274579
    45  O   -0.379474
    46  C    0.136291
    47  C    0.237314
    48  C   -0.140966
    49  C   -0.205435
    50  C    0.017018
    51  C    0.024466
    52  C   -0.052522
    53  C    0.017505
    54  C   -0.270403
    55  C   -0.004792
    56  C    0.035712
    57  C   -0.070019
    58  C    0.002015
    59  C   -0.228998
    60  C   -0.025038
    61  C    0.009463
    62  C   -0.044999
    63  C   -0.023025
    64  C   -0.230442
    65  C   -0.032140
    66  C   -0.006140
    67  H    0.009511
    68  H   -0.001094
    69  H   -0.006477
    70  H    0.053163
    71  H    0.054689
    72  H    0.052284
    73  H    0.047575
    74  H    0.051351
    75  H    0.044086
    76  H    0.055117
    77  H    0.084440
    78  H    0.052327
    79  H    0.066252
    80  H    0.049964
    81  H    0.058969
    82  H    0.064817
    83  H    0.051874
    84  H    0.073873
    85  H    0.042553
    86  H    0.038475
    87  H    0.058790
    88  H    0.050754
    89  H    0.046594
    90  H    0.059234
    91  H    0.043546
    92  H    0.047389
    93  H    0.054149
    94  H    0.051452
    95  H    0.050791
    96  H    0.038804
    97  H    0.069007
    98  H    0.080915
    99  H    0.080299
   100  H    0.038931
   101  H    0.049973
   102  H    0.060201
   103  H    0.063482
   104  H    0.029027
   105  H    0.049443
   106  H    0.039763
   107  H    0.027162
   108  H    0.029117
   109  H    0.029799
   110  H    0.025823
   111  H    0.041086
   112  H    0.025586
   113  H    0.020968
   114  H    0.044538
   115  H    0.042656
   116  H    0.037368
   117  H    0.039274
   118  H    0.024583
   119  H    0.026319
   120  H    0.033014
   121  H    0.022465
   122  H    0.027457
   123  H    0.016708
   124  H    0.037871
   125  H    0.034831
   126  H    0.017138
   127  H    0.038156
   128  H    0.029405
   129  H    0.024649
   130  H    0.026296
   131  H    0.033443
   132  H    0.022605
   133  H    0.023895
   134  H    0.039924
   135  H    0.036937
   136  H    0.015311
   137  H    0.039917
   138  H    0.034866
   139  H    0.030411
   140  H    0.037832
 Sum of Mulliken charges =  -0.00000

 Dipole moment (field-independent basis, Debye):
    X=              0.1603    Y=             -4.0071    Z=              1.1619  Tot=              4.1752
 Quadrupole moment (field-independent basis, Debye-Ang):
   XX=           -403.0591   YY=           -392.7318   ZZ=           -402.7816
   XY=             59.1813   XZ=             10.9225   YZ=            -23.2372

 Normal termination of Gaussian 16 at Wed May  4 19:19:13 2022.
