 Gaussian 16, Revision A.03,
 Gaussian 16:  ES64L-G16RevA.03 25-Dec-2016

 --------------------------------
 #p wB97XD/Def2SVP td=(nstates=5)
 --------------------------------

 ----------------------------------------------------
 step_351_chromophore_17 TDDFT with wB97XD functional
 ----------------------------------------------------
 Symbolic Z-matrix:
 Charge =  0 Multiplicity = 1

                         Standard orientation:
 ---------------------------------------------------------------------
 Center     Atomic      Atomic             Coordinates (Angstroms)
 Number     Number       Type             X           Y           Z
 ---------------------------------------------------------------------
      1         12           0       -4.630589   -1.244492   -0.361457
      2          6           0       -4.252490    2.223206    0.308261
      3          6           0       -2.002307   -0.996864   -2.652404
      4          6           0       -4.306943   -4.666861   -0.476629
      5          6           0       -6.821208   -1.415392    2.377590
      6          7           0       -3.158059    0.399346   -0.948200
      7          6           0       -3.371381    1.737496   -0.729320
      8          6           0       -2.419298    2.573424   -1.659174
      9          6           0       -1.853563    1.524155   -2.678742
     10          6           0       -2.323159    0.186018   -2.049049
     11          6           0       -2.252123    1.811234   -4.201580
     12          6           0       -1.391502    3.440593   -0.900576
     13          6           0       -0.928644    4.685700   -1.699817
     14          6           0        0.528329    4.969828   -1.435715
     15          8           0        1.323828    5.139865   -2.350984
     16          8           0        0.825869    5.105209   -0.043645
     17          7           0       -3.355792   -2.666867   -1.468878
     18          6           0       -2.373272   -2.314917   -2.323280
     19          6           0       -1.641442   -3.502844   -2.819691
     20          6           0       -2.359659   -4.657521   -2.225425
     21          6           0       -3.412061   -4.023773   -1.319014
     22          6           0       -0.359929   -3.496417   -3.769708
     23          6           0       -1.993786   -6.125188   -2.403880
     24          8           0       -1.185233   -6.395486   -3.250562
     25          6           0       -2.708374   -7.158898   -1.823727
     26          7           0       -5.458931   -2.833671    0.840115
     27          6           0       -5.301413   -4.172058    0.441871
     28          6           0       -6.352282   -4.994134    1.231716
     29          6           0       -6.921510   -4.035654    2.300884
     30          6           0       -6.435537   -2.644161    1.811906
     31          6           0       -7.386110   -5.706670    0.205998
     32          6           0       -6.643378   -4.303763    3.786356
     33          6           0       -7.868422   -3.886814    4.676557
     34          7           0       -5.530273    0.071375    0.940086
     35          6           0       -6.412060   -0.114630    1.995816
     36          6           0       -6.765483    1.088363    2.467902
     37          6           0       -6.027837    2.107419    1.811640
     38          6           0       -5.245194    1.444048    0.949349
     39          6           0       -7.777484    1.437359    3.618380
     40          6           0       -5.763670    3.468140    1.720375
     41          8           0       -6.284706    4.423904    2.322882
     42          6           0       -4.581438    3.619265    0.677257
     43          6           0       -4.965589    4.424694   -0.507093
     44          8           0       -6.078531    4.374411   -1.090872
     45          8           0       -3.987282    5.358903   -0.860162
     46          6           0       -4.352076    6.333607   -1.829048
     47          6           0        2.130285    5.648807    0.398489
     48          6           0        3.095694    4.532700    0.835840
     49          6           0        4.398656    4.673520    1.254969
     50          6           0        5.134196    6.022497    1.412640
     51          6           0        5.176681    3.532642    1.711625
     52          6           0        6.265626    3.121547    0.733220
     53          6           0        6.119827    1.708294    0.093836
     54          6           0        7.388404    0.858959    0.352009
     55          6           0        7.706771    0.797432    1.876271
     56          6           0        7.117303   -0.578676   -0.215805
     57          6           0        7.663198   -0.673484   -1.659623
     58          6           0        8.603842   -1.908380   -1.949458
     59          6           0       10.043312   -1.613582   -1.515059
     60          6           0       10.944889   -1.382877   -2.801732
     61          6           0       10.696269   -2.620791   -0.540379
     62          6           0       10.812342   -2.188959    0.976042
     63          6           0       12.224379   -2.311933    1.472114
     64          6           0       12.438617   -2.768136    2.935146
     65          6           0       12.671714   -1.566936    3.903015
     66          6           0       13.619858   -3.748921    3.039704
     67          1           0       -1.244780   -0.884588   -3.430830
     68          1           0       -4.364088   -5.756944   -0.451474
     69          1           0       -7.492148   -1.605391    3.218619
     70          1           0       -3.059048    3.296593   -2.163420
     71          1           0       -0.763971    1.535092   -2.707137
     72          1           0       -1.420741    1.583381   -4.867830
     73          1           0       -2.512311    2.861990   -4.332882
     74          1           0       -3.128830    1.210021   -4.443268
     75          1           0       -0.484283    2.855370   -0.754491
     76          1           0       -1.677368    3.756935    0.103098
     77          1           0       -1.497045    5.547997   -1.352358
     78          1           0       -1.172812    4.414974   -2.727197
     79          1           0        0.193365   -4.430028   -3.869472
     80          1           0        0.318319   -2.770367   -3.321835
     81          1           0       -0.603583   -3.256995   -4.804937
     82          1           0       -2.764890   -6.991841   -0.747982
     83          1           0       -2.305604   -8.146566   -2.050134
     84          1           0       -3.679841   -7.200869   -2.315251
     85          1           0       -5.762259   -5.733249    1.773778
     86          1           0       -7.975775   -4.133021    2.041103
     87          1           0       -7.461578   -6.760301    0.471588
     88          1           0       -7.017202   -5.546377   -0.807468
     89          1           0       -8.361821   -5.220571    0.215024
     90          1           0       -5.773956   -3.740665    4.123350
     91          1           0       -6.585107   -5.385183    3.914893
     92          1           0       -7.505329   -3.112175    5.351460
     93          1           0       -8.307678   -4.719141    5.225866
     94          1           0       -8.585383   -3.384390    4.026988
     95          1           0       -7.212880    1.296818    4.539803
     96          1           0       -8.613189    0.737788    3.641783
     97          1           0       -8.101603    2.475096    3.553990
     98          1           0       -3.818579    4.123400    1.270253
     99          1           0       -5.255550    6.875823   -1.549314
    100          1           0       -4.413401    5.750763   -2.748371
    101          1           0       -3.481870    6.955656   -2.032949
    102          1           0        1.994185    6.201776    1.328054
    103          1           0        2.586891    6.369585   -0.280899
    104          1           0        2.631695    3.547655    0.874570
    105          1           0        5.297481    6.360858    2.435484
    106          1           0        4.716883    6.822510    0.799955
    107          1           0        6.175139    5.864712    1.129200
    108          1           0        4.432693    2.760196    1.905190
    109          1           0        5.683791    3.736993    2.655541
    110          1           0        7.222481    3.209838    1.248280
    111          1           0        6.318725    3.873153   -0.054946
    112          1           0        5.889428    1.819152   -0.965322
    113          1           0        5.240357    1.166364    0.443071
    114          1           0        8.209438    1.296981   -0.215146
    115          1           0        7.777552   -0.224966    2.245378
    116          1           0        7.016848    1.297377    2.555849
    117          1           0        8.629395    1.378012    1.878646
    118          1           0        6.046366   -0.771651   -0.283537
    119          1           0        7.485406   -1.394990    0.405633
    120          1           0        8.100175    0.296054   -1.898801
    121          1           0        6.919887   -0.915055   -2.419408
    122          1           0        8.426186   -2.250163   -2.969900
    123          1           0        8.314200   -2.747271   -1.317031
    124          1           0       10.115821   -0.589360   -1.147388
    125          1           0       10.382895   -1.466246   -3.731794
    126          1           0       11.649331   -2.213704   -2.826605
    127          1           0       11.553004   -0.484294   -2.692567
    128          1           0       11.657326   -2.966812   -0.918834
    129          1           0       10.033078   -3.486273   -0.537206
    130          1           0       10.210233   -2.803765    1.645286
    131          1           0       10.516778   -1.145443    1.084100
    132          1           0       12.526341   -1.275931    1.314197
    133          1           0       12.825554   -2.877071    0.759859
    134          1           0       11.524453   -3.133986    3.402627
    135          1           0       13.643334   -1.443127    4.382152
    136          1           0       12.098665   -1.949808    4.748521
    137          1           0       12.198692   -0.636307    3.587789
    138          1           0       13.311410   -4.630560    3.601954
    139          1           0       14.448171   -3.341392    3.618563
    140          1           0       14.002009   -4.014178    2.053735
 ---------------------------------------------------------------------

 SCF Done:  E(RwB97XD) =  -3007.80253592     A.U. after   20 cycles

 Excitation energies and oscillator strengths:

 Excited State   1:      Singlet-A      1.6816 eV  737.32 nm  f=0.3824  <S**2>=0.000
     245 -> 248       -0.18254
     246 -> 247        0.68363
     245 <- 248       -0.11530
 This state for optimization and/or second-order correction.
 Total Energy, E(TD-HF/TD-DFT) =  -3007.74074003
 Copying the excited state density for this state as the 1-particle RhoCI density.

 Excited State   2:      Singlet-A      2.1355 eV  580.60 nm  f=0.1236  <S**2>=0.000
     245 -> 247        0.64251
     246 -> 248        0.27219

 Excited State   3:      Singlet-A      3.1292 eV  396.21 nm  f=0.0088  <S**2>=0.000
     241 -> 247       -0.12895
     243 -> 247        0.66583

 Excited State   4:      Singlet-A      3.3187 eV  373.59 nm  f=0.0140  <S**2>=0.000
     241 -> 247        0.63579
     242 -> 247       -0.17725
     243 -> 247        0.11184
     246 -> 248       -0.14445

 Excited State   5:      Singlet-A      3.4659 eV  357.72 nm  f=0.0002  <S**2>=0.000
     240 -> 247        0.52312
     240 -> 248        0.12795
     240 -> 249       -0.30110
     240 -> 251       -0.13303
     242 -> 247        0.19616

 The electronic state is 1-A.
 Alpha  occ. eigenvalues --  -46.96415 -19.30649 -19.30082 -19.25113 -19.24995
 Alpha  occ. eigenvalues --  -19.23491 -19.22920 -14.47316 -14.47228 -14.45381
 Alpha  occ. eigenvalues --  -14.43187 -10.43953 -10.43681 -10.38398 -10.38030
 Alpha  occ. eigenvalues --  -10.36944 -10.36354 -10.36182 -10.36180 -10.35908
 Alpha  occ. eigenvalues --  -10.35481 -10.35448 -10.35192 -10.34673 -10.33002
 Alpha  occ. eigenvalues --  -10.32914 -10.32831 -10.32575 -10.32535 -10.32520
 Alpha  occ. eigenvalues --  -10.32458 -10.32286 -10.32273 -10.31976 -10.31532
 Alpha  occ. eigenvalues --  -10.31479 -10.31395 -10.31233 -10.31098 -10.30934
 Alpha  occ. eigenvalues --  -10.30879 -10.30843 -10.30831 -10.30788 -10.29988
 Alpha  occ. eigenvalues --  -10.29985 -10.29920 -10.29815 -10.29802 -10.29608
 Alpha  occ. eigenvalues --  -10.29222 -10.28978 -10.28772 -10.28710 -10.28658
 Alpha  occ. eigenvalues --  -10.28574 -10.28382 -10.28351 -10.28334 -10.28277
 Alpha  occ. eigenvalues --  -10.28264 -10.28045 -10.27835 -10.27777 -10.27632
 Alpha  occ. eigenvalues --  -10.27489  -3.22170  -1.95732  -1.95280  -1.95129
 Alpha  occ. eigenvalues --   -1.18215  -1.16455  -1.13901  -1.10124  -1.09533
 Alpha  occ. eigenvalues --   -1.08892  -1.06011  -1.05424  -1.04464  -1.03826
 Alpha  occ. eigenvalues --   -0.95667  -0.92461  -0.91555  -0.91365  -0.91127
 Alpha  occ. eigenvalues --   -0.90611  -0.90246  -0.89631  -0.88877  -0.88197
 Alpha  occ. eigenvalues --   -0.87609  -0.87145  -0.86262  -0.86066  -0.85534
 Alpha  occ. eigenvalues --   -0.85199  -0.84308  -0.83636  -0.82746  -0.82218
 Alpha  occ. eigenvalues --   -0.81020  -0.79880  -0.79588  -0.79242  -0.78446
 Alpha  occ. eigenvalues --   -0.77664  -0.77490  -0.77044  -0.76389  -0.75965
 Alpha  occ. eigenvalues --   -0.75131  -0.74673  -0.74317  -0.72614  -0.71417
 Alpha  occ. eigenvalues --   -0.70941  -0.69874  -0.69746  -0.68375  -0.68038
 Alpha  occ. eigenvalues --   -0.67486  -0.67218  -0.66914  -0.66456  -0.65644
 Alpha  occ. eigenvalues --   -0.65095  -0.64947  -0.64818  -0.64524  -0.62309
 Alpha  occ. eigenvalues --   -0.61880  -0.61724  -0.61139  -0.61119  -0.60584
 Alpha  occ. eigenvalues --   -0.59742  -0.59242  -0.58722  -0.57694  -0.57293
 Alpha  occ. eigenvalues --   -0.57130  -0.56655  -0.56434  -0.56275  -0.56154
 Alpha  occ. eigenvalues --   -0.55717  -0.55457  -0.54993  -0.54911  -0.54636
 Alpha  occ. eigenvalues --   -0.54560  -0.54334  -0.54062  -0.53817  -0.53680
 Alpha  occ. eigenvalues --   -0.53630  -0.53226  -0.53062  -0.52950  -0.52570
 Alpha  occ. eigenvalues --   -0.52435  -0.52309  -0.52214  -0.51790  -0.51528
 Alpha  occ. eigenvalues --   -0.51374  -0.51069  -0.50831  -0.50676  -0.50629
 Alpha  occ. eigenvalues --   -0.50514  -0.50341  -0.49965  -0.49876  -0.49713
 Alpha  occ. eigenvalues --   -0.49515  -0.49219  -0.49054  -0.48704  -0.48626
 Alpha  occ. eigenvalues --   -0.48601  -0.48453  -0.48006  -0.47988  -0.47634
 Alpha  occ. eigenvalues --   -0.47368  -0.47139  -0.46978  -0.46943  -0.46722
 Alpha  occ. eigenvalues --   -0.46402  -0.46216  -0.46028  -0.45873  -0.45728
 Alpha  occ. eigenvalues --   -0.45423  -0.45147  -0.44810  -0.44716  -0.44624
 Alpha  occ. eigenvalues --   -0.44463  -0.44361  -0.44266  -0.44091  -0.43714
 Alpha  occ. eigenvalues --   -0.43664  -0.43569  -0.43423  -0.43335  -0.43024
 Alpha  occ. eigenvalues --   -0.42894  -0.42652  -0.42484  -0.42323  -0.42032
 Alpha  occ. eigenvalues --   -0.41760  -0.41525  -0.41134  -0.41116  -0.40855
 Alpha  occ. eigenvalues --   -0.40309  -0.40124  -0.39850  -0.39649  -0.39258
 Alpha  occ. eigenvalues --   -0.39128  -0.38708  -0.38696  -0.38407  -0.38090
 Alpha  occ. eigenvalues --   -0.37741  -0.37433  -0.36810  -0.36632  -0.36298
 Alpha  occ. eigenvalues --   -0.35869  -0.35524  -0.35327  -0.33752  -0.33220
 Alpha  occ. eigenvalues --   -0.32576  -0.32310  -0.31052  -0.31005  -0.26488
 Alpha  occ. eigenvalues --   -0.23787
 Alpha virt. eigenvalues --   -0.07858  -0.00532   0.02086   0.04545   0.04609
 Alpha virt. eigenvalues --    0.06042   0.06855   0.07556   0.08026   0.09283
 Alpha virt. eigenvalues --    0.10609   0.11059   0.11294   0.12010   0.12236

 Mulliken charges:
               1
     1  Mg   0.936425
     2  C   -0.058106
     3  C   -0.090152
     4  C   -0.089488
     5  C   -0.080635
     6  N   -0.354262
     7  C    0.016395
     8  C   -0.041523
     9  C   -0.116002
    10  C    0.087434
    11  C    0.008100
    12  C   -0.004853
    13  C    0.027058
    14  C    0.219784
    15  O   -0.245873
    16  O   -0.410621
    17  N   -0.398613
    18  C    0.161128
    19  C   -0.147409
    20  C   -0.110748
    21  C    0.206949
    22  C    0.060086
    23  C    0.042093
    24  O   -0.220758
    25  C    0.006804
    26  N   -0.396068
    27  C    0.023597
    28  C   -0.121382
    29  C   -0.056562
    30  C    0.039895
    31  C    0.020061
    32  C    0.009226
    33  C   -0.072481
    34  N   -0.492202
    35  C    0.192970
    36  C   -0.196296
    37  C    0.028000
    38  C    0.153618
    39  C    0.084107
    40  C    0.070497
    41  O   -0.231782
    42  C   -0.056739
    43  C    0.282601
    44  O   -0.269191
    45  O   -0.376509
    46  C    0.148675
    47  C    0.250165
    48  C   -0.150207
    49  C   -0.190342
    50  C    0.029130
    51  C    0.042722
    52  C   -0.033907
    53  C    0.026869
    54  C   -0.231817
    55  C    0.006944
    56  C    0.046502
    57  C   -0.050010
    58  C    0.018689
    59  C   -0.203337
    60  C   -0.011564
    61  C    0.027895
    62  C   -0.024747
    63  C   -0.006528
    64  C   -0.200966
    65  C   -0.021236
    66  C    0.006748
    67  H    0.004140
    68  H   -0.010042
    69  H   -0.018466
    70  H    0.030357
    71  H    0.045372
    72  H    0.047730
    73  H    0.042599
    74  H    0.044973
    75  H    0.033239
    76  H    0.047484
    77  H    0.074447
    78  H    0.042374
    79  H    0.064385
    80  H    0.045313
    81  H    0.056007
    82  H    0.060164
    83  H    0.052324
    84  H    0.069605
    85  H    0.032113
    86  H    0.022784
    87  H    0.054434
    88  H    0.043042
    89  H    0.042236
    90  H    0.052238
    91  H    0.034556
    92  H    0.042057
    93  H    0.050144
    94  H    0.043926
    95  H    0.043532
    96  H    0.031678
    97  H    0.065123
    98  H    0.075426
    99  H    0.077630
   100  H    0.033925
   101  H    0.046502
   102  H    0.055162
   103  H    0.059294
   104  H    0.025901
   105  H    0.044650
   106  H    0.034544
   107  H    0.020265
   108  H    0.020021
   109  H    0.022494
   110  H    0.015477
   111  H    0.031682
   112  H    0.018126
   113  H    0.010189
   114  H    0.030551
   115  H    0.037174
   116  H    0.029272
   117  H    0.033111
   118  H    0.016133
   119  H    0.014676
   120  H    0.021456
   121  H    0.014993
   122  H    0.020848
   123  H    0.004969
   124  H    0.021091
   125  H    0.028729
   126  H    0.009401
   127  H    0.033378
   128  H    0.018590
   129  H    0.015445
   130  H    0.016830
   131  H    0.021129
   132  H    0.013113
   133  H    0.012133
   134  H    0.028739
   135  H    0.031098
   136  H    0.008639
   137  H    0.034122
   138  H    0.029413
   139  H    0.023691
   140  H    0.031869
 Sum of Mulliken charges =  -0.00000

 Dipole moment (field-independent basis, Debye):
    X=              0.5564    Y=             -4.6568    Z=              0.6844  Tot=              4.7396
 Quadrupole moment (field-independent basis, Debye-Ang):
   XX=           -406.1827   YY=           -390.2425   ZZ=           -402.4371
   XY=             61.1400   XZ=             13.2190   YZ=            -22.1686

 Normal termination of Gaussian 16 at Wed May  4 20:05:36 2022.
