 Gaussian 16, Revision A.03,
 Gaussian 16:  ES64L-G16RevA.03 25-Dec-2016

 --------------------
 #p ZINDO=(nstates=5)
 --------------------

 -----------------------------
 step_351_chromophore_17 ZINDO
 -----------------------------
 Symbolic Z-matrix:
 Charge =  0 Multiplicity = 1

                         Standard orientation:
 ---------------------------------------------------------------------
 Center     Atomic      Atomic             Coordinates (Angstroms)
 Number     Number       Type             X           Y           Z
 ---------------------------------------------------------------------
      1         12           0       -4.630589   -1.244492   -0.361457
      2          6           0       -4.252490    2.223206    0.308261
      3          6           0       -2.002307   -0.996864   -2.652404
      4          6           0       -4.306943   -4.666861   -0.476629
      5          6           0       -6.821208   -1.415392    2.377590
      6          7           0       -3.158059    0.399346   -0.948200
      7          6           0       -3.371381    1.737496   -0.729320
      8          6           0       -2.419298    2.573424   -1.659174
      9          6           0       -1.853563    1.524155   -2.678742
     10          6           0       -2.323159    0.186018   -2.049049
     11          6           0       -2.252123    1.811234   -4.201580
     12          6           0       -1.391502    3.440593   -0.900576
     13          6           0       -0.928644    4.685700   -1.699817
     14          6           0        0.528329    4.969828   -1.435715
     15          8           0        1.323828    5.139865   -2.350984
     16          8           0        0.825869    5.105209   -0.043645
     17          7           0       -3.355792   -2.666867   -1.468878
     18          6           0       -2.373272   -2.314917   -2.323280
     19          6           0       -1.641442   -3.502844   -2.819691
     20          6           0       -2.359659   -4.657521   -2.225425
     21          6           0       -3.412061   -4.023773   -1.319014
     22          6           0       -0.359929   -3.496417   -3.769708
     23          6           0       -1.993786   -6.125188   -2.403880
     24          8           0       -1.185233   -6.395486   -3.250562
     25          6           0       -2.708374   -7.158898   -1.823727
     26          7           0       -5.458931   -2.833671    0.840115
     27          6           0       -5.301413   -4.172058    0.441871
     28          6           0       -6.352282   -4.994134    1.231716
     29          6           0       -6.921510   -4.035654    2.300884
     30          6           0       -6.435537   -2.644161    1.811906
     31          6           0       -7.386110   -5.706670    0.205998
     32          6           0       -6.643378   -4.303763    3.786356
     33          6           0       -7.868422   -3.886814    4.676557
     34          7           0       -5.530273    0.071375    0.940086
     35          6           0       -6.412060   -0.114630    1.995816
     36          6           0       -6.765483    1.088363    2.467902
     37          6           0       -6.027837    2.107419    1.811640
     38          6           0       -5.245194    1.444048    0.949349
     39          6           0       -7.777484    1.437359    3.618380
     40          6           0       -5.763670    3.468140    1.720375
     41          8           0       -6.284706    4.423904    2.322882
     42          6           0       -4.581438    3.619265    0.677257
     43          6           0       -4.965589    4.424694   -0.507093
     44          8           0       -6.078531    4.374411   -1.090872
     45          8           0       -3.987282    5.358903   -0.860162
     46          6           0       -4.352076    6.333607   -1.829048
     47          6           0        2.130285    5.648807    0.398489
     48          6           0        3.095694    4.532700    0.835840
     49          6           0        4.398656    4.673520    1.254969
     50          6           0        5.134196    6.022497    1.412640
     51          6           0        5.176681    3.532642    1.711625
     52          6           0        6.265626    3.121547    0.733220
     53          6           0        6.119827    1.708294    0.093836
     54          6           0        7.388404    0.858959    0.352009
     55          6           0        7.706771    0.797432    1.876271
     56          6           0        7.117303   -0.578676   -0.215805
     57          6           0        7.663198   -0.673484   -1.659623
     58          6           0        8.603842   -1.908380   -1.949458
     59          6           0       10.043312   -1.613582   -1.515059
     60          6           0       10.944889   -1.382877   -2.801732
     61          6           0       10.696269   -2.620791   -0.540379
     62          6           0       10.812342   -2.188959    0.976042
     63          6           0       12.224379   -2.311933    1.472114
     64          6           0       12.438617   -2.768136    2.935146
     65          6           0       12.671714   -1.566936    3.903015
     66          6           0       13.619858   -3.748921    3.039704
     67          1           0       -1.244780   -0.884588   -3.430830
     68          1           0       -4.364088   -5.756944   -0.451474
     69          1           0       -7.492148   -1.605391    3.218619
     70          1           0       -3.059048    3.296593   -2.163420
     71          1           0       -0.763971    1.535092   -2.707137
     72          1           0       -1.420741    1.583381   -4.867830
     73          1           0       -2.512311    2.861990   -4.332882
     74          1           0       -3.128830    1.210021   -4.443268
     75          1           0       -0.484283    2.855370   -0.754491
     76          1           0       -1.677368    3.756935    0.103098
     77          1           0       -1.497045    5.547997   -1.352358
     78          1           0       -1.172812    4.414974   -2.727197
     79          1           0        0.193365   -4.430028   -3.869472
     80          1           0        0.318319   -2.770367   -3.321835
     81          1           0       -0.603583   -3.256995   -4.804937
     82          1           0       -2.764890   -6.991841   -0.747982
     83          1           0       -2.305604   -8.146566   -2.050134
     84          1           0       -3.679841   -7.200869   -2.315251
     85          1           0       -5.762259   -5.733249    1.773778
     86          1           0       -7.975775   -4.133021    2.041103
     87          1           0       -7.461578   -6.760301    0.471588
     88          1           0       -7.017202   -5.546377   -0.807468
     89          1           0       -8.361821   -5.220571    0.215024
     90          1           0       -5.773956   -3.740665    4.123350
     91          1           0       -6.585107   -5.385183    3.914893
     92          1           0       -7.505329   -3.112175    5.351460
     93          1           0       -8.307678   -4.719141    5.225866
     94          1           0       -8.585383   -3.384390    4.026988
     95          1           0       -7.212880    1.296818    4.539803
     96          1           0       -8.613189    0.737788    3.641783
     97          1           0       -8.101603    2.475096    3.553990
     98          1           0       -3.818579    4.123400    1.270253
     99          1           0       -5.255550    6.875823   -1.549314
    100          1           0       -4.413401    5.750763   -2.748371
    101          1           0       -3.481870    6.955656   -2.032949
    102          1           0        1.994185    6.201776    1.328054
    103          1           0        2.586891    6.369585   -0.280899
    104          1           0        2.631695    3.547655    0.874570
    105          1           0        5.297481    6.360858    2.435484
    106          1           0        4.716883    6.822510    0.799955
    107          1           0        6.175139    5.864712    1.129200
    108          1           0        4.432693    2.760196    1.905190
    109          1           0        5.683791    3.736993    2.655541
    110          1           0        7.222481    3.209838    1.248280
    111          1           0        6.318725    3.873153   -0.054946
    112          1           0        5.889428    1.819152   -0.965322
    113          1           0        5.240357    1.166364    0.443071
    114          1           0        8.209438    1.296981   -0.215146
    115          1           0        7.777552   -0.224966    2.245378
    116          1           0        7.016848    1.297377    2.555849
    117          1           0        8.629395    1.378012    1.878646
    118          1           0        6.046366   -0.771651   -0.283537
    119          1           0        7.485406   -1.394990    0.405633
    120          1           0        8.100175    0.296054   -1.898801
    121          1           0        6.919887   -0.915055   -2.419408
    122          1           0        8.426186   -2.250163   -2.969900
    123          1           0        8.314200   -2.747271   -1.317031
    124          1           0       10.115821   -0.589360   -1.147388
    125          1           0       10.382895   -1.466246   -3.731794
    126          1           0       11.649331   -2.213704   -2.826605
    127          1           0       11.553004   -0.484294   -2.692567
    128          1           0       11.657326   -2.966812   -0.918834
    129          1           0       10.033078   -3.486273   -0.537206
    130          1           0       10.210233   -2.803765    1.645286
    131          1           0       10.516778   -1.145443    1.084100
    132          1           0       12.526341   -1.275931    1.314197
    133          1           0       12.825554   -2.877071    0.759859
    134          1           0       11.524453   -3.133986    3.402627
    135          1           0       13.643334   -1.443127    4.382152
    136          1           0       12.098665   -1.949808    4.748521
    137          1           0       12.198692   -0.636307    3.587789
    138          1           0       13.311410   -4.630560    3.601954
    139          1           0       14.448171   -3.341392    3.618563
    140          1           0       14.002009   -4.014178    2.053735
 ---------------------------------------------------------------------

 SCF Done:  E(RZINDO/S) =  -473.978677583     A.U. after   19 cycles

 Excitation energies and oscillator strengths:

 Excited State   1:      Singlet-A      1.3359 eV  928.09 nm  f=0.5725  <S**2>=0.000
     175 ->178         0.15667
     176 ->177         0.67117
 This state for optimization and/or second-order correction.
 Total Energy, E(CIS/TDA) =  -473.929583740
 Copying the excited state density for this state as the 1-particle RhoCI density.

 Excited State   2:      Singlet-A      1.8803 eV  659.38 nm  f=0.0932  <S**2>=0.000
     175 ->177         0.57487
     176 ->178        -0.36348

 Excited State   3:      Singlet-A      2.8238 eV  439.07 nm  f=0.0003  <S**2>=0.000
     168 ->177         0.34362
     168 ->178        -0.18227
     168 ->179         0.38861
     168 ->181         0.24325
     168 ->184        -0.10787
     168 ->185        -0.23368
     168 ->191         0.12365

 Excited State   4:      Singlet-A      2.9932 eV  414.22 nm  f=0.9513  <S**2>=0.000
     170 ->177        -0.13442
     175 ->177         0.34709
     176 ->178         0.55808

 Excited State   5:      Singlet-A      3.0170 eV  410.95 nm  f=0.0115  <S**2>=0.000
     171 ->177         0.31664
     171 ->179        -0.28203
     171 ->181         0.29904
     171 ->183         0.13093
     171 ->184        -0.13210
     171 ->185         0.20334
     171 ->188        -0.20327
     171 ->206        -0.11455
     173 ->177        -0.17241

 The electronic state is 1-A.
 Alpha  occ. eigenvalues --   -1.84734  -1.78725  -1.77449  -1.71832  -1.70231
 Alpha  occ. eigenvalues --   -1.67643  -1.65410  -1.64748  -1.61178  -1.59609
 Alpha  occ. eigenvalues --   -1.56111  -1.51235  -1.48377  -1.46870  -1.46298
 Alpha  occ. eigenvalues --   -1.45433  -1.42349  -1.38721  -1.38563  -1.38433
 Alpha  occ. eigenvalues --   -1.34936  -1.32521  -1.30815  -1.30013  -1.28670
 Alpha  occ. eigenvalues --   -1.26896  -1.26143  -1.24194  -1.19952  -1.18039
 Alpha  occ. eigenvalues --   -1.16185  -1.15526  -1.15249  -1.14142  -1.12664
 Alpha  occ. eigenvalues --   -1.11959  -1.11504  -1.10601  -1.05403  -1.04340
 Alpha  occ. eigenvalues --   -1.02240  -1.00636  -0.98383  -0.97537  -0.96553
 Alpha  occ. eigenvalues --   -0.96135  -0.94421  -0.93516  -0.92904  -0.92478
 Alpha  occ. eigenvalues --   -0.91914  -0.91186  -0.89448  -0.88469  -0.87442
 Alpha  occ. eigenvalues --   -0.86492  -0.84588  -0.83731  -0.82074  -0.81179
 Alpha  occ. eigenvalues --   -0.79708  -0.79140  -0.77444  -0.76691  -0.76135
 Alpha  occ. eigenvalues --   -0.75262  -0.74979  -0.74743  -0.73824  -0.73496
 Alpha  occ. eigenvalues --   -0.73233  -0.72803  -0.71695  -0.71412  -0.70751
 Alpha  occ. eigenvalues --   -0.70251  -0.69215  -0.68983  -0.68568  -0.68123
 Alpha  occ. eigenvalues --   -0.67970  -0.67609  -0.66779  -0.66268  -0.66027
 Alpha  occ. eigenvalues --   -0.65748  -0.65033  -0.64778  -0.64443  -0.63539
 Alpha  occ. eigenvalues --   -0.63509  -0.63395  -0.63152  -0.62637  -0.62477
 Alpha  occ. eigenvalues --   -0.62057  -0.61179  -0.60714  -0.60628  -0.59764
 Alpha  occ. eigenvalues --   -0.59638  -0.58951  -0.58728  -0.58295  -0.58179
 Alpha  occ. eigenvalues --   -0.58069  -0.57724  -0.57048  -0.56689  -0.56285
 Alpha  occ. eigenvalues --   -0.55821  -0.55152  -0.55068  -0.54783  -0.54569
 Alpha  occ. eigenvalues --   -0.54248  -0.53604  -0.53290  -0.53182  -0.52943
 Alpha  occ. eigenvalues --   -0.52793  -0.52632  -0.52459  -0.52146  -0.52012
 Alpha  occ. eigenvalues --   -0.51677  -0.51431  -0.51065  -0.50586  -0.50307
 Alpha  occ. eigenvalues --   -0.49926  -0.49813  -0.49480  -0.49150  -0.48945
 Alpha  occ. eigenvalues --   -0.48610  -0.48452  -0.48211  -0.47773  -0.47442
 Alpha  occ. eigenvalues --   -0.47275  -0.47059  -0.46789  -0.46486  -0.46208
 Alpha  occ. eigenvalues --   -0.45978  -0.45924  -0.45731  -0.45484  -0.45339
 Alpha  occ. eigenvalues --   -0.45249  -0.44860  -0.44504  -0.44464  -0.44302
 Alpha  occ. eigenvalues --   -0.43800  -0.43386  -0.42761  -0.42106  -0.41961
 Alpha  occ. eigenvalues --   -0.41845  -0.41259  -0.41151  -0.39638  -0.38835
 Alpha  occ. eigenvalues --   -0.38254  -0.37570  -0.35873  -0.35214  -0.34184
 Alpha  occ. eigenvalues --   -0.33697  -0.33006  -0.31363  -0.31357  -0.27004
 Alpha  occ. eigenvalues --   -0.22737
 Alpha virt. eigenvalues --   -0.09240  -0.02745  -0.01043   0.00920   0.01228
 Alpha virt. eigenvalues --    0.01686   0.02257   0.02740   0.04152   0.04599
 Alpha virt. eigenvalues --    0.05367   0.05876   0.06972   0.07323   0.07459

 Mulliken charges:
               1
     1  Mg   0.431306
     2  C   -0.046215
     3  C   -0.081124
     4  C   -0.078308
     5  C   -0.049957
     6  N   -0.299504
     7  C    0.108695
     8  C    0.006764
     9  C   -0.000693
    10  C    0.169403
    11  C   -0.049665
    12  C   -0.022931
    13  C    0.004465
    14  C    0.470227
    15  O   -0.510178
    16  O   -0.289150
    17  N   -0.321400
    18  C    0.167998
    19  C    0.035655
    20  C   -0.058373
    21  C    0.150495
    22  C   -0.032402
    23  C    0.349700
    24  O   -0.521505
    25  C   -0.014942
    26  N   -0.279914
    27  C    0.160371
    28  C    0.001324
    29  C    0.002993
    30  C    0.075396
    31  C   -0.050697
    32  C   -0.026159
    33  C   -0.064947
    34  N   -0.360125
    35  C    0.089898
    36  C    0.011260
    37  C   -0.049086
    38  C    0.116488
    39  C   -0.053972
    40  C    0.329749
    41  O   -0.551807
    42  C    0.066909
    43  C    0.483624
    44  O   -0.529537
    45  O   -0.284237
    46  C    0.078923
    47  C    0.106700
    48  C   -0.094842
    49  C   -0.002797
    50  C   -0.049650
    51  C   -0.009959
    52  C   -0.029864
    53  C   -0.031541
    54  C   -0.010115
    55  C   -0.062997
    56  C   -0.037864
    57  C   -0.046648
    58  C   -0.034112
    59  C   -0.016635
    60  C   -0.070750
    61  C   -0.036083
    62  C   -0.036454
    63  C   -0.037524
    64  C   -0.009405
    65  C   -0.071079
    66  C   -0.055649
    67  H    0.026025
    68  H    0.024382
    69  H    0.030101
    70  H    0.031719
    71  H    0.031429
    72  H    0.025781
    73  H    0.025699
    74  H    0.025936
    75  H    0.019913
    76  H    0.031426
    77  H    0.051355
    78  H    0.043693
    79  H    0.044953
    80  H    0.027759
    81  H    0.037897
    82  H    0.033392
    83  H    0.035817
    84  H    0.047730
    85  H    0.024020
    86  H    0.026260
    87  H    0.027660
    88  H    0.025095
    89  H    0.029585
    90  H    0.035803
    91  H    0.018340
    92  H    0.018754
    93  H    0.027027
    94  H    0.023046
    95  H    0.023542
    96  H    0.019536
    97  H    0.040174
    98  H    0.052206
    99  H    0.062180
   100  H    0.034139
   101  H    0.026267
   102  H    0.038201
   103  H    0.056768
   104  H    0.034896
   105  H    0.031738
   106  H    0.024104
   107  H    0.018102
   108  H    0.017852
   109  H    0.019156
   110  H    0.017562
   111  H    0.018352
   112  H    0.014536
   113  H    0.020060
   114  H    0.030059
   115  H    0.023312
   116  H    0.020943
   117  H    0.018746
   118  H    0.015373
   119  H    0.022211
   120  H    0.026523
   121  H    0.011433
   122  H    0.024703
   123  H    0.012962
   124  H    0.020299
   125  H    0.024096
   126  H    0.009468
   127  H    0.021443
   128  H    0.026961
   129  H    0.013224
   130  H    0.018745
   131  H    0.019623
   132  H    0.012321
   133  H    0.020192
   134  H    0.029253
   135  H    0.028173
   136  H    0.002963
   137  H    0.023548
   138  H    0.015431
   139  H    0.018197
   140  H    0.022283
 Sum of Mulliken charges =  -0.00000

 Dipole moment (field-independent basis, Debye):
    X=              2.9103    Y=             -7.7351    Z=             -0.2935  Tot=              8.2697
 N-N= 4.358980674518D+03 E-N= 0.000000000000D+00  KE=-9.391738442903D+03
 Leave Link  601 at Wed May  4 20:27:48 2022, MaxMem=  6710886400 cpu:               0.8 elap:               0.0
 (Enter /sw/apps/gaussian-16.0/g16/l9999.exe)
 1\1\GINC-BP1-COMPUTE168\SP\RZINDO CIS\STO-3G\C55H74Mg1N4O6\OF15641\04-
 May-2022\0\\#p ZINDO=(nstates=5)\\step_351_chromophore_17 ZINDO\\0,1\M
 g,0,29.876,60.054,41.476\C,0,26.89,58.851,39.975\C,0,31.531,57.24,40.2
 27\C,0,32.941,61.479,42.113\C,0,28.196,63.068,42.127\N,0,29.305,58.341
 ,40.078\C,0,28.013,57.954,39.823\C,0,28.015,56.499,39.229\C,0,29.474,5
 5.98,39.479\C,0,30.199,57.277,39.926\C,0,29.559,54.708,40.446\C,0,27.4
 72,56.401,37.787\C,0,26.878,55.01,37.447\C,0,27.171,54.648,36.013\O,0,

 Normal termination of Gaussian 16 at Wed May  4 20:27:48 2022.
