 Gaussian 16, Revision A.03,
 Gaussian 16:  ES64L-G16RevA.03 25-Dec-2016

 ------------------------------
 #p blyp/Def2SVP td=(nstates=5)
 ------------------------------

 --------------------------------------------------
 step_1701_chromophore_5 TDDFT with blyp functional
 --------------------------------------------------
 Symbolic Z-matrix:
 Charge =  0 Multiplicity = 1

                         Standard orientation:
 ---------------------------------------------------------------------
 Center     Atomic      Atomic             Coordinates (Angstroms)
 Number     Number       Type             X           Y           Z
 ---------------------------------------------------------------------
      1         12           0        5.665418    0.737318   -0.468591
      2          6           0        4.563272   -2.728126   -0.113116
      3          6           0        2.662674    1.283577   -2.081155
      4          6           0        6.060629    3.969078   -0.006717
      5          6           0        8.161867    0.007038    1.926249
      6          7           0        3.832906   -0.604135   -0.927479
      7          6           0        3.570395   -1.930438   -0.668626
      8          6           0        2.173064   -2.269448   -1.111441
      9          6           0        1.738369   -0.976183   -1.882279
     10          6           0        2.797321    0.034483   -1.589300
     11          6           0        1.420131   -1.224435   -3.384307
     12          6           0        1.125982   -2.633848   -0.050799
     13          6           0        0.250667   -3.849748   -0.414732
     14          6           0       -1.205481   -3.608050   -0.786076
     15          8           0       -2.159873   -4.274072   -0.425199
     16          8           0       -1.326153   -2.481333   -1.591411
     17          7           0        4.681754    2.374289   -1.213399
     18          6           0        3.495431    2.383374   -1.936474
     19          6           0        3.204931    3.739837   -2.394692
     20          6           0        4.248780    4.512138   -1.846449
     21          6           0        5.083852    3.653156   -0.991370
     22          6           0        2.010017    4.123030   -3.190028
     23          6           0        4.549519    6.058549   -2.227782
     24          8           0        3.767220    6.665970   -2.896674
     25          6           0        5.771367    6.773901   -1.833231
     26          7           0        6.836750    1.796142    0.986117
     27          6           0        6.908977    3.187700    0.868543
     28          6           0        8.114998    3.671836    1.611752
     29          6           0        8.684382    2.433423    2.333042
     30          6           0        7.882254    1.359183    1.681469
     31          6           0        9.153089    4.460811    0.790712
     32          6           0        8.484309    2.477725    3.976326
     33          6           0        9.827670    2.426195    4.676459
     34          7           0        6.370128   -0.986399    0.566996
     35          6           0        7.384756   -1.127664    1.485058
     36          6           0        7.401117   -2.370175    2.015890
     37          6           0        6.409420   -3.054827    1.267400
     38          6           0        5.776706   -2.158826    0.421466
     39          6           0        8.186494   -2.841872    3.141451
     40          6           0        5.785940   -4.381367    1.205504
     41          8           0        6.124044   -5.466534    1.680533
     42          6           0        4.515027   -4.192804    0.295367
     43          6           0        4.453221   -5.105857   -0.899999
     44          8           0        5.410278   -5.728665   -1.338402
     45          8           0        3.170985   -5.198640   -1.255622
     46          6           0        2.839334   -6.352993   -2.168479
     47          6           0       -2.737296   -2.107194   -1.920119
     48          6           0       -3.454011   -1.559735   -0.649798
     49          6           0       -4.845559   -1.434600   -0.558785
     50          6           0       -5.795034   -1.799403   -1.686391
     51          6           0       -5.375337   -0.879952    0.758275
     52          6           0       -5.203772    0.644204    0.981399
     53          6           0       -6.332548    1.446228    1.654416
     54          6           0       -7.458470    1.738421    0.591016
     55          6           0       -7.714917    3.257311    0.483952
     56          6           0       -8.804545    0.984837    0.947505
     57          6           0       -9.630576    0.648548   -0.280775
     58          6           0      -10.699819   -0.434931   -0.004860
     59          6           0      -12.075294    0.124444    0.291224
     60          6           0      -12.793613    0.619489   -0.912633
     61          6           0      -13.032250   -0.942069    0.969662
     62          6           0      -14.071816   -0.323988    2.016897
     63          6           0      -15.423344    0.003797    1.383795
     64          6           0      -15.509884    1.620935    1.252787
     65          6           0      -16.168092    2.103466    2.598023
     66          6           0      -16.368188    1.822556   -0.009766
     67          1           0        1.749366    1.502128   -2.639086
     68          1           0        6.337125    5.023102    0.068560
     69          1           0        9.032893   -0.073446    2.579104
     70          1           0        2.279200   -3.107587   -1.800229
     71          1           0        0.870733   -0.514826   -1.411218
     72          1           0        1.034796   -0.311632   -3.838511
     73          1           0        0.600369   -1.933325   -3.506075
     74          1           0        2.305276   -1.565466   -3.922123
     75          1           0        0.441986   -1.793485    0.069913
     76          1           0        1.505865   -2.731569    0.965918
     77          1           0        0.246657   -4.437373    0.502556
     78          1           0        0.691409   -4.392849   -1.250219
     79          1           0        1.062817    4.192406   -2.655606
     80          1           0        1.672005    3.333290   -3.860494
     81          1           0        2.263672    5.027502   -3.743182
     82          1           0        6.676370    6.198040   -2.031525
     83          1           0        5.640326    6.864681   -0.755084
     84          1           0        5.895992    7.778858   -2.236395
     85          1           0        7.648872    4.356962    2.319514
     86          1           0        9.734651    2.288491    2.079472
     87          1           0        9.394124    5.308268    1.432805
     88          1           0        8.788474    4.850187   -0.159779
     89          1           0        9.972262    3.769594    0.591309
     90          1           0        7.918155    1.600680    4.289480
     91          1           0        7.810899    3.253764    4.340144
     92          1           0       10.087736    1.463067    5.117363
     93          1           0        9.942493    3.064385    5.553006
     94          1           0       10.656818    2.653283    4.006439
     95          1           0        7.748937   -2.327788    3.996582
     96          1           0        9.164496   -2.361751    3.180302
     97          1           0        8.192060   -3.893296    3.428253
     98          1           0        3.654515   -4.448382    0.913476
     99          1           0        3.659877   -6.995963   -2.487119
    100          1           0        2.312941   -5.960280   -3.039202
    101          1           0        2.116049   -6.968304   -1.632377
    102          1           0       -3.180593   -3.010095   -2.339437
    103          1           0       -2.776247   -1.319746   -2.672692
    104          1           0       -2.777828   -1.225253    0.136432
    105          1           0       -6.514228   -0.998290   -1.854541
    106          1           0       -6.422419   -2.643160   -1.399763
    107          1           0       -5.326853   -2.004538   -2.650356
    108          1           0       -4.924313   -1.395091    1.605875
    109          1           0       -6.417260   -1.195707    0.727204
    110          1           0       -4.944305    1.237116    0.103957
    111          1           0       -4.463125    0.773445    1.770145
    112          1           0       -5.853199    2.356686    2.016847
    113          1           0       -6.714840    0.986178    2.565011
    114          1           0       -7.141398    1.444558   -0.409817
    115          1           0       -7.622527    3.848258    1.394993
    116          1           0       -8.663453    3.478864   -0.006009
    117          1           0       -6.861794    3.599625   -0.101108
    118          1           0       -9.313167    1.597413    1.692440
    119          1           0       -8.569454    0.014110    1.383069
    120          1           0       -9.050851    0.275602   -1.124481
    121          1           0      -10.274975    1.486373   -0.549460
    122          1           0      -10.361073   -1.187508    0.706275
    123          1           0      -10.841079   -1.102008   -0.855802
    124          1           0      -11.974201    0.991339    0.944245
    125          1           0      -12.265786    0.566267   -1.865150
    126          1           0      -13.046985    1.679577   -0.892150
    127          1           0      -13.788913    0.178691   -0.957434
    128          1           0      -12.457619   -1.709661    1.487725
    129          1           0      -13.578512   -1.451545    0.175724
    130          1           0      -13.629199    0.531087    2.527660
    131          1           0      -14.261948   -1.055948    2.800504
    132          1           0      -16.233265   -0.410657    1.983118
    133          1           0      -15.480299   -0.544189    0.442908
    134          1           0      -14.581092    2.190426    1.217109
    135          1           0      -15.513153    2.718230    3.215729
    136          1           0      -16.466420    1.250711    3.206555
    137          1           0      -17.014052    2.754344    2.374720
    138          1           0      -16.944531    2.728756    0.172764
    139          1           0      -16.948391    0.966385   -0.354156
    140          1           0      -15.815352    2.162680   -0.885745
 ---------------------------------------------------------------------

 SCF Done:  E(RB-LYP) =  -3007.35583161     A.U. after   20 cycles

 Excitation energies and oscillator strengths:

 Excited State   1:      Singlet-A      1.7008 eV  728.97 nm  f=0.0015  <S**2>=0.000
     244 -> 247        0.66365
     245 -> 247       -0.24210
 This state for optimization and/or second-order correction.
 Total Energy, E(TD-HF/TD-DFT) =  -3007.29332769
 Copying the excited state density for this state as the 1-particle RhoCI density.

 Excited State   2:      Singlet-A      1.8182 eV  681.91 nm  f=0.2750  <S**2>=0.000
     245 -> 248       -0.19702
     246 -> 247        0.68707
     246 <- 247       -0.14514

 Excited State   3:      Singlet-A      2.0108 eV  616.61 nm  f=0.0393  <S**2>=0.000
     243 -> 247        0.53519
     244 -> 247        0.15592
     245 -> 247        0.39835
     246 -> 248        0.15058

 Excited State   4:      Singlet-A      2.0601 eV  601.85 nm  f=0.0578  <S**2>=0.000
     243 -> 247        0.45882
     244 -> 247       -0.16874
     245 -> 247       -0.45106
     246 -> 248       -0.19248

 Excited State   5:      Singlet-A      2.1504 eV  576.56 nm  f=0.0006  <S**2>=0.000
     241 -> 247        0.26723
     242 -> 247        0.65376

 The electronic state is 1-A.
 Alpha  occ. eigenvalues --  -46.27609 -18.83630 -18.82201 -18.77053 -18.76373
 Alpha  occ. eigenvalues --  -18.76017 -18.74623 -14.02909 -14.02688 -14.01171
 Alpha  occ. eigenvalues --  -14.00066 -10.04161 -10.03861 -10.00435  -9.98772
 Alpha  occ. eigenvalues --   -9.98466  -9.98384  -9.97184  -9.96577  -9.96048
 Alpha  occ. eigenvalues --   -9.95691  -9.95545  -9.95440  -9.94420  -9.94238
 Alpha  occ. eigenvalues --   -9.94057  -9.93812  -9.93776  -9.93758  -9.93655
 Alpha  occ. eigenvalues --   -9.93625  -9.93459  -9.93430  -9.93294  -9.93291
 Alpha  occ. eigenvalues --   -9.93110  -9.93040  -9.92916  -9.92831  -9.92717
 Alpha  occ. eigenvalues --   -9.92584  -9.92552  -9.92533  -9.92408  -9.92221
 Alpha  occ. eigenvalues --   -9.92176  -9.92168  -9.92103  -9.92044  -9.92016
 Alpha  occ. eigenvalues --   -9.91731  -9.91694  -9.91556  -9.91367  -9.91344
 Alpha  occ. eigenvalues --   -9.91272  -9.91151  -9.91091  -9.91044  -9.90890
 Alpha  occ. eigenvalues --   -9.90820  -9.90763  -9.90579  -9.90521  -9.90108
 Alpha  occ. eigenvalues --   -9.89726  -2.92135  -1.72528  -1.72062  -1.71825
 Alpha  occ. eigenvalues --   -0.98859  -0.97313  -0.93557  -0.90148  -0.89692
 Alpha  occ. eigenvalues --   -0.89333  -0.86940  -0.86201  -0.85548  -0.84625
 Alpha  occ. eigenvalues --   -0.74970  -0.73418  -0.72876  -0.72517  -0.72412
 Alpha  occ. eigenvalues --   -0.72147  -0.71443  -0.71169  -0.70598  -0.70466
 Alpha  occ. eigenvalues --   -0.69702  -0.68776  -0.67969  -0.67721  -0.67379
 Alpha  occ. eigenvalues --   -0.66717  -0.66084  -0.65578  -0.65061  -0.64575
 Alpha  occ. eigenvalues --   -0.64102  -0.62466  -0.62195  -0.61841  -0.61005
 Alpha  occ. eigenvalues --   -0.60953  -0.60400  -0.60166  -0.59570  -0.58421
 Alpha  occ. eigenvalues --   -0.58316  -0.57524  -0.57156  -0.55624  -0.55001
 Alpha  occ. eigenvalues --   -0.53991  -0.53869  -0.52511  -0.52118  -0.51907
 Alpha  occ. eigenvalues --   -0.50977  -0.50514  -0.50496  -0.50388  -0.49900
 Alpha  occ. eigenvalues --   -0.49593  -0.49345  -0.49056  -0.48662  -0.46683
 Alpha  occ. eigenvalues --   -0.46349  -0.45972  -0.45623  -0.45331  -0.44770
 Alpha  occ. eigenvalues --   -0.44208  -0.43923  -0.43477  -0.42765  -0.42351
 Alpha  occ. eigenvalues --   -0.42140  -0.41829  -0.41582  -0.41241  -0.41085
 Alpha  occ. eigenvalues --   -0.40649  -0.40464  -0.40316  -0.40170  -0.39965
 Alpha  occ. eigenvalues --   -0.39663  -0.39498  -0.39372  -0.39139  -0.39084
 Alpha  occ. eigenvalues --   -0.38836  -0.38802  -0.38503  -0.38218  -0.38111
 Alpha  occ. eigenvalues --   -0.37927  -0.37785  -0.37655  -0.37584  -0.37243
 Alpha  occ. eigenvalues --   -0.37181  -0.37009  -0.36827  -0.36627  -0.36382
 Alpha  occ. eigenvalues --   -0.36273  -0.36196  -0.35841  -0.35756  -0.35634
 Alpha  occ. eigenvalues --   -0.35407  -0.35199  -0.35015  -0.34840  -0.34778
 Alpha  occ. eigenvalues --   -0.34699  -0.34560  -0.34163  -0.33836  -0.33782
 Alpha  occ. eigenvalues --   -0.33686  -0.33603  -0.33422  -0.33344  -0.33183
 Alpha  occ. eigenvalues --   -0.32946  -0.32817  -0.32673  -0.32614  -0.32505
 Alpha  occ. eigenvalues --   -0.32382  -0.32201  -0.32089  -0.31840  -0.31695
 Alpha  occ. eigenvalues --   -0.31504  -0.31402  -0.31055  -0.30853  -0.30805
 Alpha  occ. eigenvalues --   -0.30682  -0.30456  -0.30289  -0.30086  -0.29877
 Alpha  occ. eigenvalues --   -0.29808  -0.29732  -0.29518  -0.29241  -0.29152
 Alpha  occ. eigenvalues --   -0.28821  -0.28655  -0.28529  -0.28473  -0.28158
 Alpha  occ. eigenvalues --   -0.27995  -0.27495  -0.27166  -0.26957  -0.26409
 Alpha  occ. eigenvalues --   -0.26384  -0.26297  -0.25618  -0.25434  -0.25085
 Alpha  occ. eigenvalues --   -0.24954  -0.24406  -0.23797  -0.23695  -0.23084
 Alpha  occ. eigenvalues --   -0.22880  -0.22289  -0.22008  -0.21338  -0.20464
 Alpha  occ. eigenvalues --   -0.19332  -0.19314  -0.18790  -0.17621  -0.17047
 Alpha  occ. eigenvalues --   -0.15767
 Alpha virt. eigenvalues --   -0.11416  -0.06824  -0.05167  -0.03886  -0.03449
 Alpha virt. eigenvalues --   -0.02773  -0.02532  -0.02044  -0.01313  -0.00113
 Alpha virt. eigenvalues --    0.00849   0.01808   0.01900   0.02230   0.02838

 Mulliken charges:
               1
     1  Mg   0.692208
     2  C   -0.065899
     3  C   -0.092002
     4  C   -0.038894
     5  C   -0.073830
     6  N   -0.210658
     7  C   -0.076553
     8  C    0.053091
     9  C    0.007429
    10  C    0.079894
    11  C    0.125313
    12  C    0.141786
    13  C    0.147707
    14  C    0.051076
    15  O   -0.171366
    16  O   -0.296549
    17  N   -0.323335
    18  C    0.129888
    19  C   -0.121280
    20  C   -0.015648
    21  C    0.135872
    22  C    0.181302
    23  C   -0.066244
    24  O   -0.135067
    25  C    0.143828
    26  N   -0.218542
    27  C   -0.027432
    28  C    0.046466
    29  C    0.024730
    30  C   -0.045721
    31  C    0.142090
    32  C    0.113802
    33  C    0.050801
    34  N   -0.216000
    35  C    0.148083
    36  C   -0.152784
    37  C    0.000829
    38  C    0.119922
    39  C    0.222437
    40  C   -0.013036
    41  O   -0.134448
    42  C    0.046286
    43  C    0.112496
    44  O   -0.162577
    45  O   -0.269155
    46  C    0.198083
    47  C    0.290312
    48  C   -0.100146
    49  C   -0.156411
    50  C    0.142775
    51  C    0.160735
    52  C    0.066033
    53  C    0.102466
    54  C   -0.053192
    55  C    0.089291
    56  C    0.101815
    57  C    0.098359
    58  C    0.103131
    59  C   -0.075385
    60  C    0.129149
    61  C    0.086164
    62  C    0.089137
    63  C    0.079085
    64  C   -0.096255
    65  C    0.099184
    66  C    0.116664
    67  H   -0.071820
    68  H   -0.091047
    69  H   -0.074597
    70  H   -0.020220
    71  H   -0.030086
    72  H   -0.022236
    73  H   -0.011719
    74  H   -0.006780
    75  H   -0.030525
    76  H   -0.027246
    77  H   -0.006376
    78  H    0.008406
    79  H   -0.006383
    80  H   -0.027068
    81  H    0.018804
    82  H    0.010654
    83  H    0.021363
    84  H   -0.005157
    85  H   -0.024658
    86  H   -0.016794
    87  H   -0.001543
    88  H   -0.007251
    89  H   -0.006877
    90  H   -0.020572
    91  H   -0.017733
    92  H   -0.009479
    93  H   -0.014974
    94  H   -0.010676
    95  H   -0.024795
    96  H   -0.025805
    97  H    0.010839
    98  H    0.002151
    99  H    0.044709
   100  H    0.018950
   101  H    0.022723
   102  H    0.010256
   103  H    0.009943
   104  H   -0.024955
   105  H   -0.007159
   106  H    0.006276
   107  H   -0.013767
   108  H   -0.013550
   109  H   -0.041462
   110  H   -0.019071
   111  H   -0.036327
   112  H   -0.043221
   113  H   -0.036166
   114  H   -0.036075
   115  H   -0.015238
   116  H   -0.013092
   117  H   -0.025618
   118  H   -0.028153
   119  H   -0.035500
   120  H   -0.032819
   121  H   -0.031670
   122  H   -0.052054
   123  H   -0.057432
   124  H   -0.042541
   125  H   -0.024647
   126  H   -0.031606
   127  H   -0.022512
   128  H   -0.042162
   129  H   -0.034653
   130  H   -0.029487
   131  H   -0.046837
   132  H   -0.027326
   133  H   -0.032603
   134  H   -0.020387
   135  H   -0.019764
   136  H   -0.011843
   137  H   -0.022169
   138  H   -0.037072
   139  H   -0.001161
   140  H   -0.023870
 Sum of Mulliken charges =  -0.00000

 Dipole moment (field-independent basis, Debye):
    X=             -1.0446    Y=              4.5587    Z=             -0.0411  Tot=              4.6770
 Quadrupole moment (field-independent basis, Debye-Ang):
   XX=           -384.9125   YY=           -444.0547   ZZ=           -394.8474
   XY=             49.0784   XZ=             14.7115   YZ=             28.9568

 Normal termination of Gaussian 16 at Thu Apr 28 21:26:37 2022.
