 Gaussian 16, Revision A.03,
 Gaussian 16:  ES64L-G16RevA.03 25-Dec-2016

 -----------------------------------
 #p cam-b3lyp/Def2SVP td=(nstates=5)
 -----------------------------------

 -------------------------------------------------------
 step_1701_chromophore_5 TDDFT with cam-b3lyp functional
 -------------------------------------------------------
 Symbolic Z-matrix:
 Charge =  0 Multiplicity = 1

                         Standard orientation:
 ---------------------------------------------------------------------
 Center     Atomic      Atomic             Coordinates (Angstroms)
 Number     Number       Type             X           Y           Z
 ---------------------------------------------------------------------
      1         12           0        5.665418    0.737318   -0.468591
      2          6           0        4.563272   -2.728126   -0.113116
      3          6           0        2.662674    1.283577   -2.081155
      4          6           0        6.060629    3.969078   -0.006717
      5          6           0        8.161867    0.007038    1.926249
      6          7           0        3.832906   -0.604135   -0.927479
      7          6           0        3.570395   -1.930438   -0.668626
      8          6           0        2.173064   -2.269448   -1.111441
      9          6           0        1.738369   -0.976183   -1.882279
     10          6           0        2.797321    0.034483   -1.589300
     11          6           0        1.420131   -1.224435   -3.384307
     12          6           0        1.125982   -2.633848   -0.050799
     13          6           0        0.250667   -3.849748   -0.414732
     14          6           0       -1.205481   -3.608050   -0.786076
     15          8           0       -2.159873   -4.274072   -0.425199
     16          8           0       -1.326153   -2.481333   -1.591411
     17          7           0        4.681754    2.374289   -1.213399
     18          6           0        3.495431    2.383374   -1.936474
     19          6           0        3.204931    3.739837   -2.394692
     20          6           0        4.248780    4.512138   -1.846449
     21          6           0        5.083852    3.653156   -0.991370
     22          6           0        2.010017    4.123030   -3.190028
     23          6           0        4.549519    6.058549   -2.227782
     24          8           0        3.767220    6.665970   -2.896674
     25          6           0        5.771367    6.773901   -1.833231
     26          7           0        6.836750    1.796142    0.986117
     27          6           0        6.908977    3.187700    0.868543
     28          6           0        8.114998    3.671836    1.611752
     29          6           0        8.684382    2.433423    2.333042
     30          6           0        7.882254    1.359183    1.681469
     31          6           0        9.153089    4.460811    0.790712
     32          6           0        8.484309    2.477725    3.976326
     33          6           0        9.827670    2.426195    4.676459
     34          7           0        6.370128   -0.986399    0.566996
     35          6           0        7.384756   -1.127664    1.485058
     36          6           0        7.401117   -2.370175    2.015890
     37          6           0        6.409420   -3.054827    1.267400
     38          6           0        5.776706   -2.158826    0.421466
     39          6           0        8.186494   -2.841872    3.141451
     40          6           0        5.785940   -4.381367    1.205504
     41          8           0        6.124044   -5.466534    1.680533
     42          6           0        4.515027   -4.192804    0.295367
     43          6           0        4.453221   -5.105857   -0.899999
     44          8           0        5.410278   -5.728665   -1.338402
     45          8           0        3.170985   -5.198640   -1.255622
     46          6           0        2.839334   -6.352993   -2.168479
     47          6           0       -2.737296   -2.107194   -1.920119
     48          6           0       -3.454011   -1.559735   -0.649798
     49          6           0       -4.845559   -1.434600   -0.558785
     50          6           0       -5.795034   -1.799403   -1.686391
     51          6           0       -5.375337   -0.879952    0.758275
     52          6           0       -5.203772    0.644204    0.981399
     53          6           0       -6.332548    1.446228    1.654416
     54          6           0       -7.458470    1.738421    0.591016
     55          6           0       -7.714917    3.257311    0.483952
     56          6           0       -8.804545    0.984837    0.947505
     57          6           0       -9.630576    0.648548   -0.280775
     58          6           0      -10.699819   -0.434931   -0.004860
     59          6           0      -12.075294    0.124444    0.291224
     60          6           0      -12.793613    0.619489   -0.912633
     61          6           0      -13.032250   -0.942069    0.969662
     62          6           0      -14.071816   -0.323988    2.016897
     63          6           0      -15.423344    0.003797    1.383795
     64          6           0      -15.509884    1.620935    1.252787
     65          6           0      -16.168092    2.103466    2.598023
     66          6           0      -16.368188    1.822556   -0.009766
     67          1           0        1.749366    1.502128   -2.639086
     68          1           0        6.337125    5.023102    0.068560
     69          1           0        9.032893   -0.073446    2.579104
     70          1           0        2.279200   -3.107587   -1.800229
     71          1           0        0.870733   -0.514826   -1.411218
     72          1           0        1.034796   -0.311632   -3.838511
     73          1           0        0.600369   -1.933325   -3.506075
     74          1           0        2.305276   -1.565466   -3.922123
     75          1           0        0.441986   -1.793485    0.069913
     76          1           0        1.505865   -2.731569    0.965918
     77          1           0        0.246657   -4.437373    0.502556
     78          1           0        0.691409   -4.392849   -1.250219
     79          1           0        1.062817    4.192406   -2.655606
     80          1           0        1.672005    3.333290   -3.860494
     81          1           0        2.263672    5.027502   -3.743182
     82          1           0        6.676370    6.198040   -2.031525
     83          1           0        5.640326    6.864681   -0.755084
     84          1           0        5.895992    7.778858   -2.236395
     85          1           0        7.648872    4.356962    2.319514
     86          1           0        9.734651    2.288491    2.079472
     87          1           0        9.394124    5.308268    1.432805
     88          1           0        8.788474    4.850187   -0.159779
     89          1           0        9.972262    3.769594    0.591309
     90          1           0        7.918155    1.600680    4.289480
     91          1           0        7.810899    3.253764    4.340144
     92          1           0       10.087736    1.463067    5.117363
     93          1           0        9.942493    3.064385    5.553006
     94          1           0       10.656818    2.653283    4.006439
     95          1           0        7.748937   -2.327788    3.996582
     96          1           0        9.164496   -2.361751    3.180302
     97          1           0        8.192060   -3.893296    3.428253
     98          1           0        3.654515   -4.448382    0.913476
     99          1           0        3.659877   -6.995963   -2.487119
    100          1           0        2.312941   -5.960280   -3.039202
    101          1           0        2.116049   -6.968304   -1.632377
    102          1           0       -3.180593   -3.010095   -2.339437
    103          1           0       -2.776247   -1.319746   -2.672692
    104          1           0       -2.777828   -1.225253    0.136432
    105          1           0       -6.514228   -0.998290   -1.854541
    106          1           0       -6.422419   -2.643160   -1.399763
    107          1           0       -5.326853   -2.004538   -2.650356
    108          1           0       -4.924313   -1.395091    1.605875
    109          1           0       -6.417260   -1.195707    0.727204
    110          1           0       -4.944305    1.237116    0.103957
    111          1           0       -4.463125    0.773445    1.770145
    112          1           0       -5.853199    2.356686    2.016847
    113          1           0       -6.714840    0.986178    2.565011
    114          1           0       -7.141398    1.444558   -0.409817
    115          1           0       -7.622527    3.848258    1.394993
    116          1           0       -8.663453    3.478864   -0.006009
    117          1           0       -6.861794    3.599625   -0.101108
    118          1           0       -9.313167    1.597413    1.692440
    119          1           0       -8.569454    0.014110    1.383069
    120          1           0       -9.050851    0.275602   -1.124481
    121          1           0      -10.274975    1.486373   -0.549460
    122          1           0      -10.361073   -1.187508    0.706275
    123          1           0      -10.841079   -1.102008   -0.855802
    124          1           0      -11.974201    0.991339    0.944245
    125          1           0      -12.265786    0.566267   -1.865150
    126          1           0      -13.046985    1.679577   -0.892150
    127          1           0      -13.788913    0.178691   -0.957434
    128          1           0      -12.457619   -1.709661    1.487725
    129          1           0      -13.578512   -1.451545    0.175724
    130          1           0      -13.629199    0.531087    2.527660
    131          1           0      -14.261948   -1.055948    2.800504
    132          1           0      -16.233265   -0.410657    1.983118
    133          1           0      -15.480299   -0.544189    0.442908
    134          1           0      -14.581092    2.190426    1.217109
    135          1           0      -15.513153    2.718230    3.215729
    136          1           0      -16.466420    1.250711    3.206555
    137          1           0      -17.014052    2.754344    2.374720
    138          1           0      -16.944531    2.728756    0.172764
    139          1           0      -16.948391    0.966385   -0.354156
    140          1           0      -15.815352    2.162680   -0.885745
 ---------------------------------------------------------------------

 SCF Done:  E(RCAM-B3LYP) =  -3007.15478638     A.U. after   18 cycles

 Excitation energies and oscillator strengths:

 Excited State   1:      Singlet-A      1.7297 eV  716.78 nm  f=0.3558  <S**2>=0.000
     245 -> 248       -0.17526
     246 -> 247        0.68637
     245 <- 248       -0.10490
 This state for optimization and/or second-order correction.
 Total Energy, E(TD-HF/TD-DFT) =  -3007.09121994
 Copying the excited state density for this state as the 1-particle RhoCI density.

 Excited State   2:      Singlet-A      2.2362 eV  554.44 nm  f=0.1378  <S**2>=0.000
     245 -> 247        0.64174
     246 -> 248        0.27912

 Excited State   3:      Singlet-A      3.1244 eV  396.83 nm  f=0.0054  <S**2>=0.000
     244 -> 247        0.68938

 Excited State   4:      Singlet-A      3.3801 eV  366.81 nm  f=0.0136  <S**2>=0.000
     241 -> 247       -0.37176
     242 -> 247        0.49519
     242 -> 249        0.13203
     242 -> 250       -0.11288
     242 -> 251       -0.16984
     246 -> 248        0.17438

 Excited State   5:      Singlet-A      3.4152 eV  363.04 nm  f=0.0041  <S**2>=0.000
     241 -> 247        0.52509
     242 -> 247        0.36114
     242 -> 249        0.10700
     242 -> 251       -0.14043
     246 -> 248       -0.13101

 The electronic state is 1-A.
 Alpha  occ. eigenvalues --  -46.89289 -19.26536 -19.25071 -19.20020 -19.19489
 Alpha  occ. eigenvalues --  -19.19215 -19.17375 -14.41864 -14.41596 -14.39928
 Alpha  occ. eigenvalues --  -14.38154 -10.39421 -10.39028 -10.35864 -10.33350
 Alpha  occ. eigenvalues --  -10.32877 -10.32602 -10.32113 -10.31552 -10.30356
 Alpha  occ. eigenvalues --  -10.30308 -10.30288 -10.29758 -10.28827 -10.28336
 Alpha  occ. eigenvalues --  -10.28300 -10.28043 -10.28010 -10.27952 -10.27866
 Alpha  occ. eigenvalues --  -10.27677 -10.27650 -10.27435 -10.27371 -10.27357
 Alpha  occ. eigenvalues --  -10.26938 -10.26919 -10.26725 -10.26695 -10.26655
 Alpha  occ. eigenvalues --  -10.26601 -10.26540 -10.26494 -10.26492 -10.26370
 Alpha  occ. eigenvalues --  -10.26119 -10.25888 -10.25874 -10.25838 -10.25736
 Alpha  occ. eigenvalues --  -10.25444 -10.25403 -10.25073 -10.25029 -10.24942
 Alpha  occ. eigenvalues --  -10.24865 -10.24840 -10.24819 -10.24792 -10.24577
 Alpha  occ. eigenvalues --  -10.24427 -10.24385 -10.24193 -10.24182 -10.23691
 Alpha  occ. eigenvalues --  -10.23285  -3.17708  -1.92578  -1.92189  -1.91986
 Alpha  occ. eigenvalues --   -1.17267  -1.15745  -1.12305  -1.08035  -1.07490
 Alpha  occ. eigenvalues --   -1.07217  -1.04583  -1.03687  -1.03503  -1.02270
 Alpha  occ. eigenvalues --   -0.91913  -0.90288  -0.89683  -0.89266  -0.89075
 Alpha  occ. eigenvalues --   -0.89054  -0.88127  -0.87775  -0.87169  -0.86903
 Alpha  occ. eigenvalues --   -0.86412  -0.85222  -0.84278  -0.83837  -0.83607
 Alpha  occ. eigenvalues --   -0.82857  -0.82138  -0.81551  -0.80923  -0.80426
 Alpha  occ. eigenvalues --   -0.79829  -0.77984  -0.77881  -0.77599  -0.76393
 Alpha  occ. eigenvalues --   -0.76336  -0.75739  -0.75541  -0.74883  -0.73647
 Alpha  occ. eigenvalues --   -0.73319  -0.72472  -0.72130  -0.70455  -0.69521
 Alpha  occ. eigenvalues --   -0.68630  -0.68424  -0.66891  -0.66335  -0.66265
 Alpha  occ. eigenvalues --   -0.65011  -0.64854  -0.64657  -0.64415  -0.63938
 Alpha  occ. eigenvalues --   -0.63579  -0.63042  -0.62977  -0.62284  -0.60235
 Alpha  occ. eigenvalues --   -0.60189  -0.59524  -0.59149  -0.58716  -0.58191
 Alpha  occ. eigenvalues --   -0.57789  -0.57243  -0.56877  -0.56044  -0.55387
 Alpha  occ. eigenvalues --   -0.55068  -0.54838  -0.54459  -0.54240  -0.54197
 Alpha  occ. eigenvalues --   -0.53649  -0.53164  -0.53050  -0.52845  -0.52723
 Alpha  occ. eigenvalues --   -0.52533  -0.52142  -0.51927  -0.51656  -0.51591
 Alpha  occ. eigenvalues --   -0.51452  -0.51216  -0.51075  -0.50930  -0.50483
 Alpha  occ. eigenvalues --   -0.50391  -0.50255  -0.50063  -0.49850  -0.49703
 Alpha  occ. eigenvalues --   -0.49516  -0.49484  -0.49002  -0.48759  -0.48670
 Alpha  occ. eigenvalues --   -0.48505  -0.48396  -0.48162  -0.47873  -0.47608
 Alpha  occ. eigenvalues --   -0.47554  -0.47304  -0.47205  -0.47107  -0.46656
 Alpha  occ. eigenvalues --   -0.46619  -0.46510  -0.46131  -0.45973  -0.45590
 Alpha  occ. eigenvalues --   -0.45439  -0.45299  -0.45206  -0.45017  -0.44837
 Alpha  occ. eigenvalues --   -0.44630  -0.44546  -0.44486  -0.44176  -0.43990
 Alpha  occ. eigenvalues --   -0.43912  -0.43707  -0.43633  -0.43589  -0.43388
 Alpha  occ. eigenvalues --   -0.43092  -0.42801  -0.42612  -0.42523  -0.42209
 Alpha  occ. eigenvalues --   -0.42049  -0.41968  -0.41629  -0.41467  -0.41318
 Alpha  occ. eigenvalues --   -0.41146  -0.40995  -0.40602  -0.40375  -0.40356
 Alpha  occ. eigenvalues --   -0.39890  -0.39730  -0.39708  -0.39479  -0.39185
 Alpha  occ. eigenvalues --   -0.38961  -0.38383  -0.38005  -0.37950  -0.37785
 Alpha  occ. eigenvalues --   -0.37188  -0.37179  -0.36891  -0.36440  -0.36116
 Alpha  occ. eigenvalues --   -0.35924  -0.34939  -0.34412  -0.34290  -0.34141
 Alpha  occ. eigenvalues --   -0.33592  -0.33504  -0.32427  -0.31539  -0.31044
 Alpha  occ. eigenvalues --   -0.30062  -0.29255  -0.28871  -0.28190  -0.23884
 Alpha  occ. eigenvalues --   -0.21205
 Alpha virt. eigenvalues --   -0.08614  -0.01676   0.01299   0.01604   0.03357
 Alpha virt. eigenvalues --    0.04858   0.05084   0.05828   0.06038   0.06959
 Alpha virt. eigenvalues --    0.07701   0.07875   0.08265   0.08714   0.09058

 Mulliken charges:
               1
     1  Mg   0.821895
     2  C   -0.089777
     3  C   -0.108046
     4  C   -0.066849
     5  C   -0.072986
     6  N   -0.279755
     7  C   -0.029994
     8  C    0.001392
     9  C   -0.054454
    10  C    0.104275
    11  C    0.073408
    12  C    0.087481
    13  C    0.077573
    14  C    0.135173
    15  O   -0.212521
    16  O   -0.362695
    17  N   -0.414484
    18  C    0.145483
    19  C   -0.127272
    20  C   -0.069908
    21  C    0.164413
    22  C    0.122820
    23  C    0.011061
    24  O   -0.174333
    25  C    0.058204
    26  N   -0.287241
    27  C    0.007784
    28  C   -0.017313
    29  C   -0.033433
    30  C   -0.027785
    31  C    0.083702
    32  C    0.059402
    33  C   -0.012696
    34  N   -0.307590
    35  C    0.147531
    36  C   -0.152440
    37  C   -0.082812
    38  C    0.161105
    39  C    0.158796
    40  C    0.091652
    41  O   -0.176414
    42  C   -0.033642
    43  C    0.203963
    44  O   -0.203808
    45  O   -0.336050
    46  C    0.160773
    47  C    0.259069
    48  C   -0.118350
    49  C   -0.178138
    50  C    0.082230
    51  C    0.102208
    52  C    0.010544
    53  C    0.050821
    54  C   -0.111509
    55  C    0.035633
    56  C    0.051658
    57  C    0.042593
    58  C    0.050099
    59  C   -0.128212
    60  C    0.066911
    61  C    0.032822
    62  C    0.035732
    63  C    0.022265
    64  C   -0.155846
    65  C    0.043305
    66  C    0.056493
    67  H   -0.034690
    68  H   -0.055802
    69  H   -0.039343
    70  H    0.014737
    71  H    0.005372
    72  H    0.000550
    73  H    0.014509
    74  H    0.017470
    75  H    0.000947
    76  H    0.006064
    77  H    0.027942
    78  H    0.035577
    79  H    0.024281
    80  H    0.000463
    81  H    0.050288
    82  H    0.037654
    83  H    0.045452
    84  H    0.031675
    85  H    0.010674
    86  H    0.017342
    87  H    0.023646
    88  H    0.015690
    89  H    0.017990
    90  H    0.010771
    91  H    0.010332
    92  H    0.014028
    93  H    0.010384
    94  H    0.011322
    95  H    0.001808
    96  H   -0.001538
    97  H    0.039590
    98  H    0.041878
    99  H    0.072666
   100  H    0.038829
   101  H    0.044573
   102  H    0.039350
   103  H    0.036602
   104  H    0.006786
   105  H    0.013629
   106  H    0.030896
   107  H    0.010545
   108  H    0.018142
   109  H   -0.014279
   110  H    0.007875
   111  H   -0.007028
   112  H   -0.011835
   113  H   -0.006544
   114  H   -0.007340
   115  H    0.008375
   116  H    0.010356
   117  H   -0.001973
   118  H   -0.000403
   119  H   -0.009852
   120  H   -0.004736
   121  H   -0.006362
   122  H   -0.021605
   123  H   -0.025842
   124  H   -0.012740
   125  H    0.002406
   126  H   -0.007562
   127  H   -0.000022
   128  H   -0.011710
   129  H   -0.006704
   130  H   -0.002948
   131  H   -0.015118
   132  H    0.002591
   133  H   -0.006481
   134  H    0.008827
   135  H    0.004314
   136  H    0.010890
   137  H    0.002162
   138  H   -0.012069
   139  H    0.022279
   140  H    0.000086
 Sum of Mulliken charges =  -0.00000

 Dipole moment (field-independent basis, Debye):
    X=             -1.4240    Y=              5.6331    Z=             -0.5163  Tot=              5.8332
 Quadrupole moment (field-independent basis, Debye-Ang):
   XX=           -386.5276   YY=           -441.3750   ZZ=           -393.2930
   XY=             56.4470   XZ=             13.6008   YZ=             29.2462

 Normal termination of Gaussian 16 at Thu Apr 28 20:03:54 2022.
