 Gaussian 16, Revision A.03,
 Gaussian 16:  ES64L-G16RevA.03 25-Dec-2016

 ---------------------------------
 #p PBE1PBE/Def2SVP td=(nstates=5)
 ---------------------------------

 -----------------------------------------------------
 step_1701_chromophore_5 TDDFT with PBE1PBE functional
 -----------------------------------------------------
 Symbolic Z-matrix:
 Charge =  0 Multiplicity = 1

                         Standard orientation:
 ---------------------------------------------------------------------
 Center     Atomic      Atomic             Coordinates (Angstroms)
 Number     Number       Type             X           Y           Z
 ---------------------------------------------------------------------
      1         12           0        5.665418    0.737318   -0.468591
      2          6           0        4.563272   -2.728126   -0.113116
      3          6           0        2.662674    1.283577   -2.081155
      4          6           0        6.060629    3.969078   -0.006717
      5          6           0        8.161867    0.007038    1.926249
      6          7           0        3.832906   -0.604135   -0.927479
      7          6           0        3.570395   -1.930438   -0.668626
      8          6           0        2.173064   -2.269448   -1.111441
      9          6           0        1.738369   -0.976183   -1.882279
     10          6           0        2.797321    0.034483   -1.589300
     11          6           0        1.420131   -1.224435   -3.384307
     12          6           0        1.125982   -2.633848   -0.050799
     13          6           0        0.250667   -3.849748   -0.414732
     14          6           0       -1.205481   -3.608050   -0.786076
     15          8           0       -2.159873   -4.274072   -0.425199
     16          8           0       -1.326153   -2.481333   -1.591411
     17          7           0        4.681754    2.374289   -1.213399
     18          6           0        3.495431    2.383374   -1.936474
     19          6           0        3.204931    3.739837   -2.394692
     20          6           0        4.248780    4.512138   -1.846449
     21          6           0        5.083852    3.653156   -0.991370
     22          6           0        2.010017    4.123030   -3.190028
     23          6           0        4.549519    6.058549   -2.227782
     24          8           0        3.767220    6.665970   -2.896674
     25          6           0        5.771367    6.773901   -1.833231
     26          7           0        6.836750    1.796142    0.986117
     27          6           0        6.908977    3.187700    0.868543
     28          6           0        8.114998    3.671836    1.611752
     29          6           0        8.684382    2.433423    2.333042
     30          6           0        7.882254    1.359183    1.681469
     31          6           0        9.153089    4.460811    0.790712
     32          6           0        8.484309    2.477725    3.976326
     33          6           0        9.827670    2.426195    4.676459
     34          7           0        6.370128   -0.986399    0.566996
     35          6           0        7.384756   -1.127664    1.485058
     36          6           0        7.401117   -2.370175    2.015890
     37          6           0        6.409420   -3.054827    1.267400
     38          6           0        5.776706   -2.158826    0.421466
     39          6           0        8.186494   -2.841872    3.141451
     40          6           0        5.785940   -4.381367    1.205504
     41          8           0        6.124044   -5.466534    1.680533
     42          6           0        4.515027   -4.192804    0.295367
     43          6           0        4.453221   -5.105857   -0.899999
     44          8           0        5.410278   -5.728665   -1.338402
     45          8           0        3.170985   -5.198640   -1.255622
     46          6           0        2.839334   -6.352993   -2.168479
     47          6           0       -2.737296   -2.107194   -1.920119
     48          6           0       -3.454011   -1.559735   -0.649798
     49          6           0       -4.845559   -1.434600   -0.558785
     50          6           0       -5.795034   -1.799403   -1.686391
     51          6           0       -5.375337   -0.879952    0.758275
     52          6           0       -5.203772    0.644204    0.981399
     53          6           0       -6.332548    1.446228    1.654416
     54          6           0       -7.458470    1.738421    0.591016
     55          6           0       -7.714917    3.257311    0.483952
     56          6           0       -8.804545    0.984837    0.947505
     57          6           0       -9.630576    0.648548   -0.280775
     58          6           0      -10.699819   -0.434931   -0.004860
     59          6           0      -12.075294    0.124444    0.291224
     60          6           0      -12.793613    0.619489   -0.912633
     61          6           0      -13.032250   -0.942069    0.969662
     62          6           0      -14.071816   -0.323988    2.016897
     63          6           0      -15.423344    0.003797    1.383795
     64          6           0      -15.509884    1.620935    1.252787
     65          6           0      -16.168092    2.103466    2.598023
     66          6           0      -16.368188    1.822556   -0.009766
     67          1           0        1.749366    1.502128   -2.639086
     68          1           0        6.337125    5.023102    0.068560
     69          1           0        9.032893   -0.073446    2.579104
     70          1           0        2.279200   -3.107587   -1.800229
     71          1           0        0.870733   -0.514826   -1.411218
     72          1           0        1.034796   -0.311632   -3.838511
     73          1           0        0.600369   -1.933325   -3.506075
     74          1           0        2.305276   -1.565466   -3.922123
     75          1           0        0.441986   -1.793485    0.069913
     76          1           0        1.505865   -2.731569    0.965918
     77          1           0        0.246657   -4.437373    0.502556
     78          1           0        0.691409   -4.392849   -1.250219
     79          1           0        1.062817    4.192406   -2.655606
     80          1           0        1.672005    3.333290   -3.860494
     81          1           0        2.263672    5.027502   -3.743182
     82          1           0        6.676370    6.198040   -2.031525
     83          1           0        5.640326    6.864681   -0.755084
     84          1           0        5.895992    7.778858   -2.236395
     85          1           0        7.648872    4.356962    2.319514
     86          1           0        9.734651    2.288491    2.079472
     87          1           0        9.394124    5.308268    1.432805
     88          1           0        8.788474    4.850187   -0.159779
     89          1           0        9.972262    3.769594    0.591309
     90          1           0        7.918155    1.600680    4.289480
     91          1           0        7.810899    3.253764    4.340144
     92          1           0       10.087736    1.463067    5.117363
     93          1           0        9.942493    3.064385    5.553006
     94          1           0       10.656818    2.653283    4.006439
     95          1           0        7.748937   -2.327788    3.996582
     96          1           0        9.164496   -2.361751    3.180302
     97          1           0        8.192060   -3.893296    3.428253
     98          1           0        3.654515   -4.448382    0.913476
     99          1           0        3.659877   -6.995963   -2.487119
    100          1           0        2.312941   -5.960280   -3.039202
    101          1           0        2.116049   -6.968304   -1.632377
    102          1           0       -3.180593   -3.010095   -2.339437
    103          1           0       -2.776247   -1.319746   -2.672692
    104          1           0       -2.777828   -1.225253    0.136432
    105          1           0       -6.514228   -0.998290   -1.854541
    106          1           0       -6.422419   -2.643160   -1.399763
    107          1           0       -5.326853   -2.004538   -2.650356
    108          1           0       -4.924313   -1.395091    1.605875
    109          1           0       -6.417260   -1.195707    0.727204
    110          1           0       -4.944305    1.237116    0.103957
    111          1           0       -4.463125    0.773445    1.770145
    112          1           0       -5.853199    2.356686    2.016847
    113          1           0       -6.714840    0.986178    2.565011
    114          1           0       -7.141398    1.444558   -0.409817
    115          1           0       -7.622527    3.848258    1.394993
    116          1           0       -8.663453    3.478864   -0.006009
    117          1           0       -6.861794    3.599625   -0.101108
    118          1           0       -9.313167    1.597413    1.692440
    119          1           0       -8.569454    0.014110    1.383069
    120          1           0       -9.050851    0.275602   -1.124481
    121          1           0      -10.274975    1.486373   -0.549460
    122          1           0      -10.361073   -1.187508    0.706275
    123          1           0      -10.841079   -1.102008   -0.855802
    124          1           0      -11.974201    0.991339    0.944245
    125          1           0      -12.265786    0.566267   -1.865150
    126          1           0      -13.046985    1.679577   -0.892150
    127          1           0      -13.788913    0.178691   -0.957434
    128          1           0      -12.457619   -1.709661    1.487725
    129          1           0      -13.578512   -1.451545    0.175724
    130          1           0      -13.629199    0.531087    2.527660
    131          1           0      -14.261948   -1.055948    2.800504
    132          1           0      -16.233265   -0.410657    1.983118
    133          1           0      -15.480299   -0.544189    0.442908
    134          1           0      -14.581092    2.190426    1.217109
    135          1           0      -15.513153    2.718230    3.215729
    136          1           0      -16.466420    1.250711    3.206555
    137          1           0      -17.014052    2.754344    2.374720
    138          1           0      -16.944531    2.728756    0.172764
    139          1           0      -16.948391    0.966385   -0.354156
    140          1           0      -15.815352    2.162680   -0.885745
 ---------------------------------------------------------------------

 SCF Done:  E(RPBE1PBE) =  -3005.34251644     A.U. after   15 cycles

 Excitation energies and oscillator strengths:

 Excited State   1:      Singlet-A      1.8684 eV  663.59 nm  f=0.3406  <S**2>=0.000
     245 -> 248       -0.17532
     246 -> 247        0.69165
     246 <- 247       -0.10395
 This state for optimization and/or second-order correction.
 Total Energy, E(TD-HF/TD-DFT) =  -3005.27385470
 Copying the excited state density for this state as the 1-particle RhoCI density.

 Excited State   2:      Singlet-A      2.2499 eV  551.07 nm  f=0.1316  <S**2>=0.000
     245 -> 247        0.65017
     246 -> 248        0.25919

 Excited State   3:      Singlet-A      2.7514 eV  450.63 nm  f=0.0043  <S**2>=0.000
     242 -> 247       -0.41649
     244 -> 247        0.55096

 Excited State   4:      Singlet-A      2.8029 eV  442.34 nm  f=0.0028  <S**2>=0.000
     242 -> 247        0.54833
     244 -> 247        0.42536

 Excited State   5:      Singlet-A      3.0358 eV  408.40 nm  f=0.0044  <S**2>=0.000
     241 -> 247        0.69227

 The electronic state is 1-A.
 Alpha  occ. eigenvalues --  -46.92641 -19.27244 -19.25745 -19.20297 -19.19561
 Alpha  occ. eigenvalues --  -19.19489 -19.17877 -14.41324 -14.41105 -14.39401
 Alpha  occ. eigenvalues --  -14.37979 -10.36467 -10.36123 -10.32823 -10.30736
 Alpha  occ. eigenvalues --  -10.30144 -10.30003 -10.29630 -10.28889 -10.28161
 Alpha  occ. eigenvalues --  -10.27732 -10.27664 -10.27633 -10.26250 -10.26149
 Alpha  occ. eigenvalues --  -10.25897 -10.25864 -10.25790 -10.25713 -10.25599
 Alpha  occ. eigenvalues --  -10.25574 -10.25306 -10.25184 -10.25085 -10.24905
 Alpha  occ. eigenvalues --  -10.24799 -10.24455 -10.24352 -10.24325 -10.24277
 Alpha  occ. eigenvalues --  -10.24079 -10.24066 -10.23964 -10.23953 -10.23894
 Alpha  occ. eigenvalues --  -10.23537 -10.23415 -10.23400 -10.23359 -10.23304
 Alpha  occ. eigenvalues --  -10.23213 -10.22943 -10.22692 -10.22628 -10.22507
 Alpha  occ. eigenvalues --  -10.22456 -10.22425 -10.22397 -10.22371 -10.22124
 Alpha  occ. eigenvalues --  -10.21799 -10.21785 -10.21736 -10.21572 -10.21348
 Alpha  occ. eigenvalues --  -10.21051  -3.14642  -1.87450  -1.87041  -1.86843
 Alpha  occ. eigenvalues --   -1.12120  -1.10526  -1.06876  -1.02943  -1.02357
 Alpha  occ. eigenvalues --   -1.02191  -0.99279  -0.98484  -0.97935  -0.96845
 Alpha  occ. eigenvalues --   -0.86366  -0.84347  -0.83811  -0.83441  -0.83358
 Alpha  occ. eigenvalues --   -0.83282  -0.82213  -0.82094  -0.81321  -0.81252
 Alpha  occ. eigenvalues --   -0.80661  -0.79420  -0.78407  -0.78094  -0.77813
 Alpha  occ. eigenvalues --   -0.77049  -0.76297  -0.75821  -0.75241  -0.74654
 Alpha  occ. eigenvalues --   -0.74031  -0.72351  -0.72136  -0.71824  -0.70745
 Alpha  occ. eigenvalues --   -0.70520  -0.70088  -0.69618  -0.68995  -0.67835
 Alpha  occ. eigenvalues --   -0.67780  -0.66809  -0.66530  -0.64746  -0.63849
 Alpha  occ. eigenvalues --   -0.62895  -0.62798  -0.61341  -0.60770  -0.60479
 Alpha  occ. eigenvalues --   -0.59605  -0.59202  -0.59014  -0.58854  -0.58065
 Alpha  occ. eigenvalues --   -0.57718  -0.57659  -0.57152  -0.56820  -0.54633
 Alpha  occ. eigenvalues --   -0.54526  -0.54092  -0.53761  -0.53300  -0.52787
 Alpha  occ. eigenvalues --   -0.52236  -0.51777  -0.51331  -0.50580  -0.49907
 Alpha  occ. eigenvalues --   -0.49546  -0.49413  -0.48906  -0.48873  -0.48762
 Alpha  occ. eigenvalues --   -0.48150  -0.47662  -0.47563  -0.47244  -0.47139
 Alpha  occ. eigenvalues --   -0.47018  -0.46765  -0.46499  -0.46253  -0.46152
 Alpha  occ. eigenvalues --   -0.46037  -0.45715  -0.45520  -0.45444  -0.45059
 Alpha  occ. eigenvalues --   -0.44946  -0.44777  -0.44584  -0.44466  -0.44212
 Alpha  occ. eigenvalues --   -0.44101  -0.44059  -0.43543  -0.43457  -0.43235
 Alpha  occ. eigenvalues --   -0.43103  -0.43091  -0.42725  -0.42497  -0.42240
 Alpha  occ. eigenvalues --   -0.42142  -0.41987  -0.41821  -0.41731  -0.41409
 Alpha  occ. eigenvalues --   -0.41200  -0.41091  -0.40846  -0.40730  -0.40380
 Alpha  occ. eigenvalues --   -0.40237  -0.40018  -0.39919  -0.39712  -0.39453
 Alpha  occ. eigenvalues --   -0.39429  -0.39221  -0.39185  -0.38974  -0.38840
 Alpha  occ. eigenvalues --   -0.38623  -0.38526  -0.38424  -0.38368  -0.38110
 Alpha  occ. eigenvalues --   -0.37913  -0.37552  -0.37384  -0.37260  -0.37080
 Alpha  occ. eigenvalues --   -0.36942  -0.36784  -0.36404  -0.36293  -0.36157
 Alpha  occ. eigenvalues --   -0.36043  -0.35736  -0.35574  -0.35281  -0.35092
 Alpha  occ. eigenvalues --   -0.34686  -0.34614  -0.34487  -0.34193  -0.33951
 Alpha  occ. eigenvalues --   -0.33869  -0.33119  -0.32897  -0.32772  -0.32731
 Alpha  occ. eigenvalues --   -0.32187  -0.31972  -0.31931  -0.31383  -0.31125
 Alpha  occ. eigenvalues --   -0.30763  -0.29852  -0.29466  -0.29265  -0.29127
 Alpha  occ. eigenvalues --   -0.28671  -0.28427  -0.27951  -0.26774  -0.26118
 Alpha  occ. eigenvalues --   -0.25254  -0.24347  -0.24168  -0.24090  -0.20793
 Alpha  occ. eigenvalues --   -0.18763
 Alpha virt. eigenvalues --   -0.11047  -0.05166  -0.02791  -0.01307  -0.01052
 Alpha virt. eigenvalues --    0.00423   0.00517   0.01288   0.01570   0.02902
 Alpha virt. eigenvalues --    0.03781   0.04659   0.04759   0.04993   0.05803

 Mulliken charges:
               1
     1  Mg   0.960152
     2  C   -0.103387
     3  C   -0.094716
     4  C   -0.072017
     5  C   -0.063268
     6  N   -0.383410
     7  C    0.052242
     8  C   -0.077432
     9  C   -0.134048
    10  C    0.143438
    11  C    0.012417
    12  C    0.041293
    13  C   -0.005007
    14  C    0.201461
    15  O   -0.245186
    16  O   -0.390634
    17  N   -0.528553
    18  C    0.164493
    19  C   -0.155228
    20  C   -0.110715
    21  C    0.187132
    22  C    0.066587
    23  C    0.061520
    24  O   -0.210648
    25  C   -0.018344
    26  N   -0.388798
    27  C    0.048965
    28  C   -0.096536
    29  C   -0.111906
    30  C    0.016756
    31  C    0.024104
    32  C    0.004511
    33  C   -0.084319
    34  N   -0.439565
    35  C    0.170583
    36  C   -0.175592
    37  C   -0.143246
    38  C    0.231950
    39  C    0.103429
    40  C    0.198460
    41  O   -0.221083
    42  C   -0.141957
    43  C    0.298024
    44  O   -0.239433
    45  O   -0.367629
    46  C    0.104061
    47  C    0.217314
    48  C   -0.126210
    49  C   -0.218224
    50  C    0.013364
    51  C    0.038708
    52  C   -0.060172
    53  C    0.001576
    54  C   -0.198388
    55  C   -0.023710
    56  C   -0.002086
    57  C   -0.029552
    58  C    0.002608
    59  C   -0.216248
    60  C    0.011968
    61  C   -0.027077
    62  C   -0.021731
    63  C   -0.036644
    64  C   -0.248126
    65  C   -0.011843
    66  C   -0.003386
    67  H   -0.004171
    68  H   -0.019781
    69  H   -0.006299
    70  H    0.055596
    71  H    0.043285
    72  H    0.028688
    73  H    0.044194
    74  H    0.045419
    75  H    0.035107
    76  H    0.037692
    77  H    0.060261
    78  H    0.070669
    79  H    0.050860
    80  H    0.026739
    81  H    0.076789
    82  H    0.064635
    83  H    0.070936
    84  H    0.058718
    85  H    0.048265
    86  H    0.052640
    87  H    0.050878
    88  H    0.043923
    89  H    0.044633
    90  H    0.043351
    91  H    0.041535
    92  H    0.040714
    93  H    0.038854
    94  H    0.038823
    95  H    0.033065
    96  H    0.028157
    97  H    0.066985
    98  H    0.079519
    99  H    0.093025
   100  H    0.059378
   101  H    0.066215
   102  H    0.065135
   103  H    0.062924
   104  H    0.035865
   105  H    0.043829
   106  H    0.058246
   107  H    0.036774
   108  H    0.049744
   109  H    0.021204
   110  H    0.040644
   111  H    0.026695
   112  H    0.020914
   113  H    0.024881
   114  H    0.030785
   115  H    0.035490
   116  H    0.038483
   117  H    0.027256
   118  H    0.031585
   119  H    0.023301
   120  H    0.028346
   121  H    0.029006
   122  H    0.009393
   123  H    0.007560
   124  H    0.025868
   125  H    0.029461
   126  H    0.019853
   127  H    0.029289
   128  H    0.020851
   129  H    0.025934
   130  H    0.029134
   131  H    0.018508
   132  H    0.034542
   133  H    0.023982
   134  H    0.044167
   135  H    0.031429
   136  H    0.037287
   137  H    0.028913
   138  H    0.015745
   139  H    0.048388
   140  H    0.028226
 Sum of Mulliken charges =  -0.00000

 Dipole moment (field-independent basis, Debye):
    X=             -1.1920    Y=              5.2251    Z=             -0.1484  Tot=              5.3614
 Quadrupole moment (field-independent basis, Debye-Ang):
   XX=           -379.3898   YY=           -439.2684   ZZ=           -389.8116
   XY=             54.5596   XZ=             16.6385   YZ=             29.6992

 Normal termination of Gaussian 16 at Thu Apr 28 20:33:30 2022.
