 Gaussian 16, Revision A.03,
 Gaussian 16:  ES64L-G16RevA.03 25-Dec-2016

 --------------------------------
 #p wB97XD/Def2SVP td=(nstates=5)
 --------------------------------

 ----------------------------------------------------
 step_1701_chromophore_5 TDDFT with wB97XD functional
 ----------------------------------------------------
 Symbolic Z-matrix:
 Charge =  0 Multiplicity = 1

                         Standard orientation:
 ---------------------------------------------------------------------
 Center     Atomic      Atomic             Coordinates (Angstroms)
 Number     Number       Type             X           Y           Z
 ---------------------------------------------------------------------
      1         12           0        5.665418    0.737318   -0.468591
      2          6           0        4.563272   -2.728126   -0.113116
      3          6           0        2.662674    1.283577   -2.081155
      4          6           0        6.060629    3.969078   -0.006717
      5          6           0        8.161867    0.007038    1.926249
      6          7           0        3.832906   -0.604135   -0.927479
      7          6           0        3.570395   -1.930438   -0.668626
      8          6           0        2.173064   -2.269448   -1.111441
      9          6           0        1.738369   -0.976183   -1.882279
     10          6           0        2.797321    0.034483   -1.589300
     11          6           0        1.420131   -1.224435   -3.384307
     12          6           0        1.125982   -2.633848   -0.050799
     13          6           0        0.250667   -3.849748   -0.414732
     14          6           0       -1.205481   -3.608050   -0.786076
     15          8           0       -2.159873   -4.274072   -0.425199
     16          8           0       -1.326153   -2.481333   -1.591411
     17          7           0        4.681754    2.374289   -1.213399
     18          6           0        3.495431    2.383374   -1.936474
     19          6           0        3.204931    3.739837   -2.394692
     20          6           0        4.248780    4.512138   -1.846449
     21          6           0        5.083852    3.653156   -0.991370
     22          6           0        2.010017    4.123030   -3.190028
     23          6           0        4.549519    6.058549   -2.227782
     24          8           0        3.767220    6.665970   -2.896674
     25          6           0        5.771367    6.773901   -1.833231
     26          7           0        6.836750    1.796142    0.986117
     27          6           0        6.908977    3.187700    0.868543
     28          6           0        8.114998    3.671836    1.611752
     29          6           0        8.684382    2.433423    2.333042
     30          6           0        7.882254    1.359183    1.681469
     31          6           0        9.153089    4.460811    0.790712
     32          6           0        8.484309    2.477725    3.976326
     33          6           0        9.827670    2.426195    4.676459
     34          7           0        6.370128   -0.986399    0.566996
     35          6           0        7.384756   -1.127664    1.485058
     36          6           0        7.401117   -2.370175    2.015890
     37          6           0        6.409420   -3.054827    1.267400
     38          6           0        5.776706   -2.158826    0.421466
     39          6           0        8.186494   -2.841872    3.141451
     40          6           0        5.785940   -4.381367    1.205504
     41          8           0        6.124044   -5.466534    1.680533
     42          6           0        4.515027   -4.192804    0.295367
     43          6           0        4.453221   -5.105857   -0.899999
     44          8           0        5.410278   -5.728665   -1.338402
     45          8           0        3.170985   -5.198640   -1.255622
     46          6           0        2.839334   -6.352993   -2.168479
     47          6           0       -2.737296   -2.107194   -1.920119
     48          6           0       -3.454011   -1.559735   -0.649798
     49          6           0       -4.845559   -1.434600   -0.558785
     50          6           0       -5.795034   -1.799403   -1.686391
     51          6           0       -5.375337   -0.879952    0.758275
     52          6           0       -5.203772    0.644204    0.981399
     53          6           0       -6.332548    1.446228    1.654416
     54          6           0       -7.458470    1.738421    0.591016
     55          6           0       -7.714917    3.257311    0.483952
     56          6           0       -8.804545    0.984837    0.947505
     57          6           0       -9.630576    0.648548   -0.280775
     58          6           0      -10.699819   -0.434931   -0.004860
     59          6           0      -12.075294    0.124444    0.291224
     60          6           0      -12.793613    0.619489   -0.912633
     61          6           0      -13.032250   -0.942069    0.969662
     62          6           0      -14.071816   -0.323988    2.016897
     63          6           0      -15.423344    0.003797    1.383795
     64          6           0      -15.509884    1.620935    1.252787
     65          6           0      -16.168092    2.103466    2.598023
     66          6           0      -16.368188    1.822556   -0.009766
     67          1           0        1.749366    1.502128   -2.639086
     68          1           0        6.337125    5.023102    0.068560
     69          1           0        9.032893   -0.073446    2.579104
     70          1           0        2.279200   -3.107587   -1.800229
     71          1           0        0.870733   -0.514826   -1.411218
     72          1           0        1.034796   -0.311632   -3.838511
     73          1           0        0.600369   -1.933325   -3.506075
     74          1           0        2.305276   -1.565466   -3.922123
     75          1           0        0.441986   -1.793485    0.069913
     76          1           0        1.505865   -2.731569    0.965918
     77          1           0        0.246657   -4.437373    0.502556
     78          1           0        0.691409   -4.392849   -1.250219
     79          1           0        1.062817    4.192406   -2.655606
     80          1           0        1.672005    3.333290   -3.860494
     81          1           0        2.263672    5.027502   -3.743182
     82          1           0        6.676370    6.198040   -2.031525
     83          1           0        5.640326    6.864681   -0.755084
     84          1           0        5.895992    7.778858   -2.236395
     85          1           0        7.648872    4.356962    2.319514
     86          1           0        9.734651    2.288491    2.079472
     87          1           0        9.394124    5.308268    1.432805
     88          1           0        8.788474    4.850187   -0.159779
     89          1           0        9.972262    3.769594    0.591309
     90          1           0        7.918155    1.600680    4.289480
     91          1           0        7.810899    3.253764    4.340144
     92          1           0       10.087736    1.463067    5.117363
     93          1           0        9.942493    3.064385    5.553006
     94          1           0       10.656818    2.653283    4.006439
     95          1           0        7.748937   -2.327788    3.996582
     96          1           0        9.164496   -2.361751    3.180302
     97          1           0        8.192060   -3.893296    3.428253
     98          1           0        3.654515   -4.448382    0.913476
     99          1           0        3.659877   -6.995963   -2.487119
    100          1           0        2.312941   -5.960280   -3.039202
    101          1           0        2.116049   -6.968304   -1.632377
    102          1           0       -3.180593   -3.010095   -2.339437
    103          1           0       -2.776247   -1.319746   -2.672692
    104          1           0       -2.777828   -1.225253    0.136432
    105          1           0       -6.514228   -0.998290   -1.854541
    106          1           0       -6.422419   -2.643160   -1.399763
    107          1           0       -5.326853   -2.004538   -2.650356
    108          1           0       -4.924313   -1.395091    1.605875
    109          1           0       -6.417260   -1.195707    0.727204
    110          1           0       -4.944305    1.237116    0.103957
    111          1           0       -4.463125    0.773445    1.770145
    112          1           0       -5.853199    2.356686    2.016847
    113          1           0       -6.714840    0.986178    2.565011
    114          1           0       -7.141398    1.444558   -0.409817
    115          1           0       -7.622527    3.848258    1.394993
    116          1           0       -8.663453    3.478864   -0.006009
    117          1           0       -6.861794    3.599625   -0.101108
    118          1           0       -9.313167    1.597413    1.692440
    119          1           0       -8.569454    0.014110    1.383069
    120          1           0       -9.050851    0.275602   -1.124481
    121          1           0      -10.274975    1.486373   -0.549460
    122          1           0      -10.361073   -1.187508    0.706275
    123          1           0      -10.841079   -1.102008   -0.855802
    124          1           0      -11.974201    0.991339    0.944245
    125          1           0      -12.265786    0.566267   -1.865150
    126          1           0      -13.046985    1.679577   -0.892150
    127          1           0      -13.788913    0.178691   -0.957434
    128          1           0      -12.457619   -1.709661    1.487725
    129          1           0      -13.578512   -1.451545    0.175724
    130          1           0      -13.629199    0.531087    2.527660
    131          1           0      -14.261948   -1.055948    2.800504
    132          1           0      -16.233265   -0.410657    1.983118
    133          1           0      -15.480299   -0.544189    0.442908
    134          1           0      -14.581092    2.190426    1.217109
    135          1           0      -15.513153    2.718230    3.215729
    136          1           0      -16.466420    1.250711    3.206555
    137          1           0      -17.014052    2.754344    2.374720
    138          1           0      -16.944531    2.728756    0.172764
    139          1           0      -16.948391    0.966385   -0.354156
    140          1           0      -15.815352    2.162680   -0.885745
 ---------------------------------------------------------------------

 SCF Done:  E(RwB97XD) =  -3007.85571154     A.U. after   19 cycles

 Excitation energies and oscillator strengths:

 Excited State   1:      Singlet-A      1.6856 eV  735.57 nm  f=0.3561  <S**2>=0.000
     245 -> 248       -0.17881
     246 -> 247        0.68468
     245 <- 248       -0.11319
 This state for optimization and/or second-order correction.
 Total Energy, E(TD-HF/TD-DFT) =  -3007.79376820
 Copying the excited state density for this state as the 1-particle RhoCI density.

 Excited State   2:      Singlet-A      2.1858 eV  567.23 nm  f=0.1342  <S**2>=0.000
     245 -> 247        0.63903
     246 -> 248        0.28138

 Excited State   3:      Singlet-A      3.1729 eV  390.76 nm  f=0.0046  <S**2>=0.000
     244 -> 247        0.68156

 Excited State   4:      Singlet-A      3.3993 eV  364.74 nm  f=0.0228  <S**2>=0.000
     239 -> 247       -0.11927
     241 -> 247        0.58729
     242 -> 247       -0.20317
     246 -> 248       -0.23358

 Excited State   5:      Singlet-A      3.4648 eV  357.84 nm  f=0.0004  <S**2>=0.000
     241 -> 247        0.22647
     242 -> 247        0.55709
     242 -> 249        0.23317
     242 -> 251       -0.22995

 The electronic state is 1-A.
 Alpha  occ. eigenvalues --  -46.95629 -19.31731 -19.30297 -19.24953 -19.24547
 Alpha  occ. eigenvalues --  -19.24142 -19.22371 -14.46453 -14.46219 -14.44562
 Alpha  occ. eigenvalues --  -14.42700 -10.43224 -10.42832 -10.39877 -10.37320
 Alpha  occ. eigenvalues --  -10.36628 -10.36501 -10.36214 -10.35693 -10.34490
 Alpha  occ. eigenvalues --  -10.34359 -10.34287 -10.33690 -10.33049 -10.32495
 Alpha  occ. eigenvalues --  -10.32397 -10.32129 -10.32082 -10.32059 -10.31784
 Alpha  occ. eigenvalues --  -10.31664 -10.31605 -10.31432 -10.31295 -10.31285
 Alpha  occ. eigenvalues --  -10.31012 -10.30804 -10.30772 -10.30633 -10.30627
 Alpha  occ. eigenvalues --  -10.30562 -10.30556 -10.30459 -10.30426 -10.30352
 Alpha  occ. eigenvalues --  -10.30104 -10.29836 -10.29816 -10.29792 -10.29541
 Alpha  occ. eigenvalues --  -10.29431 -10.29334 -10.29004 -10.28998 -10.28860
 Alpha  occ. eigenvalues --  -10.28771 -10.28767 -10.28740 -10.28677 -10.28487
 Alpha  occ. eigenvalues --  -10.28258 -10.28210 -10.28122 -10.28006 -10.27531
 Alpha  occ. eigenvalues --  -10.27250  -3.21511  -1.95065  -1.94657  -1.94454
 Alpha  occ. eigenvalues --   -1.19429  -1.17901  -1.14572  -1.10191  -1.09691
 Alpha  occ. eigenvalues --   -1.09399  -1.06577  -1.05695  -1.05579  -1.04298
 Alpha  occ. eigenvalues --   -0.93845  -0.92041  -0.91481  -0.91122  -0.91021
 Alpha  occ. eigenvalues --   -0.90938  -0.89905  -0.89703  -0.88949  -0.88867
 Alpha  occ. eigenvalues --   -0.88343  -0.87126  -0.86130  -0.85697  -0.85502
 Alpha  occ. eigenvalues --   -0.84784  -0.83981  -0.83461  -0.82870  -0.82295
 Alpha  occ. eigenvalues --   -0.81690  -0.79932  -0.79851  -0.79508  -0.78281
 Alpha  occ. eigenvalues --   -0.78202  -0.77696  -0.77326  -0.76693  -0.75476
 Alpha  occ. eigenvalues --   -0.75283  -0.74412  -0.74113  -0.72377  -0.71391
 Alpha  occ. eigenvalues --   -0.70487  -0.70389  -0.68909  -0.68281  -0.68130
 Alpha  occ. eigenvalues --   -0.67006  -0.66881  -0.66519  -0.66417  -0.65750
 Alpha  occ. eigenvalues --   -0.65397  -0.65000  -0.64804  -0.64277  -0.62269
 Alpha  occ. eigenvalues --   -0.62082  -0.61518  -0.61118  -0.60682  -0.60114
 Alpha  occ. eigenvalues --   -0.59754  -0.59216  -0.58795  -0.57976  -0.57283
 Alpha  occ. eigenvalues --   -0.56967  -0.56765  -0.56345  -0.56199  -0.56155
 Alpha  occ. eigenvalues --   -0.55567  -0.55048  -0.55001  -0.54772  -0.54629
 Alpha  occ. eigenvalues --   -0.54518  -0.54063  -0.53846  -0.53578  -0.53496
 Alpha  occ. eigenvalues --   -0.53380  -0.53092  -0.53020  -0.52814  -0.52404
 Alpha  occ. eigenvalues --   -0.52275  -0.52147  -0.51978  -0.51751  -0.51643
 Alpha  occ. eigenvalues --   -0.51421  -0.51385  -0.50872  -0.50696  -0.50603
 Alpha  occ. eigenvalues --   -0.50418  -0.50278  -0.50070  -0.49785  -0.49537
 Alpha  occ. eigenvalues --   -0.49433  -0.49217  -0.49190  -0.49034  -0.48578
 Alpha  occ. eigenvalues --   -0.48469  -0.48369  -0.48077  -0.47857  -0.47497
 Alpha  occ. eigenvalues --   -0.47361  -0.47178  -0.47100  -0.46901  -0.46690
 Alpha  occ. eigenvalues --   -0.46588  -0.46478  -0.46371  -0.46108  -0.45915
 Alpha  occ. eigenvalues --   -0.45773  -0.45633  -0.45563  -0.45505  -0.45318
 Alpha  occ. eigenvalues --   -0.45012  -0.44670  -0.44612  -0.44426  -0.44117
 Alpha  occ. eigenvalues --   -0.43967  -0.43859  -0.43509  -0.43374  -0.43251
 Alpha  occ. eigenvalues --   -0.43077  -0.42838  -0.42534  -0.42256  -0.42214
 Alpha  occ. eigenvalues --   -0.41753  -0.41655  -0.41567  -0.41311  -0.41038
 Alpha  occ. eigenvalues --   -0.40857  -0.40208  -0.39896  -0.39841  -0.39713
 Alpha  occ. eigenvalues --   -0.39244  -0.39033  -0.38933  -0.38392  -0.38074
 Alpha  occ. eigenvalues --   -0.37767  -0.36792  -0.36409  -0.36237  -0.35980
 Alpha  occ. eigenvalues --   -0.35549  -0.35349  -0.34608  -0.33632  -0.33184
 Alpha  occ. eigenvalues --   -0.32260  -0.31171  -0.30901  -0.30296  -0.25811
 Alpha  occ. eigenvalues --   -0.23030
 Alpha virt. eigenvalues --   -0.06950   0.00249   0.03478   0.04673   0.05475
 Alpha virt. eigenvalues --    0.07100   0.07344   0.08191   0.08370   0.09470
 Alpha virt. eigenvalues --    0.10467   0.11340   0.11401   0.11592   0.12492

 Mulliken charges:
               1
     1  Mg   0.953379
     2  C   -0.104345
     3  C   -0.114168
     4  C   -0.082780
     5  C   -0.077490
     6  N   -0.347065
     7  C    0.015024
     8  C   -0.043868
     9  C   -0.104768
    10  C    0.130148
    11  C    0.026894
    12  C    0.051383
    13  C    0.014462
    14  C    0.191864
    15  O   -0.243075
    16  O   -0.391082
    17  N   -0.499388
    18  C    0.162124
    19  C   -0.145671
    20  C   -0.106355
    21  C    0.188067
    22  C    0.077832
    23  C    0.059078
    24  O   -0.205768
    25  C   -0.006944
    26  N   -0.355973
    27  C    0.037453
    28  C   -0.070805
    29  C   -0.083190
    30  C   -0.000682
    31  C    0.035907
    32  C    0.015381
    33  C   -0.067739
    34  N   -0.399747
    35  C    0.158810
    36  C   -0.167663
    37  C   -0.133887
    38  C    0.204374
    39  C    0.112072
    40  C    0.171747
    41  O   -0.213074
    42  C   -0.102838
    43  C    0.275198
    44  O   -0.235348
    45  O   -0.365911
    46  C    0.118639
    47  C    0.233887
    48  C   -0.137780
    49  C   -0.206799
    50  C    0.030314
    51  C    0.056204
    52  C   -0.038297
    53  C    0.010331
    54  C   -0.167186
    55  C   -0.011414
    56  C    0.014188
    57  C   -0.007278
    58  C    0.014533
    59  C   -0.183262
    60  C    0.021733
    61  C   -0.003881
    62  C   -0.010272
    63  C   -0.017129
    64  C   -0.219783
    65  C   -0.001214
    66  C    0.009854
    67  H   -0.012575
    68  H   -0.033479
    69  H   -0.013701
    70  H    0.036661
    71  H    0.030996
    72  H    0.021951
    73  H    0.037032
    74  H    0.039933
    75  H    0.023508
    76  H    0.032165
    77  H    0.056129
    78  H    0.059321
    79  H    0.048538
    80  H    0.022020
    81  H    0.073953
    82  H    0.059137
    83  H    0.065942
    84  H    0.059211
    85  H    0.037222
    86  H    0.039581
    87  H    0.046301
    88  H    0.036412
    89  H    0.039512
    90  H    0.034935
    91  H    0.034629
    92  H    0.035044
    93  H    0.033298
    94  H    0.031090
    95  H    0.024773
    96  H    0.020433
    97  H    0.064787
    98  H    0.071596
    99  H    0.090542
   100  H    0.055561
   101  H    0.062398
   102  H    0.059155
   103  H    0.058603
   104  H    0.032400
   105  H    0.035691
   106  H    0.053160
   107  H    0.032026
   108  H    0.044488
   109  H    0.008850
   110  H    0.030257
   111  H    0.019123
   112  H    0.013480
   113  H    0.018138
   114  H    0.014319
   115  H    0.029503
   116  H    0.032486
   117  H    0.019943
   118  H    0.023880
   119  H    0.009967
   120  H    0.020656
   121  H    0.015634
   122  H    0.000688
   123  H   -0.001473
   124  H    0.010055
   125  H    0.025052
   126  H    0.013356
   127  H    0.016258
   128  H    0.013225
   129  H    0.014396
   130  H    0.018670
   131  H    0.012164
   132  H    0.026516
   133  H    0.012256
   134  H    0.032576
   135  H    0.026287
   136  H    0.030253
   137  H    0.022727
   138  H    0.008796
   139  H    0.043007
   140  H    0.021618
 Sum of Mulliken charges =  -0.00000

 Dipole moment (field-independent basis, Debye):
    X=             -1.4815    Y=              5.8916    Z=             -0.6014  Tot=              6.1047
 Quadrupole moment (field-independent basis, Debye-Ang):
   XX=           -382.5841   YY=           -437.6253   ZZ=           -389.4228
   XY=             57.8724   XZ=             14.0283   YZ=             29.1091

 Normal termination of Gaussian 16 at Thu Apr 28 21:11:31 2022.
