 Gaussian 16, Revision A.03,
 Gaussian 16:  ES64L-G16RevA.03 25-Dec-2016

 --------------------
 #p ZINDO=(nstates=5)
 --------------------

 -----------------------------
 step_1701_chromophore_5 ZINDO
 -----------------------------
 Symbolic Z-matrix:
 Charge =  0 Multiplicity = 1

                         Standard orientation:
 ---------------------------------------------------------------------
 Center     Atomic      Atomic             Coordinates (Angstroms)
 Number     Number       Type             X           Y           Z
 ---------------------------------------------------------------------
      1         12           0        5.665418    0.737318   -0.468591
      2          6           0        4.563272   -2.728126   -0.113116
      3          6           0        2.662674    1.283577   -2.081155
      4          6           0        6.060629    3.969078   -0.006717
      5          6           0        8.161867    0.007038    1.926249
      6          7           0        3.832906   -0.604135   -0.927479
      7          6           0        3.570395   -1.930438   -0.668626
      8          6           0        2.173064   -2.269448   -1.111441
      9          6           0        1.738369   -0.976183   -1.882279
     10          6           0        2.797321    0.034483   -1.589300
     11          6           0        1.420131   -1.224435   -3.384307
     12          6           0        1.125982   -2.633848   -0.050799
     13          6           0        0.250667   -3.849748   -0.414732
     14          6           0       -1.205481   -3.608050   -0.786076
     15          8           0       -2.159873   -4.274072   -0.425199
     16          8           0       -1.326153   -2.481333   -1.591411
     17          7           0        4.681754    2.374289   -1.213399
     18          6           0        3.495431    2.383374   -1.936474
     19          6           0        3.204931    3.739837   -2.394692
     20          6           0        4.248780    4.512138   -1.846449
     21          6           0        5.083852    3.653156   -0.991370
     22          6           0        2.010017    4.123030   -3.190028
     23          6           0        4.549519    6.058549   -2.227782
     24          8           0        3.767220    6.665970   -2.896674
     25          6           0        5.771367    6.773901   -1.833231
     26          7           0        6.836750    1.796142    0.986117
     27          6           0        6.908977    3.187700    0.868543
     28          6           0        8.114998    3.671836    1.611752
     29          6           0        8.684382    2.433423    2.333042
     30          6           0        7.882254    1.359183    1.681469
     31          6           0        9.153089    4.460811    0.790712
     32          6           0        8.484309    2.477725    3.976326
     33          6           0        9.827670    2.426195    4.676459
     34          7           0        6.370128   -0.986399    0.566996
     35          6           0        7.384756   -1.127664    1.485058
     36          6           0        7.401117   -2.370175    2.015890
     37          6           0        6.409420   -3.054827    1.267400
     38          6           0        5.776706   -2.158826    0.421466
     39          6           0        8.186494   -2.841872    3.141451
     40          6           0        5.785940   -4.381367    1.205504
     41          8           0        6.124044   -5.466534    1.680533
     42          6           0        4.515027   -4.192804    0.295367
     43          6           0        4.453221   -5.105857   -0.899999
     44          8           0        5.410278   -5.728665   -1.338402
     45          8           0        3.170985   -5.198640   -1.255622
     46          6           0        2.839334   -6.352993   -2.168479
     47          6           0       -2.737296   -2.107194   -1.920119
     48          6           0       -3.454011   -1.559735   -0.649798
     49          6           0       -4.845559   -1.434600   -0.558785
     50          6           0       -5.795034   -1.799403   -1.686391
     51          6           0       -5.375337   -0.879952    0.758275
     52          6           0       -5.203772    0.644204    0.981399
     53          6           0       -6.332548    1.446228    1.654416
     54          6           0       -7.458470    1.738421    0.591016
     55          6           0       -7.714917    3.257311    0.483952
     56          6           0       -8.804545    0.984837    0.947505
     57          6           0       -9.630576    0.648548   -0.280775
     58          6           0      -10.699819   -0.434931   -0.004860
     59          6           0      -12.075294    0.124444    0.291224
     60          6           0      -12.793613    0.619489   -0.912633
     61          6           0      -13.032250   -0.942069    0.969662
     62          6           0      -14.071816   -0.323988    2.016897
     63          6           0      -15.423344    0.003797    1.383795
     64          6           0      -15.509884    1.620935    1.252787
     65          6           0      -16.168092    2.103466    2.598023
     66          6           0      -16.368188    1.822556   -0.009766
     67          1           0        1.749366    1.502128   -2.639086
     68          1           0        6.337125    5.023102    0.068560
     69          1           0        9.032893   -0.073446    2.579104
     70          1           0        2.279200   -3.107587   -1.800229
     71          1           0        0.870733   -0.514826   -1.411218
     72          1           0        1.034796   -0.311632   -3.838511
     73          1           0        0.600369   -1.933325   -3.506075
     74          1           0        2.305276   -1.565466   -3.922123
     75          1           0        0.441986   -1.793485    0.069913
     76          1           0        1.505865   -2.731569    0.965918
     77          1           0        0.246657   -4.437373    0.502556
     78          1           0        0.691409   -4.392849   -1.250219
     79          1           0        1.062817    4.192406   -2.655606
     80          1           0        1.672005    3.333290   -3.860494
     81          1           0        2.263672    5.027502   -3.743182
     82          1           0        6.676370    6.198040   -2.031525
     83          1           0        5.640326    6.864681   -0.755084
     84          1           0        5.895992    7.778858   -2.236395
     85          1           0        7.648872    4.356962    2.319514
     86          1           0        9.734651    2.288491    2.079472
     87          1           0        9.394124    5.308268    1.432805
     88          1           0        8.788474    4.850187   -0.159779
     89          1           0        9.972262    3.769594    0.591309
     90          1           0        7.918155    1.600680    4.289480
     91          1           0        7.810899    3.253764    4.340144
     92          1           0       10.087736    1.463067    5.117363
     93          1           0        9.942493    3.064385    5.553006
     94          1           0       10.656818    2.653283    4.006439
     95          1           0        7.748937   -2.327788    3.996582
     96          1           0        9.164496   -2.361751    3.180302
     97          1           0        8.192060   -3.893296    3.428253
     98          1           0        3.654515   -4.448382    0.913476
     99          1           0        3.659877   -6.995963   -2.487119
    100          1           0        2.312941   -5.960280   -3.039202
    101          1           0        2.116049   -6.968304   -1.632377
    102          1           0       -3.180593   -3.010095   -2.339437
    103          1           0       -2.776247   -1.319746   -2.672692
    104          1           0       -2.777828   -1.225253    0.136432
    105          1           0       -6.514228   -0.998290   -1.854541
    106          1           0       -6.422419   -2.643160   -1.399763
    107          1           0       -5.326853   -2.004538   -2.650356
    108          1           0       -4.924313   -1.395091    1.605875
    109          1           0       -6.417260   -1.195707    0.727204
    110          1           0       -4.944305    1.237116    0.103957
    111          1           0       -4.463125    0.773445    1.770145
    112          1           0       -5.853199    2.356686    2.016847
    113          1           0       -6.714840    0.986178    2.565011
    114          1           0       -7.141398    1.444558   -0.409817
    115          1           0       -7.622527    3.848258    1.394993
    116          1           0       -8.663453    3.478864   -0.006009
    117          1           0       -6.861794    3.599625   -0.101108
    118          1           0       -9.313167    1.597413    1.692440
    119          1           0       -8.569454    0.014110    1.383069
    120          1           0       -9.050851    0.275602   -1.124481
    121          1           0      -10.274975    1.486373   -0.549460
    122          1           0      -10.361073   -1.187508    0.706275
    123          1           0      -10.841079   -1.102008   -0.855802
    124          1           0      -11.974201    0.991339    0.944245
    125          1           0      -12.265786    0.566267   -1.865150
    126          1           0      -13.046985    1.679577   -0.892150
    127          1           0      -13.788913    0.178691   -0.957434
    128          1           0      -12.457619   -1.709661    1.487725
    129          1           0      -13.578512   -1.451545    0.175724
    130          1           0      -13.629199    0.531087    2.527660
    131          1           0      -14.261948   -1.055948    2.800504
    132          1           0      -16.233265   -0.410657    1.983118
    133          1           0      -15.480299   -0.544189    0.442908
    134          1           0      -14.581092    2.190426    1.217109
    135          1           0      -15.513153    2.718230    3.215729
    136          1           0      -16.466420    1.250711    3.206555
    137          1           0      -17.014052    2.754344    2.374720
    138          1           0      -16.944531    2.728756    0.172764
    139          1           0      -16.948391    0.966385   -0.354156
    140          1           0      -15.815352    2.162680   -0.885745
 ---------------------------------------------------------------------

 SCF Done:  E(RZINDO/S) =  -474.364577140     A.U. after   20 cycles

 Excitation energies and oscillator strengths:

 Excited State   1:      Singlet-A      1.3092 eV  947.01 nm  f=0.5401  <S**2>=0.000
     175 ->178        -0.15934
     176 ->177         0.67014
 This state for optimization and/or second-order correction.
 Total Energy, E(CIS/TDA) =  -474.316464423
 Copying the excited state density for this state as the 1-particle RhoCI density.

 Excited State   2:      Singlet-A      1.9062 eV  650.42 nm  f=0.0602  <S**2>=0.000
     175 ->177         0.55210
     176 ->178         0.40248

 Excited State   3:      Singlet-A      2.9300 eV  423.15 nm  f=0.8583  <S**2>=0.000
     170 ->177         0.12741
     175 ->177        -0.35065
     176 ->178         0.51841
     176 ->179         0.12032
     176 ->180         0.20295

 Excited State   4:      Singlet-A      3.0351 eV  408.50 nm  f=0.0111  <S**2>=0.000
     168 ->177        -0.23468
     168 ->178         0.15527
     168 ->179         0.36447
     168 ->181        -0.17524
     168 ->182         0.20696
     168 ->183         0.16084
     168 ->186         0.22222
     168 ->190         0.10195
     170 ->177         0.17379
     170 ->179        -0.11703

 Excited State   5:      Singlet-A      3.0604 eV  405.12 nm  f=0.1140  <S**2>=0.000
     175 ->177         0.12716
     176 ->178        -0.17385
     176 ->180         0.65903

 The electronic state is 1-A.
 Alpha  occ. eigenvalues --   -1.85877  -1.82173  -1.81447  -1.74044  -1.72441
 Alpha  occ. eigenvalues --   -1.71356  -1.66115  -1.62260  -1.60793  -1.57049
 Alpha  occ. eigenvalues --   -1.54059  -1.49377  -1.47528  -1.46712  -1.45561
 Alpha  occ. eigenvalues --   -1.45416  -1.44241  -1.41266  -1.40357  -1.38989
 Alpha  occ. eigenvalues --   -1.36452  -1.34932  -1.32774  -1.31913  -1.28699
 Alpha  occ. eigenvalues --   -1.27340  -1.26987  -1.23441  -1.19822  -1.17726
 Alpha  occ. eigenvalues --   -1.17268  -1.16356  -1.15423  -1.14077  -1.13147
 Alpha  occ. eigenvalues --   -1.12844  -1.10411  -1.10300  -1.06017  -1.04407
 Alpha  occ. eigenvalues --   -1.02022  -1.00829  -0.99414  -0.98977  -0.97498
 Alpha  occ. eigenvalues --   -0.97005  -0.95550  -0.93801  -0.93191  -0.92996
 Alpha  occ. eigenvalues --   -0.91573  -0.90908  -0.88699  -0.88552  -0.87297
 Alpha  occ. eigenvalues --   -0.86101  -0.83688  -0.82963  -0.82102  -0.81120
 Alpha  occ. eigenvalues --   -0.80656  -0.79817  -0.78328  -0.77798  -0.76660
 Alpha  occ. eigenvalues --   -0.75854  -0.75604  -0.74641  -0.74201  -0.73652
 Alpha  occ. eigenvalues --   -0.72835  -0.72513  -0.71849  -0.71238  -0.70562
 Alpha  occ. eigenvalues --   -0.70462  -0.69864  -0.69622  -0.68091  -0.67445
 Alpha  occ. eigenvalues --   -0.67255  -0.66687  -0.66590  -0.65916  -0.65510
 Alpha  occ. eigenvalues --   -0.65113  -0.65087  -0.64287  -0.63996  -0.63470
 Alpha  occ. eigenvalues --   -0.62693  -0.62576  -0.62284  -0.62035  -0.61777
 Alpha  occ. eigenvalues --   -0.61504  -0.61106  -0.60520  -0.60203  -0.60138
 Alpha  occ. eigenvalues --   -0.59661  -0.59005  -0.58739  -0.58510  -0.58017
 Alpha  occ. eigenvalues --   -0.57848  -0.57747  -0.57447  -0.56939  -0.56573
 Alpha  occ. eigenvalues --   -0.56071  -0.55978  -0.55747  -0.55243  -0.54950
 Alpha  occ. eigenvalues --   -0.54844  -0.54655  -0.54085  -0.53552  -0.53480
 Alpha  occ. eigenvalues --   -0.52981  -0.52888  -0.52614  -0.52501  -0.52075
 Alpha  occ. eigenvalues --   -0.51935  -0.51530  -0.51473  -0.50947  -0.50704
 Alpha  occ. eigenvalues --   -0.50490  -0.50269  -0.50006  -0.49201  -0.49100
 Alpha  occ. eigenvalues --   -0.48876  -0.48686  -0.48395  -0.48329  -0.47989
 Alpha  occ. eigenvalues --   -0.47654  -0.47357  -0.46980  -0.46865  -0.46800
 Alpha  occ. eigenvalues --   -0.46403  -0.46209  -0.46067  -0.45955  -0.45646
 Alpha  occ. eigenvalues --   -0.45568  -0.45393  -0.44355  -0.43758  -0.43575
 Alpha  occ. eigenvalues --   -0.43510  -0.42986  -0.42884  -0.42343  -0.41841
 Alpha  occ. eigenvalues --   -0.41469  -0.41358  -0.41282  -0.39448  -0.39130
 Alpha  occ. eigenvalues --   -0.37849  -0.36816  -0.36268  -0.34377  -0.34265
 Alpha  occ. eigenvalues --   -0.33285  -0.32893  -0.31397  -0.30965  -0.26777
 Alpha  occ. eigenvalues --   -0.22216
 Alpha virt. eigenvalues --   -0.08656  -0.02454  -0.00033   0.00567   0.01789
 Alpha virt. eigenvalues --    0.01979   0.03121   0.03183   0.04044   0.04111
 Alpha virt. eigenvalues --    0.05145   0.06094   0.07249   0.07518   0.07841

 Mulliken charges:
               1
     1  Mg   0.427890
     2  C   -0.030275
     3  C   -0.072194
     4  C   -0.099740
     5  C   -0.073667
     6  N   -0.310173
     7  C    0.098273
     8  C    0.008670
     9  C    0.000395
    10  C    0.172399
    11  C   -0.047161
    12  C   -0.021011
    13  C    0.003813
    14  C    0.470442
    15  O   -0.507536
    16  O   -0.290920
    17  N   -0.333471
    18  C    0.139327
    19  C    0.048779
    20  C   -0.039089
    21  C    0.153132
    22  C   -0.036327
    23  C    0.328001
    24  O   -0.504395
    25  C   -0.017972
    26  N   -0.270750
    27  C    0.153678
    28  C    0.014609
    29  C   -0.000369
    30  C    0.098205
    31  C   -0.050117
    32  C   -0.029483
    33  C   -0.055629
    34  N   -0.319967
    35  C    0.070588
    36  C    0.027587
    37  C   -0.076311
    38  C    0.109290
    39  C   -0.039118
    40  C    0.317664
    41  O   -0.527677
    42  C    0.051613
    43  C    0.489050
    44  O   -0.509625
    45  O   -0.270340
    46  C    0.070815
    47  C    0.099077
    48  C   -0.094478
    49  C   -0.009494
    50  C   -0.034839
    51  C   -0.013610
    52  C   -0.031666
    53  C   -0.035833
    54  C   -0.019161
    55  C   -0.060325
    56  C   -0.032035
    57  C   -0.034348
    58  C   -0.037196
    59  C    0.000868
    60  C   -0.056833
    61  C   -0.042724
    62  C   -0.041510
    63  C   -0.035913
    64  C   -0.015109
    65  C   -0.063252
    66  C   -0.061753
    67  H    0.027008
    68  H    0.015228
    69  H    0.027388
    70  H    0.034772
    71  H    0.030389
    72  H    0.015273
    73  H    0.021854
    74  H    0.028092
    75  H    0.021149
    76  H    0.027340
    77  H    0.038541
    78  H    0.052363
    79  H    0.040823
    80  H    0.021595
    81  H    0.047347
    82  H    0.032710
    83  H    0.038068
    84  H    0.043102
    85  H    0.027416
    86  H    0.036881
    87  H    0.023054
    88  H    0.022812
    89  H    0.029862
    90  H    0.021615
    91  H    0.028341
    92  H    0.018668
    93  H    0.015444
    94  H    0.016528
    95  H    0.018281
    96  H    0.022194
    97  H    0.041841
    98  H    0.052536
    99  H    0.064368
   100  H    0.032032
   101  H    0.033916
   102  H    0.052475
   103  H    0.037308
   104  H    0.043366
   105  H    0.022097
   106  H    0.032108
   107  H    0.024955
   108  H    0.030361
   109  H    0.016660
   110  H    0.027617
   111  H    0.010996
   112  H    0.013113
   113  H    0.022353
   114  H    0.024407
   115  H    0.021517
   116  H    0.019782
   117  H    0.008159
   118  H    0.026325
   119  H    0.015053
   120  H    0.024789
   121  H    0.021931
   122  H    0.014551
   123  H    0.006366
   124  H    0.018764
   125  H    0.018327
   126  H    0.005037
   127  H    0.020605
   128  H    0.010768
   129  H    0.022327
   130  H    0.021897
   131  H    0.008474
   132  H    0.022842
   133  H    0.019494
   134  H    0.037665
   135  H    0.014504
   136  H    0.023540
   137  H    0.017014
   138  H    0.010898
   139  H    0.030488
   140  H    0.011471
 Sum of Mulliken charges =  -0.00000

 Dipole moment (field-independent basis, Debye):
    X=             -2.5547    Y=             10.5103    Z=             -1.1409  Tot=             10.8763
 N-N= 4.302223974360D+03 E-N= 0.000000000000D+00  KE=-9.278294210620D+03
 Leave Link  601 at Thu Apr 28 21:26:47 2022, MaxMem=  6710886400 cpu:               1.0 elap:               0.1
 (Enter /sw/apps/gaussian-16.0/g16/l9999.exe)
 1\1\GINC-BP1-COMPUTE131\SP\RZINDO CIS\STO-3G\C55H74Mg1N4O6\OF15641\28-
 Apr-2022\0\\#p ZINDO=(nstates=5)\\step_1701_chromophore_5 ZINDO\\0,1\M
 g,0,25.454,-8.079,47.793\C,0,28.28,-5.883,47.057\C,0,23.834,-6.48,45.1
 98\C,0,23.288,-10.551,47.686\C,0,27.685,-10.01,49.741\N,0,26.087,-6.43
 6,46.287\C,0,27.256,-5.726,46.131\C,0,27.154,-4.835,44.923\C,0,25.644,
 -4.972,44.527\C,0,25.115,-6.09,45.363\C,0,24.859,-3.631,44.594\C,0,28.
 05,-5.122,43.711\C,0,28.702,-3.869,43.093\C,0,28.196,-3.381,41.743\O,0

 Normal termination of Gaussian 16 at Thu Apr 28 21:26:47 2022.
