 Gaussian 16, Revision A.03,
 Gaussian 16:  ES64L-G16RevA.03 25-Dec-2016

 ------------------------------
 #p blyp/Def2SVP td=(nstates=5)
 ------------------------------

 ---------------------------------------------------
 step_1551_chromophore_20 TDDFT with blyp functional
 ---------------------------------------------------
 Symbolic Z-matrix:
 Charge =  0 Multiplicity = 1

                         Standard orientation:
 ---------------------------------------------------------------------
 Center     Atomic      Atomic             Coordinates (Angstroms)
 Number     Number       Type             X           Y           Z
 ---------------------------------------------------------------------
      1         12           0       -3.913473   -1.558152   -0.661282
      2          6           0       -3.913780    1.969153   -0.921267
      3          6           0       -1.401656   -1.591335   -3.072454
      4          6           0       -3.113220   -4.642703    0.292001
      5          6           0       -6.108993   -1.204778    2.109890
      6          7           0       -2.779487    0.104287   -1.797615
      7          6           0       -2.931599    1.384838   -1.748264
      8          6           0       -2.117918    2.145345   -2.772272
      9          6           0       -1.660021    0.970882   -3.669528
     10          6           0       -1.945217   -0.249388   -2.808552
     11          6           0       -2.376867    0.850923   -4.957151
     12          6           0       -0.935501    2.916115   -2.185715
     13          6           0       -0.720212    4.315509   -2.689248
     14          6           0        0.155942    5.292609   -1.987168
     15          8           0       -0.082256    6.460852   -1.804718
     16          8           0        1.241296    4.586515   -1.483522
     17          7           0       -2.634673   -2.949080   -1.344189
     18          6           0       -1.709554   -2.758482   -2.332774
     19          6           0       -1.101248   -4.065495   -2.609547
     20          6           0       -1.492843   -4.997712   -1.622084
     21          6           0       -2.432150   -4.182768   -0.797519
     22          6           0       -0.143271   -4.273171   -3.810710
     23          6           0       -0.996649   -6.412124   -1.452684
     24          8           0       -0.113307   -6.895997   -2.158749
     25          6           0       -1.683525   -7.476595   -0.589636
     26          7           0       -4.331167   -2.677938    1.108809
     27          6           0       -4.013819   -4.035984    1.138323
     28          6           0       -4.608535   -4.732952    2.378153
     29          6           0       -5.589867   -3.660744    2.999952
     30          6           0       -5.363765   -2.428002    2.064127
     31          6           0       -5.116808   -6.149103    2.274644
     32          6           0       -5.438165   -3.256405    4.464577
     33          6           0       -5.073145   -4.294240    5.484726
     34          7           0       -4.956315   -0.023436    0.333370
     35          6           0       -5.923871   -0.013115    1.342728
     36          6           0       -6.541308    1.321305    1.475697
     37          6           0       -5.766401    2.074346    0.597585
     38          6           0       -4.784756    1.265236   -0.065056
     39          6           0       -7.775643    1.764051    2.325820
     40          6           0       -5.630025    3.452102   -0.017221
     41          8           0       -6.308674    4.441528    0.224277
     42          6           0       -4.460092    3.446165   -1.034414
     43          6           0       -3.534345    4.544301   -0.579245
     44          8           0       -2.756144    4.532003    0.377092
     45          8           0       -3.642778    5.637086   -1.422520
     46          6           0       -2.993342    6.878633   -1.088088
     47          6           0        2.090540    5.432094   -0.630701
     48          6           0        3.163659    4.656438    0.201666
     49          6           0        4.004279    5.188022    1.118165
     50          6           0        3.951189    6.593433    1.604660
     51          6           0        4.653329    4.170250    2.038282
     52          6           0        5.781212    4.570557    3.027116
     53          6           0        6.951441    3.632799    2.821091
     54          6           0        6.629472    2.230470    3.522858
     55          6           0        7.026201    2.186108    5.002205
     56          6           0        7.144098    0.945304    2.755181
     57          6           0        5.935793    0.007014    2.206051
     58          6           0        6.225655   -1.439888    2.470238
     59          6           0        6.595492   -2.307412    1.162904
     60          6           0        6.003014   -3.743696    1.200638
     61          6           0        8.071607   -2.402563    0.996142
     62          6           0        8.563099   -2.217250   -0.548995
     63          6           0        9.805203   -3.091007   -0.854915
     64          6           0       10.237719   -2.934326   -2.328080
     65          6           0        9.553721   -3.948030   -3.306647
     66          6           0       11.855982   -3.016738   -2.436220
     67          1           0       -0.820922   -1.651650   -3.994901
     68          1           0       -2.844315   -5.663708    0.570130
     69          1           0       -6.861027   -1.211071    2.901899
     70          1           0       -2.754177    2.792830   -3.373859
     71          1           0       -0.603051    0.944015   -3.936699
     72          1           0       -3.224909    1.535701   -4.938726
     73          1           0       -2.625390   -0.141295   -5.332581
     74          1           0       -1.674103    1.268582   -5.678639
     75          1           0        0.032799    2.449940   -2.369031
     76          1           0       -1.126460    3.023082   -1.117901
     77          1           0       -1.692134    4.755166   -2.911893
     78          1           0       -0.169584    4.195661   -3.622255
     79          1           0        0.847936   -4.504652   -3.420542
     80          1           0       -0.167479   -3.410304   -4.475411
     81          1           0       -0.364189   -5.178709   -4.376312
     82          1           0       -1.367081   -7.325687    0.442983
     83          1           0       -1.309983   -8.465726   -0.857084
     84          1           0       -2.769995   -7.492133   -0.679673
     85          1           0       -3.735828   -4.756031    3.030315
     86          1           0       -6.639134   -3.953478    2.971000
     87          1           0       -5.806587   -6.404609    3.079062
     88          1           0       -4.268842   -6.819811    2.409020
     89          1           0       -5.566128   -6.366215    1.305438
     90          1           0       -6.420616   -2.838548    4.683546
     91          1           0       -4.770870   -2.395711    4.493773
     92          1           0       -5.988564   -4.596444    5.992298
     93          1           0       -4.408446   -3.797170    6.192235
     94          1           0       -4.570905   -5.141943    5.019555
     95          1           0       -7.525382    2.610690    2.965563
     96          1           0       -8.113137    0.885935    2.876052
     97          1           0       -8.645703    2.102469    1.763275
     98          1           0       -4.810808    3.674530   -2.040729
     99          1           0       -3.735674    7.447488   -0.528449
    100          1           0       -2.740103    7.427033   -1.995928
    101          1           0       -2.032986    6.770302   -0.582646
    102          1           0        1.552191    5.974664    0.145935
    103          1           0        2.542430    6.214005   -1.241790
    104          1           0        3.342032    3.607706   -0.033879
    105          1           0        3.571450    6.692361    2.621150
    106          1           0        3.256541    7.202390    1.025571
    107          1           0        4.956191    7.014222    1.561388
    108          1           0        4.881997    3.327017    1.385910
    109          1           0        3.867457    3.779795    2.684359
    110          1           0        5.381583    4.571661    4.041190
    111          1           0        6.217985    5.541962    2.798302
    112          1           0        7.901844    3.962504    3.240208
    113          1           0        7.037290    3.433823    1.752994
    114          1           0        5.550522    2.141848    3.643833
    115          1           0        8.039028    1.826724    5.184194
    116          1           0        6.306917    1.493328    5.439811
    117          1           0        6.974567    3.143076    5.521281
    118          1           0        7.826629    0.363941    3.375945
    119          1           0        7.599107    1.291116    1.826711
    120          1           0        5.659524    0.240695    1.177504
    121          1           0        5.027690    0.329653    2.714320
    122          1           0        5.289048   -1.874569    2.820490
    123          1           0        7.014807   -1.494848    3.219875
    124          1           0        6.093927   -1.788231    0.345444
    125          1           0        6.759387   -4.464625    0.889051
    126          1           0        5.039189   -3.714695    0.691235
    127          1           0        5.916355   -3.980492    2.260594
    128          1           0        8.499653   -3.362405    1.285328
    129          1           0        8.633327   -1.712972    1.627052
    130          1           0        8.775592   -1.157475   -0.693041
    131          1           0        7.732782   -2.427248   -1.222895
    132          1           0        9.575019   -4.146378   -0.709595
    133          1           0       10.621825   -2.861089   -0.171599
    134          1           0       10.066570   -1.895348   -2.613031
    135          1           0        8.886489   -3.366348   -3.942897
    136          1           0        8.885855   -4.687422   -2.864403
    137          1           0       10.278527   -4.395461   -3.986166
    138          1           0       12.374297   -2.113109   -2.115647
    139          1           0       12.355044   -3.299791   -3.363407
    140          1           0       12.147972   -3.821419   -1.761933
 ---------------------------------------------------------------------

 SCF Done:  E(RB-LYP) =  -3007.38225416     A.U. after   21 cycles

 Excitation energies and oscillator strengths:

 Excited State   1:      Singlet-A      1.8139 eV  683.51 nm  f=0.2897  <S**2>=0.000
     245 -> 248       -0.20447
     246 -> 247        0.68409
     246 <- 247       -0.14011
 This state for optimization and/or second-order correction.
 Total Energy, E(TD-HF/TD-DFT) =  -3007.31559368
 Copying the excited state density for this state as the 1-particle RhoCI density.

 Excited State   2:      Singlet-A      1.9677 eV  630.09 nm  f=0.0006  <S**2>=0.000
     244 -> 247        0.70010

 Excited State   3:      Singlet-A      2.0490 eV  605.10 nm  f=0.0079  <S**2>=0.000
     243 -> 247        0.63159
     245 -> 247       -0.28233
     246 -> 248       -0.12195

 Excited State   4:      Singlet-A      2.0920 eV  592.65 nm  f=0.0347  <S**2>=0.000
     243 -> 247        0.31179
     245 -> 247        0.54422
     246 -> 248        0.29535

 Excited State   5:      Singlet-A      2.1539 eV  575.64 nm  f=0.0001  <S**2>=0.000
     242 -> 247        0.70680

 The electronic state is 1-A.
 Alpha  occ. eigenvalues --  -46.27789 -18.82568 -18.81361 -18.77705 -18.76410
 Alpha  occ. eigenvalues --  -18.75965 -18.75542 -14.03633 -14.03192 -14.01814
 Alpha  occ. eigenvalues --  -14.01086 -10.04383 -10.03998 -10.00238 -10.00111
 Alpha  occ. eigenvalues --   -9.98006  -9.97132  -9.96983  -9.96745  -9.96379
 Alpha  occ. eigenvalues --   -9.96354  -9.96288  -9.96240  -9.95889  -9.94892
 Alpha  occ. eigenvalues --   -9.94802  -9.94294  -9.94275  -9.94261  -9.94155
 Alpha  occ. eigenvalues --   -9.94108  -9.94105  -9.94101  -9.93716  -9.93335
 Alpha  occ. eigenvalues --   -9.93088  -9.92993  -9.92919  -9.92902  -9.92549
 Alpha  occ. eigenvalues --   -9.92512  -9.92439  -9.92344  -9.92326  -9.92219
 Alpha  occ. eigenvalues --   -9.92107  -9.92096  -9.92050  -9.91992  -9.91787
 Alpha  occ. eigenvalues --   -9.91572  -9.91485  -9.91478  -9.91473  -9.91271
 Alpha  occ. eigenvalues --   -9.91232  -9.91198  -9.91127  -9.90956  -9.90887
 Alpha  occ. eigenvalues --   -9.90813  -9.90604  -9.90565  -9.90553  -9.90544
 Alpha  occ. eigenvalues --   -9.90399  -2.92442  -1.72822  -1.72362  -1.72144
 Alpha  occ. eigenvalues --   -0.98181  -0.96821  -0.91425  -0.91369  -0.90999
 Alpha  occ. eigenvalues --   -0.88899  -0.88545  -0.86169  -0.85217  -0.83552
 Alpha  occ. eigenvalues --   -0.74806  -0.74277  -0.73529  -0.72879  -0.72256
 Alpha  occ. eigenvalues --   -0.72048  -0.71585  -0.71112  -0.70215  -0.69959
 Alpha  occ. eigenvalues --   -0.69540  -0.69236  -0.68158  -0.67676  -0.67467
 Alpha  occ. eigenvalues --   -0.66048  -0.65491  -0.65027  -0.64807  -0.64119
 Alpha  occ. eigenvalues --   -0.63694  -0.62796  -0.62476  -0.61720  -0.60906
 Alpha  occ. eigenvalues --   -0.60679  -0.60087  -0.59652  -0.58774  -0.58535
 Alpha  occ. eigenvalues --   -0.57987  -0.57593  -0.56981  -0.55725  -0.55112
 Alpha  occ. eigenvalues --   -0.53642  -0.53204  -0.53099  -0.52198  -0.51997
 Alpha  occ. eigenvalues --   -0.50914  -0.50769  -0.50376  -0.50022  -0.49867
 Alpha  occ. eigenvalues --   -0.49610  -0.48720  -0.48402  -0.48074  -0.46810
 Alpha  occ. eigenvalues --   -0.46246  -0.45959  -0.45665  -0.44959  -0.44419
 Alpha  occ. eigenvalues --   -0.44127  -0.43807  -0.43623  -0.43112  -0.42726
 Alpha  occ. eigenvalues --   -0.42415  -0.41975  -0.41563  -0.41418  -0.41139
 Alpha  occ. eigenvalues --   -0.40733  -0.40588  -0.40393  -0.40071  -0.39804
 Alpha  occ. eigenvalues --   -0.39781  -0.39549  -0.39302  -0.39135  -0.39026
 Alpha  occ. eigenvalues --   -0.38759  -0.38716  -0.38585  -0.38159  -0.37855
 Alpha  occ. eigenvalues --   -0.37724  -0.37527  -0.37462  -0.37333  -0.37235
 Alpha  occ. eigenvalues --   -0.37129  -0.36995  -0.36713  -0.36400  -0.36237
 Alpha  occ. eigenvalues --   -0.36199  -0.36007  -0.35865  -0.35755  -0.35488
 Alpha  occ. eigenvalues --   -0.35381  -0.35077  -0.34985  -0.34849  -0.34649
 Alpha  occ. eigenvalues --   -0.34504  -0.34372  -0.34261  -0.33968  -0.33764
 Alpha  occ. eigenvalues --   -0.33646  -0.33598  -0.33348  -0.33326  -0.33256
 Alpha  occ. eigenvalues --   -0.32908  -0.32712  -0.32684  -0.32436  -0.32307
 Alpha  occ. eigenvalues --   -0.32145  -0.31890  -0.31742  -0.31505  -0.31307
 Alpha  occ. eigenvalues --   -0.31221  -0.31031  -0.30982  -0.30891  -0.30641
 Alpha  occ. eigenvalues --   -0.30514  -0.30231  -0.30142  -0.29949  -0.29662
 Alpha  occ. eigenvalues --   -0.29614  -0.29546  -0.29378  -0.29343  -0.28843
 Alpha  occ. eigenvalues --   -0.28488  -0.28341  -0.28238  -0.27851  -0.27729
 Alpha  occ. eigenvalues --   -0.27698  -0.27574  -0.26993  -0.26799  -0.26582
 Alpha  occ. eigenvalues --   -0.26578  -0.26081  -0.25944  -0.25891  -0.25530
 Alpha  occ. eigenvalues --   -0.25080  -0.24237  -0.23996  -0.23844  -0.23652
 Alpha  occ. eigenvalues --   -0.22874  -0.22612  -0.22188  -0.21482  -0.20979
 Alpha  occ. eigenvalues --   -0.20630  -0.19290  -0.18822  -0.18536  -0.17621
 Alpha  occ. eigenvalues --   -0.15775
 Alpha virt. eigenvalues --   -0.11375  -0.07440  -0.06404  -0.05189  -0.03836
 Alpha virt. eigenvalues --   -0.02970  -0.02715  -0.02203  -0.01935  -0.00138
 Alpha virt. eigenvalues --    0.01135   0.01865   0.02226   0.02866   0.03066

 Mulliken charges:
               1
     1  Mg   0.717580
     2  C   -0.001398
     3  C   -0.072294
     4  C   -0.079098
     5  C   -0.046421
     6  N   -0.129323
     7  C   -0.109303
     8  C    0.051859
     9  C   -0.020336
    10  C   -0.034425
    11  C    0.147902
    12  C    0.142728
    13  C    0.103959
    14  C    0.095924
    15  O   -0.173047
    16  O   -0.285979
    17  N   -0.318522
    18  C    0.182595
    19  C   -0.160509
    20  C    0.068567
    21  C    0.153648
    22  C    0.188889
    23  C   -0.090811
    24  O   -0.174092
    25  C    0.133134
    26  N   -0.275725
    27  C    0.029333
    28  C    0.054412
    29  C    0.018453
    30  C    0.012818
    31  C    0.142298
    32  C    0.039077
    33  C    0.106875
    34  N   -0.268077
    35  C    0.099799
    36  C   -0.165047
    37  C    0.075711
    38  C    0.089575
    39  C    0.161108
    40  C   -0.043200
    41  O   -0.133749
    42  C    0.097863
    43  C    0.107333
    44  O   -0.187991
    45  O   -0.280011
    46  C    0.212614
    47  C    0.287970
    48  C   -0.088673
    49  C   -0.139657
    50  C    0.147756
    51  C    0.054906
    52  C    0.111695
    53  C    0.107368
    54  C   -0.097077
    55  C    0.087081
    56  C    0.097170
    57  C    0.051097
    58  C    0.117033
    59  C   -0.087063
    60  C    0.131489
    61  C    0.117219
    62  C    0.030969
    63  C    0.094617
    64  C   -0.061205
    65  C    0.115716
    66  C    0.049666
    67  H   -0.051897
    68  H   -0.105494
    69  H   -0.066389
    70  H   -0.026542
    71  H   -0.035031
    72  H   -0.015110
    73  H   -0.002292
    74  H   -0.018525
    75  H   -0.013052
    76  H    0.002853
    77  H   -0.008073
    78  H   -0.013112
    79  H    0.007332
    80  H   -0.019801
    81  H   -0.002481
    82  H    0.010243
    83  H   -0.010766
    84  H    0.011654
    85  H   -0.015585
    86  H   -0.032178
    87  H   -0.007510
    88  H   -0.010287
    89  H   -0.003808
    90  H   -0.023478
    91  H   -0.020118
    92  H   -0.008163
    93  H   -0.002341
    94  H   -0.007279
    95  H    0.016493
    96  H   -0.017744
    97  H    0.008471
    98  H    0.001691
    99  H    0.011292
   100  H    0.008697
   101  H    0.030981
   102  H    0.013063
   103  H    0.005163
   104  H   -0.034746
   105  H   -0.000647
   106  H   -0.020711
   107  H    0.003534
   108  H   -0.013372
   109  H   -0.006859
   110  H   -0.025294
   111  H   -0.032547
   112  H   -0.034142
   113  H   -0.030564
   114  H   -0.033001
   115  H   -0.018907
   116  H   -0.015742
   117  H   -0.022907
   118  H   -0.019364
   119  H   -0.030336
   120  H   -0.031141
   121  H   -0.040632
   122  H   -0.047883
   123  H   -0.028689
   124  H   -0.039649
   125  H   -0.018670
   126  H   -0.003381
   127  H   -0.026952
   128  H   -0.044420
   129  H   -0.038343
   130  H   -0.025071
   131  H   -0.028504
   132  H   -0.030110
   133  H   -0.030618
   134  H   -0.030856
   135  H   -0.022112
   136  H   -0.010206
   137  H   -0.013790
   138  H   -0.014563
   139  H   -0.020590
   140  H   -0.021865
 Sum of Mulliken charges =  -0.00000

 Dipole moment (field-independent basis, Debye):
    X=             -1.1804    Y=             -2.6097    Z=              0.1377  Tot=              2.8675
 Quadrupole moment (field-independent basis, Debye-Ang):
   XX=           -397.9830   YY=           -429.0733   ZZ=           -385.1149
   XY=             46.9714   XZ=             -0.3970   YZ=            -20.6558

 Normal termination of Gaussian 16 at Thu Apr 28 13:20:23 2022.
