 Gaussian 16, Revision A.03,
 Gaussian 16:  ES64L-G16RevA.03 25-Dec-2016

 -----------------------------------
 #p cam-b3lyp/Def2SVP td=(nstates=5)
 -----------------------------------

 --------------------------------------------------------
 step_1551_chromophore_20 TDDFT with cam-b3lyp functional
 --------------------------------------------------------
 Symbolic Z-matrix:
 Charge =  0 Multiplicity = 1

                         Standard orientation:
 ---------------------------------------------------------------------
 Center     Atomic      Atomic             Coordinates (Angstroms)
 Number     Number       Type             X           Y           Z
 ---------------------------------------------------------------------
      1         12           0       -3.913473   -1.558152   -0.661282
      2          6           0       -3.913780    1.969153   -0.921267
      3          6           0       -1.401656   -1.591335   -3.072454
      4          6           0       -3.113220   -4.642703    0.292001
      5          6           0       -6.108993   -1.204778    2.109890
      6          7           0       -2.779487    0.104287   -1.797615
      7          6           0       -2.931599    1.384838   -1.748264
      8          6           0       -2.117918    2.145345   -2.772272
      9          6           0       -1.660021    0.970882   -3.669528
     10          6           0       -1.945217   -0.249388   -2.808552
     11          6           0       -2.376867    0.850923   -4.957151
     12          6           0       -0.935501    2.916115   -2.185715
     13          6           0       -0.720212    4.315509   -2.689248
     14          6           0        0.155942    5.292609   -1.987168
     15          8           0       -0.082256    6.460852   -1.804718
     16          8           0        1.241296    4.586515   -1.483522
     17          7           0       -2.634673   -2.949080   -1.344189
     18          6           0       -1.709554   -2.758482   -2.332774
     19          6           0       -1.101248   -4.065495   -2.609547
     20          6           0       -1.492843   -4.997712   -1.622084
     21          6           0       -2.432150   -4.182768   -0.797519
     22          6           0       -0.143271   -4.273171   -3.810710
     23          6           0       -0.996649   -6.412124   -1.452684
     24          8           0       -0.113307   -6.895997   -2.158749
     25          6           0       -1.683525   -7.476595   -0.589636
     26          7           0       -4.331167   -2.677938    1.108809
     27          6           0       -4.013819   -4.035984    1.138323
     28          6           0       -4.608535   -4.732952    2.378153
     29          6           0       -5.589867   -3.660744    2.999952
     30          6           0       -5.363765   -2.428002    2.064127
     31          6           0       -5.116808   -6.149103    2.274644
     32          6           0       -5.438165   -3.256405    4.464577
     33          6           0       -5.073145   -4.294240    5.484726
     34          7           0       -4.956315   -0.023436    0.333370
     35          6           0       -5.923871   -0.013115    1.342728
     36          6           0       -6.541308    1.321305    1.475697
     37          6           0       -5.766401    2.074346    0.597585
     38          6           0       -4.784756    1.265236   -0.065056
     39          6           0       -7.775643    1.764051    2.325820
     40          6           0       -5.630025    3.452102   -0.017221
     41          8           0       -6.308674    4.441528    0.224277
     42          6           0       -4.460092    3.446165   -1.034414
     43          6           0       -3.534345    4.544301   -0.579245
     44          8           0       -2.756144    4.532003    0.377092
     45          8           0       -3.642778    5.637086   -1.422520
     46          6           0       -2.993342    6.878633   -1.088088
     47          6           0        2.090540    5.432094   -0.630701
     48          6           0        3.163659    4.656438    0.201666
     49          6           0        4.004279    5.188022    1.118165
     50          6           0        3.951189    6.593433    1.604660
     51          6           0        4.653329    4.170250    2.038282
     52          6           0        5.781212    4.570557    3.027116
     53          6           0        6.951441    3.632799    2.821091
     54          6           0        6.629472    2.230470    3.522858
     55          6           0        7.026201    2.186108    5.002205
     56          6           0        7.144098    0.945304    2.755181
     57          6           0        5.935793    0.007014    2.206051
     58          6           0        6.225655   -1.439888    2.470238
     59          6           0        6.595492   -2.307412    1.162904
     60          6           0        6.003014   -3.743696    1.200638
     61          6           0        8.071607   -2.402563    0.996142
     62          6           0        8.563099   -2.217250   -0.548995
     63          6           0        9.805203   -3.091007   -0.854915
     64          6           0       10.237719   -2.934326   -2.328080
     65          6           0        9.553721   -3.948030   -3.306647
     66          6           0       11.855982   -3.016738   -2.436220
     67          1           0       -0.820922   -1.651650   -3.994901
     68          1           0       -2.844315   -5.663708    0.570130
     69          1           0       -6.861027   -1.211071    2.901899
     70          1           0       -2.754177    2.792830   -3.373859
     71          1           0       -0.603051    0.944015   -3.936699
     72          1           0       -3.224909    1.535701   -4.938726
     73          1           0       -2.625390   -0.141295   -5.332581
     74          1           0       -1.674103    1.268582   -5.678639
     75          1           0        0.032799    2.449940   -2.369031
     76          1           0       -1.126460    3.023082   -1.117901
     77          1           0       -1.692134    4.755166   -2.911893
     78          1           0       -0.169584    4.195661   -3.622255
     79          1           0        0.847936   -4.504652   -3.420542
     80          1           0       -0.167479   -3.410304   -4.475411
     81          1           0       -0.364189   -5.178709   -4.376312
     82          1           0       -1.367081   -7.325687    0.442983
     83          1           0       -1.309983   -8.465726   -0.857084
     84          1           0       -2.769995   -7.492133   -0.679673
     85          1           0       -3.735828   -4.756031    3.030315
     86          1           0       -6.639134   -3.953478    2.971000
     87          1           0       -5.806587   -6.404609    3.079062
     88          1           0       -4.268842   -6.819811    2.409020
     89          1           0       -5.566128   -6.366215    1.305438
     90          1           0       -6.420616   -2.838548    4.683546
     91          1           0       -4.770870   -2.395711    4.493773
     92          1           0       -5.988564   -4.596444    5.992298
     93          1           0       -4.408446   -3.797170    6.192235
     94          1           0       -4.570905   -5.141943    5.019555
     95          1           0       -7.525382    2.610690    2.965563
     96          1           0       -8.113137    0.885935    2.876052
     97          1           0       -8.645703    2.102469    1.763275
     98          1           0       -4.810808    3.674530   -2.040729
     99          1           0       -3.735674    7.447488   -0.528449
    100          1           0       -2.740103    7.427033   -1.995928
    101          1           0       -2.032986    6.770302   -0.582646
    102          1           0        1.552191    5.974664    0.145935
    103          1           0        2.542430    6.214005   -1.241790
    104          1           0        3.342032    3.607706   -0.033879
    105          1           0        3.571450    6.692361    2.621150
    106          1           0        3.256541    7.202390    1.025571
    107          1           0        4.956191    7.014222    1.561388
    108          1           0        4.881997    3.327017    1.385910
    109          1           0        3.867457    3.779795    2.684359
    110          1           0        5.381583    4.571661    4.041190
    111          1           0        6.217985    5.541962    2.798302
    112          1           0        7.901844    3.962504    3.240208
    113          1           0        7.037290    3.433823    1.752994
    114          1           0        5.550522    2.141848    3.643833
    115          1           0        8.039028    1.826724    5.184194
    116          1           0        6.306917    1.493328    5.439811
    117          1           0        6.974567    3.143076    5.521281
    118          1           0        7.826629    0.363941    3.375945
    119          1           0        7.599107    1.291116    1.826711
    120          1           0        5.659524    0.240695    1.177504
    121          1           0        5.027690    0.329653    2.714320
    122          1           0        5.289048   -1.874569    2.820490
    123          1           0        7.014807   -1.494848    3.219875
    124          1           0        6.093927   -1.788231    0.345444
    125          1           0        6.759387   -4.464625    0.889051
    126          1           0        5.039189   -3.714695    0.691235
    127          1           0        5.916355   -3.980492    2.260594
    128          1           0        8.499653   -3.362405    1.285328
    129          1           0        8.633327   -1.712972    1.627052
    130          1           0        8.775592   -1.157475   -0.693041
    131          1           0        7.732782   -2.427248   -1.222895
    132          1           0        9.575019   -4.146378   -0.709595
    133          1           0       10.621825   -2.861089   -0.171599
    134          1           0       10.066570   -1.895348   -2.613031
    135          1           0        8.886489   -3.366348   -3.942897
    136          1           0        8.885855   -4.687422   -2.864403
    137          1           0       10.278527   -4.395461   -3.986166
    138          1           0       12.374297   -2.113109   -2.115647
    139          1           0       12.355044   -3.299791   -3.363407
    140          1           0       12.147972   -3.821419   -1.761933
 ---------------------------------------------------------------------

 SCF Done:  E(RCAM-B3LYP) =  -3007.17221593     A.U. after   17 cycles

 Excitation energies and oscillator strengths:

 Excited State   1:      Singlet-A      1.7166 eV  722.26 nm  f=0.3538  <S**2>=0.000
     245 -> 248       -0.19412
     246 -> 247        0.68191
     245 <- 248       -0.11137
 This state for optimization and/or second-order correction.
 Total Energy, E(TD-HF/TD-DFT) =  -3007.10913154
 Copying the excited state density for this state as the 1-particle RhoCI density.

 Excited State   2:      Singlet-A      2.3135 eV  535.92 nm  f=0.0376  <S**2>=0.000
     245 -> 247        0.58875
     246 -> 248        0.38292

 Excited State   3:      Singlet-A      3.4122 eV  363.36 nm  f=0.6243  <S**2>=0.000
     242 -> 247       -0.10696
     243 -> 247       -0.21945
     245 -> 247       -0.33484
     246 -> 248        0.55026
     246 -> 250       -0.14172
     245 <- 247        0.10130

 Excited State   4:      Singlet-A      3.5746 eV  346.85 nm  f=0.0429  <S**2>=0.000
     241 -> 247        0.41695
     241 -> 249       -0.19463
     241 -> 251       -0.20161
     243 -> 247       -0.40150
     246 -> 248       -0.10225
     246 -> 250        0.12608

 Excited State   5:      Singlet-A      3.5964 eV  344.75 nm  f=0.0047  <S**2>=0.000
     240 -> 247        0.37546
     240 -> 248       -0.11860
     240 -> 249        0.32017
     240 -> 251       -0.21808
     241 -> 247        0.11793
     241 -> 249       -0.12733
     242 -> 247       -0.30579
     243 -> 247        0.15264

 The electronic state is 1-A.
 Alpha  occ. eigenvalues --  -46.89366 -19.25446 -19.24237 -19.20723 -19.19559
 Alpha  occ. eigenvalues --  -19.19208 -19.18899 -14.42582 -14.41988 -14.40381
 Alpha  occ. eigenvalues --  -14.39449 -10.39706 -10.39566 -10.35552 -10.35438
 Alpha  occ. eigenvalues --  -10.32057 -10.31571 -10.31532 -10.31429 -10.30995
 Alpha  occ. eigenvalues --  -10.30753 -10.30649 -10.30490 -10.29735 -10.29345
 Alpha  occ. eigenvalues --  -10.28999 -10.28922 -10.28568 -10.28504 -10.28499
 Alpha  occ. eigenvalues --  -10.28292 -10.28276 -10.28019 -10.27658 -10.27589
 Alpha  occ. eigenvalues --  -10.27260 -10.26819 -10.26659 -10.26635 -10.26529
 Alpha  occ. eigenvalues --  -10.26362 -10.26207 -10.26192 -10.26143 -10.26089
 Alpha  occ. eigenvalues --  -10.26079 -10.25944 -10.25799 -10.25776 -10.25604
 Alpha  occ. eigenvalues --  -10.25581 -10.25275 -10.25270 -10.25151 -10.24998
 Alpha  occ. eigenvalues --  -10.24960 -10.24950 -10.24822 -10.24632 -10.24569
 Alpha  occ. eigenvalues --  -10.24413 -10.24272 -10.24247 -10.24233 -10.24142
 Alpha  occ. eigenvalues --  -10.23988  -3.17920  -1.92777  -1.92394  -1.92219
 Alpha  occ. eigenvalues --   -1.16671  -1.15330  -1.09894  -1.09851  -1.08861
 Alpha  occ. eigenvalues --   -1.06833  -1.06393  -1.03930  -1.02650  -1.01029
 Alpha  occ. eigenvalues --   -0.91889  -0.91128  -0.90404  -0.89570  -0.89038
 Alpha  occ. eigenvalues --   -0.88777  -0.88197  -0.87764  -0.86780  -0.86474
 Alpha  occ. eigenvalues --   -0.86291  -0.85579  -0.84358  -0.83862  -0.83672
 Alpha  occ. eigenvalues --   -0.82049  -0.81577  -0.81036  -0.80694  -0.79920
 Alpha  occ. eigenvalues --   -0.79502  -0.78384  -0.77959  -0.77443  -0.76290
 Alpha  occ. eigenvalues --   -0.76039  -0.75401  -0.74995  -0.74026  -0.73776
 Alpha  occ. eigenvalues --   -0.72978  -0.72583  -0.71940  -0.70578  -0.69721
 Alpha  occ. eigenvalues --   -0.68391  -0.67757  -0.67474  -0.66442  -0.66330
 Alpha  occ. eigenvalues --   -0.64988  -0.64951  -0.64280  -0.63878  -0.63787
 Alpha  occ. eigenvalues --   -0.63662  -0.62651  -0.62291  -0.61741  -0.60487
 Alpha  occ. eigenvalues --   -0.59889  -0.59346  -0.59039  -0.58400  -0.58024
 Alpha  occ. eigenvalues --   -0.57601  -0.57158  -0.56841  -0.56223  -0.55990
 Alpha  occ. eigenvalues --   -0.55469  -0.55020  -0.54870  -0.54392  -0.54093
 Alpha  occ. eigenvalues --   -0.53495  -0.53369  -0.53112  -0.52990  -0.52868
 Alpha  occ. eigenvalues --   -0.52571  -0.52236  -0.51986  -0.51827  -0.51611
 Alpha  occ. eigenvalues --   -0.51440  -0.51149  -0.51051  -0.50598  -0.50206
 Alpha  occ. eigenvalues --   -0.50090  -0.49966  -0.49716  -0.49597  -0.49479
 Alpha  occ. eigenvalues --   -0.49322  -0.49261  -0.49147  -0.49050  -0.48636
 Alpha  occ. eigenvalues --   -0.48482  -0.48286  -0.48247  -0.47912  -0.47755
 Alpha  occ. eigenvalues --   -0.47706  -0.47050  -0.46888  -0.46798  -0.46566
 Alpha  occ. eigenvalues --   -0.46359  -0.46263  -0.46087  -0.45818  -0.45537
 Alpha  occ. eigenvalues --   -0.45477  -0.45375  -0.45143  -0.45032  -0.44895
 Alpha  occ. eigenvalues --   -0.44630  -0.44538  -0.44350  -0.44141  -0.44078
 Alpha  occ. eigenvalues --   -0.43851  -0.43416  -0.43188  -0.42956  -0.42926
 Alpha  occ. eigenvalues --   -0.42726  -0.42575  -0.42342  -0.42298  -0.42184
 Alpha  occ. eigenvalues --   -0.41989  -0.41686  -0.41395  -0.41186  -0.40950
 Alpha  occ. eigenvalues --   -0.40754  -0.40723  -0.40605  -0.40443  -0.40266
 Alpha  occ. eigenvalues --   -0.39872  -0.39622  -0.39367  -0.38631  -0.38615
 Alpha  occ. eigenvalues --   -0.38581  -0.38441  -0.38146  -0.37874  -0.37564
 Alpha  occ. eigenvalues --   -0.37342  -0.37190  -0.36923  -0.36729  -0.36234
 Alpha  occ. eigenvalues --   -0.35742  -0.35719  -0.34838  -0.34504  -0.34070
 Alpha  occ. eigenvalues --   -0.34001  -0.33243  -0.33107  -0.31345  -0.31090
 Alpha  occ. eigenvalues --   -0.30828  -0.30581  -0.29912  -0.28847  -0.24473
 Alpha  occ. eigenvalues --   -0.20937
 Alpha virt. eigenvalues --   -0.08239  -0.02488   0.00107   0.01146   0.01851
 Alpha virt. eigenvalues --    0.04684   0.04847   0.05199   0.05661   0.06789
 Alpha virt. eigenvalues --    0.07966   0.08453   0.08695   0.09067   0.09191

 Mulliken charges:
               1
     1  Mg   0.847385
     2  C   -0.011947
     3  C   -0.079455
     4  C   -0.106814
     5  C   -0.060428
     6  N   -0.196012
     7  C   -0.065467
     8  C   -0.007689
     9  C   -0.071218
    10  C   -0.018181
    11  C    0.086124
    12  C    0.091732
    13  C    0.032420
    14  C    0.180370
    15  O   -0.214991
    16  O   -0.349608
    17  N   -0.409034
    18  C    0.184124
    19  C   -0.161278
    20  C   -0.007346
    21  C    0.188342
    22  C    0.136638
    23  C   -0.009549
    24  O   -0.212339
    25  C    0.047212
    26  N   -0.344705
    27  C    0.060440
    28  C   -0.012556
    29  C   -0.028705
    30  C    0.031718
    31  C    0.081973
    32  C   -0.013201
    33  C    0.042976
    34  N   -0.354073
    35  C    0.101863
    36  C   -0.168400
    37  C    0.006055
    38  C    0.113820
    39  C    0.119829
    40  C    0.051517
    41  O   -0.170924
    42  C    0.016308
    43  C    0.196173
    44  O   -0.223316
    45  O   -0.343573
    46  C    0.172611
    47  C    0.259420
    48  C   -0.110901
    49  C   -0.150100
    50  C    0.078280
    51  C   -0.000379
    52  C    0.051008
    53  C    0.053795
    54  C   -0.153722
    55  C    0.034831
    56  C    0.046291
    57  C    0.001710
    58  C    0.058712
    59  C   -0.142036
    60  C    0.071537
    61  C    0.063530
    62  C   -0.014782
    63  C    0.037875
    64  C   -0.122387
    65  C    0.053703
    66  C   -0.004712
    67  H   -0.016905
    68  H   -0.068818
    69  H   -0.033013
    70  H    0.008186
    71  H    0.000959
    72  H    0.010009
    73  H    0.024628
    74  H    0.007227
    75  H    0.018385
    76  H    0.034108
    77  H    0.021850
    78  H    0.018097
    79  H    0.036411
    80  H    0.004851
    81  H    0.026839
    82  H    0.036975
    83  H    0.026498
    84  H    0.039033
    85  H    0.020256
    86  H    0.002732
    87  H    0.018129
    88  H    0.012431
    89  H    0.021742
    90  H    0.003702
    91  H    0.011232
    92  H    0.015564
    93  H    0.022472
    94  H    0.012131
    95  H    0.040907
    96  H    0.004493
    97  H    0.033405
    98  H    0.045963
    99  H    0.034304
   100  H    0.031268
   101  H    0.054674
   102  H    0.038352
   103  H    0.031674
   104  H   -0.000025
   105  H    0.025231
   106  H    0.004297
   107  H    0.027287
   108  H    0.010575
   109  H    0.021896
   110  H    0.003426
   111  H   -0.002910
   112  H   -0.004170
   113  H   -0.001726
   114  H   -0.003806
   115  H    0.004397
   116  H    0.007492
   117  H    0.001331
   118  H    0.006071
   119  H   -0.002120
   120  H   -0.004577
   121  H   -0.011367
   122  H   -0.015492
   123  H   -0.001327
   124  H   -0.008230
   125  H    0.005160
   126  H    0.020547
   127  H   -0.002302
   128  H   -0.014994
   129  H   -0.010412
   130  H    0.001321
   131  H   -0.002666
   132  H   -0.003822
   133  H   -0.000981
   134  H    0.000768
   135  H    0.002024
   136  H    0.013463
   137  H    0.010731
   138  H    0.009109
   139  H    0.004050
   140  H    0.000506
 Sum of Mulliken charges =  -0.00000

 Dipole moment (field-independent basis, Debye):
    X=             -0.9490    Y=             -3.1931    Z=             -0.1551  Tot=              3.3348
 Quadrupole moment (field-independent basis, Debye-Ang):
   XX=           -398.0191   YY=           -425.4836   ZZ=           -383.0363
   XY=             48.6821   XZ=             -0.0805   YZ=            -21.0115

 Normal termination of Gaussian 16 at Thu Apr 28 11:58:42 2022.
