 Gaussian 16, Revision A.03,
 Gaussian 16:  ES64L-G16RevA.03 25-Dec-2016

 ---------------------------------
 #p PBE1PBE/Def2SVP td=(nstates=5)
 ---------------------------------

 ------------------------------------------------------
 step_1551_chromophore_20 TDDFT with PBE1PBE functional
 ------------------------------------------------------
 Symbolic Z-matrix:
 Charge =  0 Multiplicity = 1

                         Standard orientation:
 ---------------------------------------------------------------------
 Center     Atomic      Atomic             Coordinates (Angstroms)
 Number     Number       Type             X           Y           Z
 ---------------------------------------------------------------------
      1         12           0       -3.913473   -1.558152   -0.661282
      2          6           0       -3.913780    1.969153   -0.921267
      3          6           0       -1.401656   -1.591335   -3.072454
      4          6           0       -3.113220   -4.642703    0.292001
      5          6           0       -6.108993   -1.204778    2.109890
      6          7           0       -2.779487    0.104287   -1.797615
      7          6           0       -2.931599    1.384838   -1.748264
      8          6           0       -2.117918    2.145345   -2.772272
      9          6           0       -1.660021    0.970882   -3.669528
     10          6           0       -1.945217   -0.249388   -2.808552
     11          6           0       -2.376867    0.850923   -4.957151
     12          6           0       -0.935501    2.916115   -2.185715
     13          6           0       -0.720212    4.315509   -2.689248
     14          6           0        0.155942    5.292609   -1.987168
     15          8           0       -0.082256    6.460852   -1.804718
     16          8           0        1.241296    4.586515   -1.483522
     17          7           0       -2.634673   -2.949080   -1.344189
     18          6           0       -1.709554   -2.758482   -2.332774
     19          6           0       -1.101248   -4.065495   -2.609547
     20          6           0       -1.492843   -4.997712   -1.622084
     21          6           0       -2.432150   -4.182768   -0.797519
     22          6           0       -0.143271   -4.273171   -3.810710
     23          6           0       -0.996649   -6.412124   -1.452684
     24          8           0       -0.113307   -6.895997   -2.158749
     25          6           0       -1.683525   -7.476595   -0.589636
     26          7           0       -4.331167   -2.677938    1.108809
     27          6           0       -4.013819   -4.035984    1.138323
     28          6           0       -4.608535   -4.732952    2.378153
     29          6           0       -5.589867   -3.660744    2.999952
     30          6           0       -5.363765   -2.428002    2.064127
     31          6           0       -5.116808   -6.149103    2.274644
     32          6           0       -5.438165   -3.256405    4.464577
     33          6           0       -5.073145   -4.294240    5.484726
     34          7           0       -4.956315   -0.023436    0.333370
     35          6           0       -5.923871   -0.013115    1.342728
     36          6           0       -6.541308    1.321305    1.475697
     37          6           0       -5.766401    2.074346    0.597585
     38          6           0       -4.784756    1.265236   -0.065056
     39          6           0       -7.775643    1.764051    2.325820
     40          6           0       -5.630025    3.452102   -0.017221
     41          8           0       -6.308674    4.441528    0.224277
     42          6           0       -4.460092    3.446165   -1.034414
     43          6           0       -3.534345    4.544301   -0.579245
     44          8           0       -2.756144    4.532003    0.377092
     45          8           0       -3.642778    5.637086   -1.422520
     46          6           0       -2.993342    6.878633   -1.088088
     47          6           0        2.090540    5.432094   -0.630701
     48          6           0        3.163659    4.656438    0.201666
     49          6           0        4.004279    5.188022    1.118165
     50          6           0        3.951189    6.593433    1.604660
     51          6           0        4.653329    4.170250    2.038282
     52          6           0        5.781212    4.570557    3.027116
     53          6           0        6.951441    3.632799    2.821091
     54          6           0        6.629472    2.230470    3.522858
     55          6           0        7.026201    2.186108    5.002205
     56          6           0        7.144098    0.945304    2.755181
     57          6           0        5.935793    0.007014    2.206051
     58          6           0        6.225655   -1.439888    2.470238
     59          6           0        6.595492   -2.307412    1.162904
     60          6           0        6.003014   -3.743696    1.200638
     61          6           0        8.071607   -2.402563    0.996142
     62          6           0        8.563099   -2.217250   -0.548995
     63          6           0        9.805203   -3.091007   -0.854915
     64          6           0       10.237719   -2.934326   -2.328080
     65          6           0        9.553721   -3.948030   -3.306647
     66          6           0       11.855982   -3.016738   -2.436220
     67          1           0       -0.820922   -1.651650   -3.994901
     68          1           0       -2.844315   -5.663708    0.570130
     69          1           0       -6.861027   -1.211071    2.901899
     70          1           0       -2.754177    2.792830   -3.373859
     71          1           0       -0.603051    0.944015   -3.936699
     72          1           0       -3.224909    1.535701   -4.938726
     73          1           0       -2.625390   -0.141295   -5.332581
     74          1           0       -1.674103    1.268582   -5.678639
     75          1           0        0.032799    2.449940   -2.369031
     76          1           0       -1.126460    3.023082   -1.117901
     77          1           0       -1.692134    4.755166   -2.911893
     78          1           0       -0.169584    4.195661   -3.622255
     79          1           0        0.847936   -4.504652   -3.420542
     80          1           0       -0.167479   -3.410304   -4.475411
     81          1           0       -0.364189   -5.178709   -4.376312
     82          1           0       -1.367081   -7.325687    0.442983
     83          1           0       -1.309983   -8.465726   -0.857084
     84          1           0       -2.769995   -7.492133   -0.679673
     85          1           0       -3.735828   -4.756031    3.030315
     86          1           0       -6.639134   -3.953478    2.971000
     87          1           0       -5.806587   -6.404609    3.079062
     88          1           0       -4.268842   -6.819811    2.409020
     89          1           0       -5.566128   -6.366215    1.305438
     90          1           0       -6.420616   -2.838548    4.683546
     91          1           0       -4.770870   -2.395711    4.493773
     92          1           0       -5.988564   -4.596444    5.992298
     93          1           0       -4.408446   -3.797170    6.192235
     94          1           0       -4.570905   -5.141943    5.019555
     95          1           0       -7.525382    2.610690    2.965563
     96          1           0       -8.113137    0.885935    2.876052
     97          1           0       -8.645703    2.102469    1.763275
     98          1           0       -4.810808    3.674530   -2.040729
     99          1           0       -3.735674    7.447488   -0.528449
    100          1           0       -2.740103    7.427033   -1.995928
    101          1           0       -2.032986    6.770302   -0.582646
    102          1           0        1.552191    5.974664    0.145935
    103          1           0        2.542430    6.214005   -1.241790
    104          1           0        3.342032    3.607706   -0.033879
    105          1           0        3.571450    6.692361    2.621150
    106          1           0        3.256541    7.202390    1.025571
    107          1           0        4.956191    7.014222    1.561388
    108          1           0        4.881997    3.327017    1.385910
    109          1           0        3.867457    3.779795    2.684359
    110          1           0        5.381583    4.571661    4.041190
    111          1           0        6.217985    5.541962    2.798302
    112          1           0        7.901844    3.962504    3.240208
    113          1           0        7.037290    3.433823    1.752994
    114          1           0        5.550522    2.141848    3.643833
    115          1           0        8.039028    1.826724    5.184194
    116          1           0        6.306917    1.493328    5.439811
    117          1           0        6.974567    3.143076    5.521281
    118          1           0        7.826629    0.363941    3.375945
    119          1           0        7.599107    1.291116    1.826711
    120          1           0        5.659524    0.240695    1.177504
    121          1           0        5.027690    0.329653    2.714320
    122          1           0        5.289048   -1.874569    2.820490
    123          1           0        7.014807   -1.494848    3.219875
    124          1           0        6.093927   -1.788231    0.345444
    125          1           0        6.759387   -4.464625    0.889051
    126          1           0        5.039189   -3.714695    0.691235
    127          1           0        5.916355   -3.980492    2.260594
    128          1           0        8.499653   -3.362405    1.285328
    129          1           0        8.633327   -1.712972    1.627052
    130          1           0        8.775592   -1.157475   -0.693041
    131          1           0        7.732782   -2.427248   -1.222895
    132          1           0        9.575019   -4.146378   -0.709595
    133          1           0       10.621825   -2.861089   -0.171599
    134          1           0       10.066570   -1.895348   -2.613031
    135          1           0        8.886489   -3.366348   -3.942897
    136          1           0        8.885855   -4.687422   -2.864403
    137          1           0       10.278527   -4.395461   -3.986166
    138          1           0       12.374297   -2.113109   -2.115647
    139          1           0       12.355044   -3.299791   -3.363407
    140          1           0       12.147972   -3.821419   -1.761933
 ---------------------------------------------------------------------

 SCF Done:  E(RPBE1PBE) =  -3005.35907104     A.U. after   15 cycles

 Excitation energies and oscillator strengths:

 Excited State   1:      Singlet-A      1.8690 eV  663.38 nm  f=0.3476  <S**2>=0.000
     245 -> 248       -0.18715
     246 -> 247        0.68860
 This state for optimization and/or second-order correction.
 Total Energy, E(TD-HF/TD-DFT) =  -3005.29038719
 Copying the excited state density for this state as the 1-particle RhoCI density.

 Excited State   2:      Singlet-A      2.3177 eV  534.94 nm  f=0.0457  <S**2>=0.000
     245 -> 247        0.60854
     246 -> 248        0.35165

 Excited State   3:      Singlet-A      3.0944 eV  400.68 nm  f=0.0073  <S**2>=0.000
     241 -> 247        0.37925
     241 -> 249       -0.11929
     242 -> 247        0.13327
     243 -> 247        0.52610
     246 -> 248        0.11133

 Excited State   4:      Singlet-A      3.1431 eV  394.47 nm  f=0.0011  <S**2>=0.000
     241 -> 247       -0.16347
     242 -> 247        0.62243
     242 -> 249        0.21163
     242 -> 250       -0.10809

 Excited State   5:      Singlet-A      3.1976 eV  387.75 nm  f=0.1424  <S**2>=0.000
     241 -> 247        0.44041
     242 -> 247        0.11754
     243 -> 247       -0.27840
     245 -> 247        0.17977
     246 -> 248       -0.37973
     246 -> 249        0.11580

 The electronic state is 1-A.
 Alpha  occ. eigenvalues --  -46.92783 -19.26119 -19.24912 -19.20971 -19.19758
 Alpha  occ. eigenvalues --  -19.19457 -19.19041 -14.41976 -14.41637 -14.39966
 Alpha  occ. eigenvalues --  -14.39177 -10.36699 -10.36568 -10.32666 -10.32640
 Alpha  occ. eigenvalues --  -10.29470 -10.29448 -10.29291 -10.29039 -10.28482
 Alpha  occ. eigenvalues --  -10.28437 -10.28373 -10.28338 -10.27000 -10.26982
 Alpha  occ. eigenvalues --  -10.26766 -10.26518 -10.26386 -10.26350 -10.26119
 Alpha  occ. eigenvalues --  -10.26074 -10.26062 -10.25884 -10.25430 -10.25225
 Alpha  occ. eigenvalues --  -10.25045 -10.24305 -10.24160 -10.24158 -10.24096
 Alpha  occ. eigenvalues --  -10.23989 -10.23813 -10.23723 -10.23651 -10.23591
 Alpha  occ. eigenvalues --  -10.23478 -10.23434 -10.23411 -10.23356 -10.23225
 Alpha  occ. eigenvalues --  -10.22995 -10.22969 -10.22837 -10.22693 -10.22670
 Alpha  occ. eigenvalues --  -10.22542 -10.22480 -10.22373 -10.22144 -10.22108
 Alpha  occ. eigenvalues --  -10.21828 -10.21780 -10.21773 -10.21635 -10.21522
 Alpha  occ. eigenvalues --  -10.21353  -3.14913  -1.87708  -1.87306  -1.87135
 Alpha  occ. eigenvalues --   -1.11451  -1.10089  -1.04628  -1.04559  -1.03727
 Alpha  occ. eigenvalues --   -1.01634  -1.01021  -0.98499  -0.97416  -0.95634
 Alpha  occ. eigenvalues --   -0.86242  -0.85387  -0.84530  -0.83853  -0.83111
 Alpha  occ. eigenvalues --   -0.83059  -0.82447  -0.81878  -0.80880  -0.80699
 Alpha  occ. eigenvalues --   -0.80520  -0.80013  -0.78640  -0.78148  -0.77895
 Alpha  occ. eigenvalues --   -0.76294  -0.75722  -0.75222  -0.75033  -0.74172
 Alpha  occ. eigenvalues --   -0.73626  -0.72654  -0.72297  -0.71665  -0.70463
 Alpha  occ. eigenvalues --   -0.70374  -0.69754  -0.69047  -0.68146  -0.67900
 Alpha  occ. eigenvalues --   -0.67423  -0.66942  -0.66350  -0.64862  -0.64131
 Alpha  occ. eigenvalues --   -0.62752  -0.62049  -0.61953  -0.60885  -0.60564
 Alpha  occ. eigenvalues --   -0.59532  -0.59147  -0.58869  -0.58310  -0.58207
 Alpha  occ. eigenvalues --   -0.57764  -0.56835  -0.56470  -0.56327  -0.54966
 Alpha  occ. eigenvalues --   -0.54429  -0.54013  -0.53475  -0.52951  -0.52518
 Alpha  occ. eigenvalues --   -0.52136  -0.51537  -0.51350  -0.50788  -0.50522
 Alpha  occ. eigenvalues --   -0.49995  -0.49583  -0.49440  -0.48916  -0.48471
 Alpha  occ. eigenvalues --   -0.47974  -0.47717  -0.47620  -0.47602  -0.47418
 Alpha  occ. eigenvalues --   -0.47112  -0.46899  -0.46456  -0.46284  -0.46095
 Alpha  occ. eigenvalues --   -0.45915  -0.45726  -0.45568  -0.45216  -0.44740
 Alpha  occ. eigenvalues --   -0.44604  -0.44517  -0.44339  -0.44186  -0.44044
 Alpha  occ. eigenvalues --   -0.43973  -0.43760  -0.43734  -0.43709  -0.43270
 Alpha  occ. eigenvalues --   -0.43162  -0.42839  -0.42808  -0.42520  -0.42394
 Alpha  occ. eigenvalues --   -0.42276  -0.41713  -0.41559  -0.41477  -0.41246
 Alpha  occ. eigenvalues --   -0.41068  -0.40889  -0.40779  -0.40555  -0.40243
 Alpha  occ. eigenvalues --   -0.40236  -0.40141  -0.39920  -0.39628  -0.39538
 Alpha  occ. eigenvalues --   -0.39426  -0.39297  -0.38938  -0.38899  -0.38830
 Alpha  occ. eigenvalues --   -0.38678  -0.38285  -0.37871  -0.37775  -0.37614
 Alpha  occ. eigenvalues --   -0.37425  -0.37391  -0.37185  -0.37105  -0.37017
 Alpha  occ. eigenvalues --   -0.36849  -0.36572  -0.36122  -0.35869  -0.35765
 Alpha  occ. eigenvalues --   -0.35627  -0.35543  -0.35448  -0.35189  -0.35044
 Alpha  occ. eigenvalues --   -0.34623  -0.34509  -0.34297  -0.33597  -0.33524
 Alpha  occ. eigenvalues --   -0.33389  -0.33188  -0.33143  -0.32675  -0.32465
 Alpha  occ. eigenvalues --   -0.32275  -0.32129  -0.31947  -0.31574  -0.31007
 Alpha  occ. eigenvalues --   -0.30667  -0.30524  -0.30040  -0.29354  -0.29171
 Alpha  occ. eigenvalues --   -0.28983  -0.28534  -0.28110  -0.27020  -0.26131
 Alpha  occ. eigenvalues --   -0.25787  -0.25670  -0.25532  -0.24108  -0.21366
 Alpha  occ. eigenvalues --   -0.18637
 Alpha virt. eigenvalues --   -0.10840  -0.05890  -0.04094  -0.02622  -0.01564
 Alpha virt. eigenvalues --    0.00102   0.00387   0.00780   0.01136   0.02826
 Alpha virt. eigenvalues --    0.04229   0.04636   0.05099   0.05832   0.05982

 Mulliken charges:
               1
     1  Mg   0.990764
     2  C    0.001880
     3  C   -0.067305
     4  C   -0.101437
     5  C   -0.060790
     6  N   -0.304577
     7  C    0.015186
     8  C   -0.087864
     9  C   -0.149212
    10  C    0.022002
    11  C    0.032841
    12  C    0.046839
    13  C   -0.050028
    14  C    0.250023
    15  O   -0.251430
    16  O   -0.380079
    17  N   -0.528034
    18  C    0.198887
    19  C   -0.183010
    20  C   -0.054363
    21  C    0.204900
    22  C    0.078991
    23  C    0.045059
    24  O   -0.246422
    25  C   -0.035856
    26  N   -0.436097
    27  C    0.098901
    28  C   -0.093767
    29  C   -0.097391
    30  C    0.065995
    31  C    0.021003
    32  C   -0.073333
    33  C   -0.030948
    34  N   -0.475384
    35  C    0.115874
    36  C   -0.177314
    37  C   -0.045375
    38  C    0.156604
    39  C    0.067210
    40  C    0.146011
    41  O   -0.214785
    42  C   -0.100538
    43  C    0.289398
    44  O   -0.259349
    45  O   -0.377148
    46  C    0.118498
    47  C    0.221443
    48  C   -0.127638
    49  C   -0.184382
    50  C    0.012841
    51  C   -0.061152
    52  C   -0.016616
    53  C   -0.009896
    54  C   -0.232918
    55  C   -0.022870
    56  C   -0.008744
    57  C   -0.052621
    58  C   -0.003086
    59  C   -0.226471
    60  C    0.008884
    61  C    0.012063
    62  C   -0.074707
    63  C   -0.019959
    64  C   -0.213874
    65  C   -0.006088
    66  C   -0.066164
    67  H    0.013499
    68  H   -0.028483
    69  H    0.000620
    70  H    0.044567
    71  H    0.036902
    72  H    0.037821
    73  H    0.052144
    74  H    0.035651
    75  H    0.049977
    76  H    0.069136
    77  H    0.055552
    78  H    0.053062
    79  H    0.063504
    80  H    0.031364
    81  H    0.054268
    82  H    0.063094
    83  H    0.054894
    84  H    0.065066
    85  H    0.059785
    86  H    0.040535
    87  H    0.045395
    88  H    0.039258
    89  H    0.049950
    90  H    0.036719
    91  H    0.044232
    92  H    0.043359
    93  H    0.050769
    94  H    0.040677
    95  H    0.067874
    96  H    0.032560
    97  H    0.060813
    98  H    0.081020
    99  H    0.057738
   100  H    0.052909
   101  H    0.076722
   102  H    0.064290
   103  H    0.058345
   104  H    0.029159
   105  H    0.052575
   106  H    0.031954
   107  H    0.055178
   108  H    0.042385
   109  H    0.054682
   110  H    0.035893
   111  H    0.030876
   112  H    0.028445
   113  H    0.032447
   114  H    0.034462
   115  H    0.031742
   116  H    0.036046
   117  H    0.028755
   118  H    0.035585
   119  H    0.031722
   120  H    0.025258
   121  H    0.021071
   122  H    0.019054
   123  H    0.030544
   124  H    0.029182
   125  H    0.033056
   126  H    0.047946
   127  H    0.026052
   128  H    0.017645
   129  H    0.022867
   130  H    0.034252
   131  H    0.030069
   132  H    0.028788
   133  H    0.031396
   134  H    0.038615
   135  H    0.029787
   136  H    0.039436
   137  H    0.037626
   138  H    0.036870
   139  H    0.031111
   140  H    0.028811
 Sum of Mulliken charges =  -0.00000

 Dipole moment (field-independent basis, Debye):
    X=             -1.1778    Y=             -3.0831    Z=              0.0355  Tot=              3.3007
 Quadrupole moment (field-independent basis, Debye-Ang):
   XX=           -393.5927   YY=           -422.5747   ZZ=           -379.0017
   XY=             48.7089   XZ=             -1.4040   YZ=            -21.9079

 Normal termination of Gaussian 16 at Thu Apr 28 12:26:50 2022.
