 Gaussian 16, Revision A.03,
 Gaussian 16:  ES64L-G16RevA.03 25-Dec-2016

 --------------------------------
 #p wB97XD/Def2SVP td=(nstates=5)
 --------------------------------

 -----------------------------------------------------
 step_1551_chromophore_20 TDDFT with wB97XD functional
 -----------------------------------------------------
 Symbolic Z-matrix:
 Charge =  0 Multiplicity = 1

                         Standard orientation:
 ---------------------------------------------------------------------
 Center     Atomic      Atomic             Coordinates (Angstroms)
 Number     Number       Type             X           Y           Z
 ---------------------------------------------------------------------
      1         12           0       -3.913473   -1.558152   -0.661282
      2          6           0       -3.913780    1.969153   -0.921267
      3          6           0       -1.401656   -1.591335   -3.072454
      4          6           0       -3.113220   -4.642703    0.292001
      5          6           0       -6.108993   -1.204778    2.109890
      6          7           0       -2.779487    0.104287   -1.797615
      7          6           0       -2.931599    1.384838   -1.748264
      8          6           0       -2.117918    2.145345   -2.772272
      9          6           0       -1.660021    0.970882   -3.669528
     10          6           0       -1.945217   -0.249388   -2.808552
     11          6           0       -2.376867    0.850923   -4.957151
     12          6           0       -0.935501    2.916115   -2.185715
     13          6           0       -0.720212    4.315509   -2.689248
     14          6           0        0.155942    5.292609   -1.987168
     15          8           0       -0.082256    6.460852   -1.804718
     16          8           0        1.241296    4.586515   -1.483522
     17          7           0       -2.634673   -2.949080   -1.344189
     18          6           0       -1.709554   -2.758482   -2.332774
     19          6           0       -1.101248   -4.065495   -2.609547
     20          6           0       -1.492843   -4.997712   -1.622084
     21          6           0       -2.432150   -4.182768   -0.797519
     22          6           0       -0.143271   -4.273171   -3.810710
     23          6           0       -0.996649   -6.412124   -1.452684
     24          8           0       -0.113307   -6.895997   -2.158749
     25          6           0       -1.683525   -7.476595   -0.589636
     26          7           0       -4.331167   -2.677938    1.108809
     27          6           0       -4.013819   -4.035984    1.138323
     28          6           0       -4.608535   -4.732952    2.378153
     29          6           0       -5.589867   -3.660744    2.999952
     30          6           0       -5.363765   -2.428002    2.064127
     31          6           0       -5.116808   -6.149103    2.274644
     32          6           0       -5.438165   -3.256405    4.464577
     33          6           0       -5.073145   -4.294240    5.484726
     34          7           0       -4.956315   -0.023436    0.333370
     35          6           0       -5.923871   -0.013115    1.342728
     36          6           0       -6.541308    1.321305    1.475697
     37          6           0       -5.766401    2.074346    0.597585
     38          6           0       -4.784756    1.265236   -0.065056
     39          6           0       -7.775643    1.764051    2.325820
     40          6           0       -5.630025    3.452102   -0.017221
     41          8           0       -6.308674    4.441528    0.224277
     42          6           0       -4.460092    3.446165   -1.034414
     43          6           0       -3.534345    4.544301   -0.579245
     44          8           0       -2.756144    4.532003    0.377092
     45          8           0       -3.642778    5.637086   -1.422520
     46          6           0       -2.993342    6.878633   -1.088088
     47          6           0        2.090540    5.432094   -0.630701
     48          6           0        3.163659    4.656438    0.201666
     49          6           0        4.004279    5.188022    1.118165
     50          6           0        3.951189    6.593433    1.604660
     51          6           0        4.653329    4.170250    2.038282
     52          6           0        5.781212    4.570557    3.027116
     53          6           0        6.951441    3.632799    2.821091
     54          6           0        6.629472    2.230470    3.522858
     55          6           0        7.026201    2.186108    5.002205
     56          6           0        7.144098    0.945304    2.755181
     57          6           0        5.935793    0.007014    2.206051
     58          6           0        6.225655   -1.439888    2.470238
     59          6           0        6.595492   -2.307412    1.162904
     60          6           0        6.003014   -3.743696    1.200638
     61          6           0        8.071607   -2.402563    0.996142
     62          6           0        8.563099   -2.217250   -0.548995
     63          6           0        9.805203   -3.091007   -0.854915
     64          6           0       10.237719   -2.934326   -2.328080
     65          6           0        9.553721   -3.948030   -3.306647
     66          6           0       11.855982   -3.016738   -2.436220
     67          1           0       -0.820922   -1.651650   -3.994901
     68          1           0       -2.844315   -5.663708    0.570130
     69          1           0       -6.861027   -1.211071    2.901899
     70          1           0       -2.754177    2.792830   -3.373859
     71          1           0       -0.603051    0.944015   -3.936699
     72          1           0       -3.224909    1.535701   -4.938726
     73          1           0       -2.625390   -0.141295   -5.332581
     74          1           0       -1.674103    1.268582   -5.678639
     75          1           0        0.032799    2.449940   -2.369031
     76          1           0       -1.126460    3.023082   -1.117901
     77          1           0       -1.692134    4.755166   -2.911893
     78          1           0       -0.169584    4.195661   -3.622255
     79          1           0        0.847936   -4.504652   -3.420542
     80          1           0       -0.167479   -3.410304   -4.475411
     81          1           0       -0.364189   -5.178709   -4.376312
     82          1           0       -1.367081   -7.325687    0.442983
     83          1           0       -1.309983   -8.465726   -0.857084
     84          1           0       -2.769995   -7.492133   -0.679673
     85          1           0       -3.735828   -4.756031    3.030315
     86          1           0       -6.639134   -3.953478    2.971000
     87          1           0       -5.806587   -6.404609    3.079062
     88          1           0       -4.268842   -6.819811    2.409020
     89          1           0       -5.566128   -6.366215    1.305438
     90          1           0       -6.420616   -2.838548    4.683546
     91          1           0       -4.770870   -2.395711    4.493773
     92          1           0       -5.988564   -4.596444    5.992298
     93          1           0       -4.408446   -3.797170    6.192235
     94          1           0       -4.570905   -5.141943    5.019555
     95          1           0       -7.525382    2.610690    2.965563
     96          1           0       -8.113137    0.885935    2.876052
     97          1           0       -8.645703    2.102469    1.763275
     98          1           0       -4.810808    3.674530   -2.040729
     99          1           0       -3.735674    7.447488   -0.528449
    100          1           0       -2.740103    7.427033   -1.995928
    101          1           0       -2.032986    6.770302   -0.582646
    102          1           0        1.552191    5.974664    0.145935
    103          1           0        2.542430    6.214005   -1.241790
    104          1           0        3.342032    3.607706   -0.033879
    105          1           0        3.571450    6.692361    2.621150
    106          1           0        3.256541    7.202390    1.025571
    107          1           0        4.956191    7.014222    1.561388
    108          1           0        4.881997    3.327017    1.385910
    109          1           0        3.867457    3.779795    2.684359
    110          1           0        5.381583    4.571661    4.041190
    111          1           0        6.217985    5.541962    2.798302
    112          1           0        7.901844    3.962504    3.240208
    113          1           0        7.037290    3.433823    1.752994
    114          1           0        5.550522    2.141848    3.643833
    115          1           0        8.039028    1.826724    5.184194
    116          1           0        6.306917    1.493328    5.439811
    117          1           0        6.974567    3.143076    5.521281
    118          1           0        7.826629    0.363941    3.375945
    119          1           0        7.599107    1.291116    1.826711
    120          1           0        5.659524    0.240695    1.177504
    121          1           0        5.027690    0.329653    2.714320
    122          1           0        5.289048   -1.874569    2.820490
    123          1           0        7.014807   -1.494848    3.219875
    124          1           0        6.093927   -1.788231    0.345444
    125          1           0        6.759387   -4.464625    0.889051
    126          1           0        5.039189   -3.714695    0.691235
    127          1           0        5.916355   -3.980492    2.260594
    128          1           0        8.499653   -3.362405    1.285328
    129          1           0        8.633327   -1.712972    1.627052
    130          1           0        8.775592   -1.157475   -0.693041
    131          1           0        7.732782   -2.427248   -1.222895
    132          1           0        9.575019   -4.146378   -0.709595
    133          1           0       10.621825   -2.861089   -0.171599
    134          1           0       10.066570   -1.895348   -2.613031
    135          1           0        8.886489   -3.366348   -3.942897
    136          1           0        8.885855   -4.687422   -2.864403
    137          1           0       10.278527   -4.395461   -3.986166
    138          1           0       12.374297   -2.113109   -2.115647
    139          1           0       12.355044   -3.299791   -3.363407
    140          1           0       12.147972   -3.821419   -1.761933
 ---------------------------------------------------------------------

 SCF Done:  E(RwB97XD) =  -3007.86982070     A.U. after   17 cycles

 Excitation energies and oscillator strengths:

 Excited State   1:      Singlet-A      1.6618 eV  746.08 nm  f=0.3516  <S**2>=0.000
     245 -> 248       -0.19968
     246 -> 247        0.67993
     245 <- 248       -0.12094
 This state for optimization and/or second-order correction.
 Total Energy, E(TD-HF/TD-DFT) =  -3007.80875039
 Copying the excited state density for this state as the 1-particle RhoCI density.

 Excited State   2:      Singlet-A      2.2619 eV  548.14 nm  f=0.0371  <S**2>=0.000
     245 -> 247        0.58866
     246 -> 248        0.38211

 Excited State   3:      Singlet-A      3.4322 eV  361.24 nm  f=0.6563  <S**2>=0.000
     243 -> 247       -0.24843
     245 -> 247       -0.33406
     246 -> 248        0.55415
     245 <- 247        0.10813

 Excited State   4:      Singlet-A      3.5969 eV  344.70 nm  f=0.0275  <S**2>=0.000
     240 -> 247       -0.18671
     240 -> 249       -0.24148
     240 -> 250       -0.12624
     241 -> 247        0.37794
     241 -> 250        0.15101
     242 -> 249       -0.20519
     243 -> 247       -0.34962

 Excited State   5:      Singlet-A      3.6052 eV  343.91 nm  f=0.0520  <S**2>=0.000
     240 -> 247        0.29229
     240 -> 249        0.24137
     240 -> 250        0.15299
     241 -> 249       -0.23944
     242 -> 247        0.36708
     242 -> 250        0.18061
     243 -> 247       -0.16356
     246 -> 248       -0.10919

 The electronic state is 1-A.
 Alpha  occ. eigenvalues --  -46.95716 -19.30675 -19.29471 -19.25633 -19.24498
 Alpha  occ. eigenvalues --  -19.24243 -19.23947 -14.47159 -14.46608 -14.45006
 Alpha  occ. eigenvalues --  -14.44045 -10.43490 -10.43432 -10.39559 -10.39455
 Alpha  occ. eigenvalues --  -10.35957 -10.35641 -10.35575 -10.35498 -10.35078
 Alpha  occ. eigenvalues --  -10.34848 -10.34611 -10.34502 -10.33499 -10.33402
 Alpha  occ. eigenvalues --  -10.33213 -10.32898 -10.32731 -10.32628 -10.32602
 Alpha  occ. eigenvalues --  -10.32363 -10.32320 -10.32055 -10.31730 -10.31696
 Alpha  occ. eigenvalues --  -10.31283 -10.30725 -10.30535 -10.30506 -10.30489
 Alpha  occ. eigenvalues --  -10.30333 -10.30107 -10.30106 -10.30102 -10.30056
 Alpha  occ. eigenvalues --  -10.30054 -10.29846 -10.29744 -10.29623 -10.29584
 Alpha  occ. eigenvalues --  -10.29425 -10.29265 -10.29216 -10.29076 -10.28958
 Alpha  occ. eigenvalues --  -10.28890 -10.28870 -10.28740 -10.28537 -10.28467
 Alpha  occ. eigenvalues --  -10.28214 -10.28188 -10.28159 -10.28064 -10.27960
 Alpha  occ. eigenvalues --  -10.27798  -3.21720  -1.95263  -1.94860  -1.94684
 Alpha  occ. eigenvalues --   -1.18818  -1.17496  -1.12137  -1.12078  -1.11054
 Alpha  occ. eigenvalues --   -1.09021  -1.08399  -1.06009  -1.04658  -1.03030
 Alpha  occ. eigenvalues --   -0.93850  -0.92981  -0.92198  -0.91432  -0.90787
 Alpha  occ. eigenvalues --   -0.90712  -0.90068  -0.89552  -0.88557  -0.88415
 Alpha  occ. eigenvalues --   -0.88255  -0.87510  -0.86250  -0.85734  -0.85551
 Alpha  occ. eigenvalues --   -0.83945  -0.83447  -0.82939  -0.82666  -0.81813
 Alpha  occ. eigenvalues --   -0.81309  -0.80276  -0.79864  -0.79408  -0.78126
 Alpha  occ. eigenvalues --   -0.77980  -0.77360  -0.76766  -0.75836  -0.75589
 Alpha  occ. eigenvalues --   -0.74948  -0.74525  -0.73916  -0.72489  -0.71657
 Alpha  occ. eigenvalues --   -0.70410  -0.69608  -0.69496  -0.68396  -0.68199
 Alpha  occ. eigenvalues --   -0.67000  -0.66791  -0.66276  -0.65811  -0.65710
 Alpha  occ. eigenvalues --   -0.65460  -0.64479  -0.64111  -0.63735  -0.62436
 Alpha  occ. eigenvalues --   -0.61911  -0.61339  -0.60963  -0.60383  -0.59982
 Alpha  occ. eigenvalues --   -0.59598  -0.59042  -0.58798  -0.58164  -0.57954
 Alpha  occ. eigenvalues --   -0.57398  -0.56943  -0.56819  -0.56313  -0.55945
 Alpha  occ. eigenvalues --   -0.55380  -0.55207  -0.54998  -0.54957  -0.54817
 Alpha  occ. eigenvalues --   -0.54478  -0.54169  -0.53941  -0.53688  -0.53561
 Alpha  occ. eigenvalues --   -0.53297  -0.52987  -0.52973  -0.52537  -0.52164
 Alpha  occ. eigenvalues --   -0.51948  -0.51886  -0.51654  -0.51501  -0.51379
 Alpha  occ. eigenvalues --   -0.51219  -0.51135  -0.51118  -0.50964  -0.50622
 Alpha  occ. eigenvalues --   -0.50393  -0.50187  -0.50137  -0.49831  -0.49645
 Alpha  occ. eigenvalues --   -0.49575  -0.48990  -0.48748  -0.48717  -0.48485
 Alpha  occ. eigenvalues --   -0.48275  -0.48134  -0.48031  -0.47748  -0.47456
 Alpha  occ. eigenvalues --   -0.47404  -0.47300  -0.47083  -0.46875  -0.46746
 Alpha  occ. eigenvalues --   -0.46558  -0.46446  -0.46163  -0.46076  -0.45995
 Alpha  occ. eigenvalues --   -0.45756  -0.45323  -0.45028  -0.44920  -0.44786
 Alpha  occ. eigenvalues --   -0.44585  -0.44570  -0.44269  -0.44203  -0.44091
 Alpha  occ. eigenvalues --   -0.43930  -0.43683  -0.43254  -0.43019  -0.42829
 Alpha  occ. eigenvalues --   -0.42671  -0.42552  -0.42529  -0.42282  -0.42193
 Alpha  occ. eigenvalues --   -0.41704  -0.41525  -0.41266  -0.40539  -0.40467
 Alpha  occ. eigenvalues --   -0.40425  -0.40258  -0.40078  -0.39746  -0.39538
 Alpha  occ. eigenvalues --   -0.39310  -0.39169  -0.38884  -0.38564  -0.38060
 Alpha  occ. eigenvalues --   -0.37724  -0.37555  -0.36837  -0.36410  -0.36062
 Alpha  occ. eigenvalues --   -0.35840  -0.35439  -0.34939  -0.33587  -0.33070
 Alpha  occ. eigenvalues --   -0.32842  -0.32714  -0.32049  -0.30869  -0.26411
 Alpha  occ. eigenvalues --   -0.22751
 Alpha virt. eigenvalues --   -0.06575  -0.00592   0.02197   0.03897   0.04371
 Alpha virt. eigenvalues --    0.06875   0.07138   0.07538   0.07989   0.09488
 Alpha virt. eigenvalues --    0.11032   0.11123   0.11831   0.12581   0.12638

 Mulliken charges:
               1
     1  Mg   0.982678
     2  C   -0.011779
     3  C   -0.085880
     4  C   -0.113146
     5  C   -0.074916
     6  N   -0.263884
     7  C   -0.021966
     8  C   -0.056440
     9  C   -0.121112
    10  C    0.005587
    11  C    0.038748
    12  C    0.056782
    13  C   -0.025838
    14  C    0.237106
    15  O   -0.246921
    16  O   -0.379271
    17  N   -0.496400
    18  C    0.195179
    19  C   -0.174829
    20  C   -0.051026
    21  C    0.208603
    22  C    0.089195
    23  C    0.038984
    24  O   -0.241485
    25  C   -0.019589
    26  N   -0.411299
    27  C    0.088729
    28  C   -0.067136
    29  C   -0.076198
    30  C    0.056755
    31  C    0.031112
    32  C   -0.057621
    33  C   -0.013673
    34  N   -0.439440
    35  C    0.110786
    36  C   -0.181793
    37  C   -0.037613
    38  C    0.141817
    39  C    0.081986
    40  C    0.126184
    41  O   -0.206207
    42  C   -0.056272
    43  C    0.259277
    44  O   -0.250805
    45  O   -0.372833
    46  C    0.130949
    47  C    0.235345
    48  C   -0.131683
    49  C   -0.175222
    50  C    0.025347
    51  C   -0.041151
    52  C    0.001134
    53  C    0.011399
    54  C   -0.203082
    55  C   -0.012112
    56  C    0.006953
    57  C   -0.039141
    58  C    0.016112
    59  C   -0.198050
    60  C    0.022143
    61  C    0.027368
    62  C   -0.058519
    63  C   -0.004414
    64  C   -0.185797
    65  C    0.004141
    66  C   -0.051829
    67  H    0.007967
    68  H   -0.047617
    69  H   -0.006915
    70  H    0.029639
    71  H    0.027424
    72  H    0.031916
    73  H    0.046553
    74  H    0.030284
    75  H    0.043090
    76  H    0.057874
    77  H    0.043432
    78  H    0.045533
    79  H    0.060504
    80  H    0.027075
    81  H    0.051130
    82  H    0.058784
    83  H    0.053816
    84  H    0.059871
    85  H    0.046968
    86  H    0.030641
    87  H    0.040561
    88  H    0.033542
    89  H    0.044348
    90  H    0.027929
    91  H    0.035820
    92  H    0.038015
    93  H    0.045668
    94  H    0.030962
    95  H    0.062875
    96  H    0.025520
    97  H    0.055519
    98  H    0.076183
    99  H    0.055008
   100  H    0.050364
   101  H    0.071330
   102  H    0.057187
   103  H    0.052901
   104  H    0.026867
   105  H    0.047718
   106  H    0.026511
   107  H    0.049178
   108  H    0.028860
   109  H    0.046175
   110  H    0.027689
   111  H    0.021834
   112  H    0.021896
   113  H    0.021023
   114  H    0.015887
   115  H    0.025617
   116  H    0.029609
   117  H    0.022869
   118  H    0.025156
   119  H    0.021976
   120  H    0.017801
   121  H    0.011818
   122  H    0.010765
   123  H    0.020222
   124  H    0.015474
   125  H    0.025835
   126  H    0.043729
   127  H    0.018800
   128  H    0.006493
   129  H    0.013097
   130  H    0.025592
   131  H    0.019823
   132  H    0.017865
   133  H    0.023394
   134  H    0.027170
   135  H    0.023682
   136  H    0.034106
   137  H    0.032228
   138  H    0.031276
   139  H    0.025782
   140  H    0.020454
 Sum of Mulliken charges =  -0.00000

 Dipole moment (field-independent basis, Debye):
    X=             -0.9655    Y=             -3.3378    Z=             -0.2104  Tot=              3.4810
 Quadrupole moment (field-independent basis, Debye-Ang):
   XX=           -394.4793   YY=           -420.8305   ZZ=           -378.7351
   XY=             48.9589   XZ=             -0.4003   YZ=            -21.0467

 Normal termination of Gaussian 16 at Thu Apr 28 13:03:42 2022.
