 Gaussian 16, Revision A.03,
 Gaussian 16:  ES64L-G16RevA.03 25-Dec-2016

 --------------------
 #p ZINDO=(nstates=5)
 --------------------

 ------------------------------
 step_1551_chromophore_20 ZINDO
 ------------------------------
 Symbolic Z-matrix:
 Charge =  0 Multiplicity = 1

                         Standard orientation:
 ---------------------------------------------------------------------
 Center     Atomic      Atomic             Coordinates (Angstroms)
 Number     Number       Type             X           Y           Z
 ---------------------------------------------------------------------
      1         12           0       -3.913473   -1.558152   -0.661282
      2          6           0       -3.913780    1.969153   -0.921267
      3          6           0       -1.401656   -1.591335   -3.072454
      4          6           0       -3.113220   -4.642703    0.292001
      5          6           0       -6.108993   -1.204778    2.109890
      6          7           0       -2.779487    0.104287   -1.797615
      7          6           0       -2.931599    1.384838   -1.748264
      8          6           0       -2.117918    2.145345   -2.772272
      9          6           0       -1.660021    0.970882   -3.669528
     10          6           0       -1.945217   -0.249388   -2.808552
     11          6           0       -2.376867    0.850923   -4.957151
     12          6           0       -0.935501    2.916115   -2.185715
     13          6           0       -0.720212    4.315509   -2.689248
     14          6           0        0.155942    5.292609   -1.987168
     15          8           0       -0.082256    6.460852   -1.804718
     16          8           0        1.241296    4.586515   -1.483522
     17          7           0       -2.634673   -2.949080   -1.344189
     18          6           0       -1.709554   -2.758482   -2.332774
     19          6           0       -1.101248   -4.065495   -2.609547
     20          6           0       -1.492843   -4.997712   -1.622084
     21          6           0       -2.432150   -4.182768   -0.797519
     22          6           0       -0.143271   -4.273171   -3.810710
     23          6           0       -0.996649   -6.412124   -1.452684
     24          8           0       -0.113307   -6.895997   -2.158749
     25          6           0       -1.683525   -7.476595   -0.589636
     26          7           0       -4.331167   -2.677938    1.108809
     27          6           0       -4.013819   -4.035984    1.138323
     28          6           0       -4.608535   -4.732952    2.378153
     29          6           0       -5.589867   -3.660744    2.999952
     30          6           0       -5.363765   -2.428002    2.064127
     31          6           0       -5.116808   -6.149103    2.274644
     32          6           0       -5.438165   -3.256405    4.464577
     33          6           0       -5.073145   -4.294240    5.484726
     34          7           0       -4.956315   -0.023436    0.333370
     35          6           0       -5.923871   -0.013115    1.342728
     36          6           0       -6.541308    1.321305    1.475697
     37          6           0       -5.766401    2.074346    0.597585
     38          6           0       -4.784756    1.265236   -0.065056
     39          6           0       -7.775643    1.764051    2.325820
     40          6           0       -5.630025    3.452102   -0.017221
     41          8           0       -6.308674    4.441528    0.224277
     42          6           0       -4.460092    3.446165   -1.034414
     43          6           0       -3.534345    4.544301   -0.579245
     44          8           0       -2.756144    4.532003    0.377092
     45          8           0       -3.642778    5.637086   -1.422520
     46          6           0       -2.993342    6.878633   -1.088088
     47          6           0        2.090540    5.432094   -0.630701
     48          6           0        3.163659    4.656438    0.201666
     49          6           0        4.004279    5.188022    1.118165
     50          6           0        3.951189    6.593433    1.604660
     51          6           0        4.653329    4.170250    2.038282
     52          6           0        5.781212    4.570557    3.027116
     53          6           0        6.951441    3.632799    2.821091
     54          6           0        6.629472    2.230470    3.522858
     55          6           0        7.026201    2.186108    5.002205
     56          6           0        7.144098    0.945304    2.755181
     57          6           0        5.935793    0.007014    2.206051
     58          6           0        6.225655   -1.439888    2.470238
     59          6           0        6.595492   -2.307412    1.162904
     60          6           0        6.003014   -3.743696    1.200638
     61          6           0        8.071607   -2.402563    0.996142
     62          6           0        8.563099   -2.217250   -0.548995
     63          6           0        9.805203   -3.091007   -0.854915
     64          6           0       10.237719   -2.934326   -2.328080
     65          6           0        9.553721   -3.948030   -3.306647
     66          6           0       11.855982   -3.016738   -2.436220
     67          1           0       -0.820922   -1.651650   -3.994901
     68          1           0       -2.844315   -5.663708    0.570130
     69          1           0       -6.861027   -1.211071    2.901899
     70          1           0       -2.754177    2.792830   -3.373859
     71          1           0       -0.603051    0.944015   -3.936699
     72          1           0       -3.224909    1.535701   -4.938726
     73          1           0       -2.625390   -0.141295   -5.332581
     74          1           0       -1.674103    1.268582   -5.678639
     75          1           0        0.032799    2.449940   -2.369031
     76          1           0       -1.126460    3.023082   -1.117901
     77          1           0       -1.692134    4.755166   -2.911893
     78          1           0       -0.169584    4.195661   -3.622255
     79          1           0        0.847936   -4.504652   -3.420542
     80          1           0       -0.167479   -3.410304   -4.475411
     81          1           0       -0.364189   -5.178709   -4.376312
     82          1           0       -1.367081   -7.325687    0.442983
     83          1           0       -1.309983   -8.465726   -0.857084
     84          1           0       -2.769995   -7.492133   -0.679673
     85          1           0       -3.735828   -4.756031    3.030315
     86          1           0       -6.639134   -3.953478    2.971000
     87          1           0       -5.806587   -6.404609    3.079062
     88          1           0       -4.268842   -6.819811    2.409020
     89          1           0       -5.566128   -6.366215    1.305438
     90          1           0       -6.420616   -2.838548    4.683546
     91          1           0       -4.770870   -2.395711    4.493773
     92          1           0       -5.988564   -4.596444    5.992298
     93          1           0       -4.408446   -3.797170    6.192235
     94          1           0       -4.570905   -5.141943    5.019555
     95          1           0       -7.525382    2.610690    2.965563
     96          1           0       -8.113137    0.885935    2.876052
     97          1           0       -8.645703    2.102469    1.763275
     98          1           0       -4.810808    3.674530   -2.040729
     99          1           0       -3.735674    7.447488   -0.528449
    100          1           0       -2.740103    7.427033   -1.995928
    101          1           0       -2.032986    6.770302   -0.582646
    102          1           0        1.552191    5.974664    0.145935
    103          1           0        2.542430    6.214005   -1.241790
    104          1           0        3.342032    3.607706   -0.033879
    105          1           0        3.571450    6.692361    2.621150
    106          1           0        3.256541    7.202390    1.025571
    107          1           0        4.956191    7.014222    1.561388
    108          1           0        4.881997    3.327017    1.385910
    109          1           0        3.867457    3.779795    2.684359
    110          1           0        5.381583    4.571661    4.041190
    111          1           0        6.217985    5.541962    2.798302
    112          1           0        7.901844    3.962504    3.240208
    113          1           0        7.037290    3.433823    1.752994
    114          1           0        5.550522    2.141848    3.643833
    115          1           0        8.039028    1.826724    5.184194
    116          1           0        6.306917    1.493328    5.439811
    117          1           0        6.974567    3.143076    5.521281
    118          1           0        7.826629    0.363941    3.375945
    119          1           0        7.599107    1.291116    1.826711
    120          1           0        5.659524    0.240695    1.177504
    121          1           0        5.027690    0.329653    2.714320
    122          1           0        5.289048   -1.874569    2.820490
    123          1           0        7.014807   -1.494848    3.219875
    124          1           0        6.093927   -1.788231    0.345444
    125          1           0        6.759387   -4.464625    0.889051
    126          1           0        5.039189   -3.714695    0.691235
    127          1           0        5.916355   -3.980492    2.260594
    128          1           0        8.499653   -3.362405    1.285328
    129          1           0        8.633327   -1.712972    1.627052
    130          1           0        8.775592   -1.157475   -0.693041
    131          1           0        7.732782   -2.427248   -1.222895
    132          1           0        9.575019   -4.146378   -0.709595
    133          1           0       10.621825   -2.861089   -0.171599
    134          1           0       10.066570   -1.895348   -2.613031
    135          1           0        8.886489   -3.366348   -3.942897
    136          1           0        8.885855   -4.687422   -2.864403
    137          1           0       10.278527   -4.395461   -3.986166
    138          1           0       12.374297   -2.113109   -2.115647
    139          1           0       12.355044   -3.299791   -3.363407
    140          1           0       12.147972   -3.821419   -1.761933
 ---------------------------------------------------------------------

 SCF Done:  E(RZINDO/S) =  -474.137166592     A.U. after   19 cycles

 Excitation energies and oscillator strengths:

 Excited State   1:      Singlet-A      1.2410 eV  999.09 nm  f=0.5555  <S**2>=0.000
     175 ->178        -0.19758
     176 ->177         0.66174
 This state for optimization and/or second-order correction.
 Total Energy, E(CIS/TDA) =  -474.091561926
 Copying the excited state density for this state as the 1-particle RhoCI density.

 Excited State   2:      Singlet-A      1.8921 eV  655.29 nm  f=0.0015  <S**2>=0.000
     175 ->177         0.46275
     176 ->178         0.51560

 Excited State   3:      Singlet-A      2.8621 eV  433.19 nm  f=0.1172  <S**2>=0.000
     175 ->177        -0.17121
     176 ->178         0.15849
     176 ->179         0.25230
     176 ->180         0.57968
     176 ->181         0.14857

 Excited State   4:      Singlet-A      2.8803 eV  430.46 nm  f=0.0008  <S**2>=0.000
     168 ->177        -0.27049
     168 ->178         0.11530
     168 ->179         0.45964
     168 ->181        -0.26282
     168 ->184        -0.14744
     168 ->185         0.22814
     168 ->194        -0.10397

 Excited State   5:      Singlet-A      2.9290 eV  423.30 nm  f=0.2368  <S**2>=0.000
     170 ->177        -0.10521
     170 ->181        -0.14857
     175 ->177         0.21786
     176 ->178        -0.19045
     176 ->179         0.51039
     176 ->180        -0.16657
     176 ->181         0.10032
     176 ->184         0.11507

 The electronic state is 1-A.
 Alpha  occ. eigenvalues --   -1.85234  -1.81127  -1.78747  -1.73420  -1.71521
 Alpha  occ. eigenvalues --   -1.69772  -1.63914  -1.60264  -1.59567  -1.57308
 Alpha  occ. eigenvalues --   -1.53635  -1.50678  -1.49666  -1.47975  -1.47176
 Alpha  occ. eigenvalues --   -1.46497  -1.42893  -1.40640  -1.39035  -1.38399
 Alpha  occ. eigenvalues --   -1.37020  -1.32140  -1.31187  -1.30441  -1.28566
 Alpha  occ. eigenvalues --   -1.26892  -1.25975  -1.22232  -1.20160  -1.18296
 Alpha  occ. eigenvalues --   -1.17581  -1.16505  -1.15281  -1.14445  -1.13887
 Alpha  occ. eigenvalues --   -1.11411  -1.10875  -1.10636  -1.05309  -1.03557
 Alpha  occ. eigenvalues --   -1.01863  -1.01287  -0.98908  -0.98398  -0.96866
 Alpha  occ. eigenvalues --   -0.95872  -0.94320  -0.93206  -0.92001  -0.91270
 Alpha  occ. eigenvalues --   -0.90098  -0.89809  -0.88388  -0.87589  -0.86673
 Alpha  occ. eigenvalues --   -0.85412  -0.84102  -0.83431  -0.82311  -0.80303
 Alpha  occ. eigenvalues --   -0.79780  -0.78855  -0.76738  -0.76313  -0.75767
 Alpha  occ. eigenvalues --   -0.75715  -0.75574  -0.74639  -0.73987  -0.73742
 Alpha  occ. eigenvalues --   -0.72943  -0.72584  -0.72350  -0.71756  -0.71177
 Alpha  occ. eigenvalues --   -0.70462  -0.69750  -0.68801  -0.68308  -0.68014
 Alpha  occ. eigenvalues --   -0.67284  -0.66964  -0.66187  -0.65539  -0.65401
 Alpha  occ. eigenvalues --   -0.64907  -0.64357  -0.64255  -0.63923  -0.63699
 Alpha  occ. eigenvalues --   -0.63230  -0.62825  -0.62023  -0.61721  -0.61447
 Alpha  occ. eigenvalues --   -0.61386  -0.60843  -0.60387  -0.59729  -0.59542
 Alpha  occ. eigenvalues --   -0.59439  -0.59134  -0.58841  -0.58195  -0.58185
 Alpha  occ. eigenvalues --   -0.57764  -0.57590  -0.57445  -0.56784  -0.56548
 Alpha  occ. eigenvalues --   -0.56131  -0.55748  -0.55381  -0.55339  -0.54696
 Alpha  occ. eigenvalues --   -0.54481  -0.53991  -0.53672  -0.53257  -0.52851
 Alpha  occ. eigenvalues --   -0.52307  -0.52086  -0.52000  -0.51805  -0.51742
 Alpha  occ. eigenvalues --   -0.50949  -0.50468  -0.50460  -0.50319  -0.50189
 Alpha  occ. eigenvalues --   -0.49963  -0.49864  -0.49592  -0.49210  -0.48944
 Alpha  occ. eigenvalues --   -0.48500  -0.48396  -0.48007  -0.47861  -0.47809
 Alpha  occ. eigenvalues --   -0.47339  -0.47156  -0.47020  -0.46780  -0.46592
 Alpha  occ. eigenvalues --   -0.46288  -0.45944  -0.45754  -0.45594  -0.45516
 Alpha  occ. eigenvalues --   -0.45073  -0.44896  -0.44893  -0.44434  -0.44351
 Alpha  occ. eigenvalues --   -0.44031  -0.43321  -0.43256  -0.42484  -0.42390
 Alpha  occ. eigenvalues --   -0.42212  -0.41413  -0.40644  -0.39253  -0.38567
 Alpha  occ. eigenvalues --   -0.38251  -0.37923  -0.35837  -0.35072  -0.34805
 Alpha  occ. eigenvalues --   -0.33809  -0.32781  -0.32614  -0.31349  -0.27164
 Alpha  occ. eigenvalues --   -0.21506
 Alpha virt. eigenvalues --   -0.08137  -0.02942  -0.00836   0.00733   0.00808
 Alpha virt. eigenvalues --    0.02296   0.02479   0.02933   0.04439   0.04595
 Alpha virt. eigenvalues --    0.05867   0.06731   0.07155   0.07688   0.07816

 Mulliken charges:
               1
     1  Mg   0.435339
     2  C   -0.050433
     3  C   -0.085860
     4  C   -0.089306
     5  C   -0.071000
     6  N   -0.254262
     7  C    0.127474
     8  C    0.009570
     9  C    0.011414
    10  C    0.119330
    11  C   -0.045899
    12  C   -0.017521
    13  C    0.005786
    14  C    0.480017
    15  O   -0.506279
    16  O   -0.272707
    17  N   -0.317324
    18  C    0.114760
    19  C    0.046546
    20  C   -0.056575
    21  C    0.152478
    22  C   -0.044903
    23  C    0.327814
    24  O   -0.519659
    25  C   -0.025551
    26  N   -0.299873
    27  C    0.153581
    28  C    0.009774
    29  C    0.005025
    30  C    0.094515
    31  C   -0.044197
    32  C   -0.025118
    33  C   -0.054089
    34  N   -0.323419
    35  C    0.098845
    36  C    0.012867
    37  C   -0.045797
    38  C    0.097062
    39  C   -0.035416
    40  C    0.332159
    41  O   -0.511768
    42  C    0.057869
    43  C    0.489832
    44  O   -0.524478
    45  O   -0.278535
    46  C    0.075503
    47  C    0.098930
    48  C   -0.083271
    49  C   -0.018719
    50  C   -0.040248
    51  C   -0.024389
    52  C   -0.028147
    53  C   -0.032318
    54  C   -0.027579
    55  C   -0.056509
    56  C   -0.046129
    57  C   -0.041635
    58  C   -0.036801
    59  C   -0.012512
    60  C   -0.064316
    61  C   -0.036380
    62  C   -0.045378
    63  C   -0.025990
    64  C   -0.010616
    65  C   -0.055510
    66  C   -0.072999
    67  H    0.041114
    68  H    0.017197
    69  H    0.022428
    70  H    0.031700
    71  H    0.026008
    72  H    0.022239
    73  H    0.030661
    74  H    0.008806
    75  H    0.028835
    76  H    0.036379
    77  H    0.034843
    78  H    0.033294
    79  H    0.041285
    80  H    0.025983
    81  H    0.037213
    82  H    0.035154
    83  H    0.036002
    84  H    0.032998
    85  H    0.032531
    86  H    0.028360
    87  H    0.022249
    88  H    0.014686
    89  H    0.024458
    90  H    0.013255
    91  H    0.021825
    92  H    0.021842
    93  H    0.021088
    94  H    0.024084
    95  H    0.039471
    96  H    0.018999
    97  H    0.034424
    98  H    0.058577
    99  H    0.040568
   100  H    0.029975
   101  H    0.060553
   102  H    0.053443
   103  H    0.047365
   104  H    0.034315
   105  H    0.028337
   106  H    0.017461
   107  H    0.027970
   108  H    0.024701
   109  H    0.022975
   110  H    0.027302
   111  H    0.014794
   112  H    0.019605
   113  H    0.020747
   114  H    0.018998
   115  H    0.015280
   116  H    0.014384
   117  H    0.015447
   118  H    0.032098
   119  H    0.017490
   120  H    0.021245
   121  H    0.012320
   122  H    0.011817
   123  H    0.028496
   124  H    0.021320
   125  H    0.026064
   126  H    0.028191
   127  H    0.014642
   128  H    0.016299
   129  H    0.013353
   130  H    0.017568
   131  H    0.022132
   132  H    0.018885
   133  H    0.021642
   134  H    0.020895
   135  H    0.009566
   136  H    0.027038
   137  H    0.023793
   138  H    0.016720
   139  H    0.020151
   140  H    0.008991
 Sum of Mulliken charges =  -0.00000

 Dipole moment (field-independent basis, Debye):
    X=             -1.2332    Y=             -5.5869    Z=             -1.9939  Tot=              6.0588
 N-N= 4.480518877776D+03 E-N= 0.000000000000D+00  KE=-9.635369458182D+03
 Leave Link  601 at Thu Apr 28 13:20:31 2022, MaxMem=  6710886400 cpu:               1.1 elap:               0.1
 (Enter /sw/apps/gaussian-16.0/g16/l9999.exe)
 1\1\GINC-BP1-COMPUTE142\SP\RZINDO CIS\STO-3G\C55H74Mg1N4O6\OF15641\28-
 Apr-2022\0\\#p ZINDO=(nstates=5)\\step_1551_chromophore_20 ZINDO\\0,1\
 Mg,0,6.916,57.069,41.423\C,0,5.791,53.74,41.021\C,0,9.959,56.051,40.07
 1\C,0,7.627,60.251,40.765\C,0,3.583,57.931,42.302\N,0,7.692,55.057,40.
 592\C,0,7.102,53.911,40.529\C,0,7.996,52.778,40.075\C,0,9.374,53.475,4
 0.172\C,0,9.007,54.947,40.273\C,0,10.192,53.084,41.34\C,0,7.703,52.277
 ,38.661\C,0,7.677,50.788,38.46\C,0,7.084,50.154,37.251\O,0,6.391,49.16

 Normal termination of Gaussian 16 at Thu Apr 28 13:20:31 2022.
