 Gaussian 16, Revision A.03,
 Gaussian 16:  ES64L-G16RevA.03 25-Dec-2016

 ------------------------------
 #p blyp/Def2SVP td=(nstates=5)
 ------------------------------

 -------------------------------------------------
 step_351_chromophore_1 TDDFT with blyp functional
 -------------------------------------------------
 Symbolic Z-matrix:
 Charge =  0 Multiplicity = 1

                         Standard orientation:
 ---------------------------------------------------------------------
 Center     Atomic      Atomic             Coordinates (Angstroms)
 Number     Number       Type             X           Y           Z
 ---------------------------------------------------------------------
      1         12           0        6.204912    0.602984    0.049857
      2          6           0        4.067147   -2.235643   -0.566808
      3          6           0        3.942703    2.549539   -1.373705
      4          6           0        8.496878    3.050790    0.300283
      5          6           0        8.706931   -1.757838    0.824840
      6          7           0        4.200534    0.155941   -0.920331
      7          6           0        3.481769   -0.990646   -1.001400
      8          6           0        2.137348   -0.758987   -1.628918
      9          6           0        2.303105    0.709287   -2.141647
     10          6           0        3.566686    1.202846   -1.417744
     11          6           0        2.405361    0.966504   -3.690870
     12          6           0        0.876826   -0.892988   -0.673810
     13          6           0       -0.271230   -1.793827   -1.224663
     14          6           0       -1.366027   -2.210738   -0.224137
     15          8           0       -1.158070   -2.359681    0.986605
     16          8           0       -2.658098   -2.327585   -0.778327
     17          7           0        6.140052    2.558070   -0.270310
     18          6           0        5.111283    3.212781   -0.904492
     19          6           0        5.447056    4.681757   -0.885297
     20          6           0        6.675403    4.826705   -0.266954
     21          6           0        7.195954    3.444733   -0.048597
     22          6           0        4.424494    5.727939   -1.383085
     23          6           0        7.361681    6.110807    0.161419
     24          8           0        8.489472    6.127452    0.651170
     25          6           0        6.602339    7.391141    0.089950
     26          7           0        8.323824    0.569301    0.340984
     27          6           0        8.987147    1.725912    0.395526
     28          6           0       10.509937    1.508584    0.671442
     29          6           0       10.545261   -0.023784    1.005220
     30          6           0        9.088223   -0.472684    0.733490
     31          6           0       11.340477    1.989276   -0.528607
     32          6           0       10.882918   -0.348607    2.505185
     33          6           0       10.032657    0.436103    3.565261
     34          7           0        6.445802   -1.488004    0.073456
     35          6           0        7.438730   -2.332546    0.546560
     36          6           0        7.130190   -3.707736    0.511729
     37          6           0        5.804083   -3.640273    0.171916
     38          6           0        5.387447   -2.324504   -0.084176
     39          6           0        7.967596   -4.889323    0.636799
     40          6           0        4.737158   -4.508819   -0.073782
     41          8           0        4.658164   -5.750996    0.024038
     42          6           0        3.503101   -3.647927   -0.597113
     43          6           0        2.341286   -3.984265    0.253462
     44          8           0        2.295444   -3.756039    1.452670
     45          8           0        1.456812   -4.746505   -0.508516
     46          6           0        0.377813   -5.475599    0.208847
     47          6           0       -3.841785   -2.602045    0.102027
     48          6           0       -5.035054   -1.927969   -0.502208
     49          6           0       -6.227584   -2.360334   -0.779036
     50          6           0       -6.724136   -3.825118   -0.468367
     51          6           0       -7.144832   -1.498536   -1.538195
     52          6           0       -8.254545   -0.946848   -0.581345
     53          6           0       -8.319297    0.615081   -0.433335
     54          6           0       -9.767837    1.174588   -0.310686
     55          6           0      -10.409043    1.373125   -1.657120
     56          6           0       -9.995338    2.445668    0.558714
     57          6           0      -10.711064    2.196478    1.951631
     58          6           0      -12.224995    2.705400    1.866612
     59          6           0      -13.253576    1.892205    2.634403
     60          6           0      -12.938784    1.842711    4.144686
     61          6           0      -13.544652    0.436000    1.998981
     62          6           0      -14.986330    0.242276    1.419831
     63          6           0      -15.048832   -0.048345   -0.119780
     64          6           0      -16.079929    0.943236   -0.810665
     65          6           0      -16.675268    0.252709   -2.068776
     66          6           0      -15.494568    2.345060   -1.146173
     67          1           0        3.267538    3.195643   -1.937881
     68          1           0        9.244033    3.847345    0.317648
     69          1           0        9.462005   -2.452782    1.198979
     70          1           0        2.000957   -1.407351   -2.494195
     71          1           0        1.438043    1.315200   -1.871496
     72          1           0        2.052955   -0.014958   -4.004262
     73          1           0        3.416689    1.261274   -3.971189
     74          1           0        1.709886    1.729205   -4.041302
     75          1           0        0.390356    0.074007   -0.549236
     76          1           0        1.250733   -1.230399    0.292720
     77          1           0        0.139221   -2.648392   -1.761560
     78          1           0       -0.825446   -1.243974   -1.985649
     79          1           0        3.657983    5.219908   -1.967009
     80          1           0        4.967543    6.447597   -1.996367
     81          1           0        3.912558    6.181808   -0.534686
     82          1           0        7.239923    8.153970    0.536018
     83          1           0        5.701450    7.249642    0.687256
     84          1           0        6.327719    7.583042   -0.947957
     85          1           0       10.802984    2.144048    1.507590
     86          1           0       11.240071   -0.532814    0.339096
     87          1           0       10.679025    1.991581   -1.395761
     88          1           0       12.090454    1.215852   -0.690696
     89          1           0       11.888512    2.921084   -0.386967
     90          1           0       11.959554   -0.211004    2.604479
     91          1           0       10.735263   -1.421990    2.620187
     92          1           0        9.926065   -0.122246    4.494599
     93          1           0        9.072550    0.642720    3.092293
     94          1           0       10.387339    1.455268    3.727133
     95          1           0        7.520054   -5.469030    1.443578
     96          1           0        8.982309   -4.697528    0.985409
     97          1           0        7.985374   -5.313289   -0.367403
     98          1           0        3.293657   -4.053979   -1.586787
     99          1           0        0.763282   -5.974491    1.098069
    100          1           0       -0.050862   -6.295777   -0.367518
    101          1           0       -0.410025   -4.850520    0.627932
    102          1           0       -3.738349   -2.249347    1.127724
    103          1           0       -3.894974   -3.687090    0.185689
    104          1           0       -4.860431   -0.886276   -0.770750
    105          1           0       -7.165692   -4.321828   -1.331446
    106          1           0       -7.493014   -3.727021    0.298042
    107          1           0       -5.892084   -4.509691   -0.301189
    108          1           0       -7.645082   -2.145615   -2.259609
    109          1           0       -6.679942   -0.696443   -2.109983
    110          1           0       -7.983799   -1.318053    0.406365
    111          1           0       -9.116387   -1.565031   -0.832118
    112          1           0       -7.964503    1.169333   -1.302355
    113          1           0       -7.801697    0.947823    0.467225
    114          1           0      -10.349038    0.370181    0.139614
    115          1           0      -11.494512    1.319550   -1.576176
    116          1           0      -10.066609    0.629400   -2.377642
    117          1           0      -10.169023    2.335231   -2.109617
    118          1           0      -10.563159    3.227060    0.052318
    119          1           0       -9.059079    2.979684    0.718912
    120          1           0      -10.128896    2.634710    2.762190
    121          1           0      -10.629700    1.139202    2.203859
    122          1           0      -12.598963    2.878003    0.857455
    123          1           0      -12.236267    3.743905    2.200251
    124          1           0      -14.098448    2.578762    2.697852
    125          1           0      -12.476914    0.916064    4.487397
    126          1           0      -13.853251    1.999804    4.716164
    127          1           0      -12.220867    2.605797    4.447034
    128          1           0      -13.492765   -0.386290    2.712708
    129          1           0      -12.735242    0.276325    1.286462
    130          1           0      -15.568798    1.106822    1.736875
    131          1           0      -15.421759   -0.651412    1.866063
    132          1           0      -15.358528   -1.087221   -0.232370
    133          1           0      -14.071230    0.242987   -0.503190
    134          1           0      -16.938886    1.189821   -0.186881
    135          1           0      -16.634730   -0.829022   -1.943843
    136          1           0      -16.193052    0.499313   -3.015251
    137          1           0      -17.757596    0.340130   -2.152905
    138          1           0      -14.949292    2.357774   -2.089094
    139          1           0      -14.901579    2.741139   -0.321645
    140          1           0      -16.289531    3.086837   -1.219138
 ---------------------------------------------------------------------

 SCF Done:  E(RB-LYP) =  -3007.39998386     A.U. after   21 cycles

 Excitation energies and oscillator strengths:

 Excited State   1:      Singlet-A      1.8234 eV  679.97 nm  f=0.0005  <S**2>=0.000
     244 -> 247        0.70253
 This state for optimization and/or second-order correction.
 Total Energy, E(TD-HF/TD-DFT) =  -3007.33297582
 Copying the excited state density for this state as the 1-particle RhoCI density.

 Excited State   2:      Singlet-A      1.8657 eV  664.54 nm  f=0.3162  <S**2>=0.000
     245 -> 248        0.20977
     246 -> 247        0.68346
     246 <- 247       -0.13889

 Excited State   3:      Singlet-A      2.0699 eV  599.00 nm  f=0.0600  <S**2>=0.000
     245 -> 247        0.63736
     246 -> 248       -0.27169

 Excited State   4:      Singlet-A      2.2073 eV  561.69 nm  f=0.0001  <S**2>=0.000
     243 -> 247        0.70483

 Excited State   5:      Singlet-A      2.5643 eV  483.50 nm  f=0.0002  <S**2>=0.000
     241 -> 247        0.67953
     242 -> 247        0.19035

 The electronic state is 1-A.
 Alpha  occ. eigenvalues --  -46.26850 -18.81634 -18.81553 -18.76733 -18.75994
 Alpha  occ. eigenvalues --  -18.75856 -18.74624 -14.03131 -14.02695 -14.01567
 Alpha  occ. eigenvalues --  -14.00500 -10.04418 -10.02990 -10.00202  -9.98249
 Alpha  occ. eigenvalues --   -9.98074  -9.96690  -9.96627  -9.96604  -9.96478
 Alpha  occ. eigenvalues --   -9.96421  -9.96231  -9.95191  -9.94791  -9.94645
 Alpha  occ. eigenvalues --   -9.94365  -9.94031  -9.93988  -9.93934  -9.93863
 Alpha  occ. eigenvalues --   -9.93828  -9.93394  -9.93336  -9.93228  -9.93218
 Alpha  occ. eigenvalues --   -9.93151  -9.92991  -9.92811  -9.92796  -9.92679
 Alpha  occ. eigenvalues --   -9.92634  -9.92401  -9.92306  -9.92276  -9.92262
 Alpha  occ. eigenvalues --   -9.92240  -9.92140  -9.92135  -9.91986  -9.91872
 Alpha  occ. eigenvalues --   -9.91822  -9.91814  -9.91722  -9.91711  -9.91565
 Alpha  occ. eigenvalues --   -9.91416  -9.91406  -9.91378  -9.91224  -9.91216
 Alpha  occ. eigenvalues --   -9.91078  -9.91059  -9.90631  -9.90491  -9.90445
 Alpha  occ. eigenvalues --   -9.89821  -2.91605  -1.72018  -1.71493  -1.71320
 Alpha  occ. eigenvalues --   -0.95753  -0.95651  -0.91687  -0.89219  -0.88737
 Alpha  occ. eigenvalues --   -0.88505  -0.87252  -0.86503  -0.85657  -0.84824
 Alpha  occ. eigenvalues --   -0.74971  -0.74242  -0.72540  -0.72408  -0.71921
 Alpha  occ. eigenvalues --   -0.71639  -0.71410  -0.71299  -0.70832  -0.70605
 Alpha  occ. eigenvalues --   -0.70450  -0.69007  -0.67878  -0.67098  -0.66869
 Alpha  occ. eigenvalues --   -0.66299  -0.65954  -0.65287  -0.64850  -0.64449
 Alpha  occ. eigenvalues --   -0.63787  -0.62958  -0.62601  -0.61373  -0.60975
 Alpha  occ. eigenvalues --   -0.60553  -0.60223  -0.59685  -0.59290  -0.58817
 Alpha  occ. eigenvalues --   -0.58572  -0.57822  -0.56604  -0.55896  -0.55083
 Alpha  occ. eigenvalues --   -0.54164  -0.53871  -0.52793  -0.52410  -0.51746
 Alpha  occ. eigenvalues --   -0.51701  -0.51160  -0.50635  -0.49681  -0.49417
 Alpha  occ. eigenvalues --   -0.49036  -0.48998  -0.47957  -0.47946  -0.46709
 Alpha  occ. eigenvalues --   -0.46424  -0.46348  -0.45751  -0.44813  -0.44011
 Alpha  occ. eigenvalues --   -0.43325  -0.43120  -0.42842  -0.42821  -0.42088
 Alpha  occ. eigenvalues --   -0.42054  -0.41788  -0.41588  -0.41206  -0.41145
 Alpha  occ. eigenvalues --   -0.40552  -0.40488  -0.40325  -0.40180  -0.39842
 Alpha  occ. eigenvalues --   -0.39614  -0.39460  -0.39420  -0.39198  -0.39146
 Alpha  occ. eigenvalues --   -0.38785  -0.38682  -0.38284  -0.38081  -0.38016
 Alpha  occ. eigenvalues --   -0.37837  -0.37528  -0.37514  -0.37432  -0.37267
 Alpha  occ. eigenvalues --   -0.37154  -0.37012  -0.36809  -0.36622  -0.36505
 Alpha  occ. eigenvalues --   -0.36356  -0.36175  -0.35807  -0.35549  -0.35373
 Alpha  occ. eigenvalues --   -0.35299  -0.35014  -0.34917  -0.34819  -0.34517
 Alpha  occ. eigenvalues --   -0.34389  -0.34199  -0.33997  -0.33967  -0.33711
 Alpha  occ. eigenvalues --   -0.33664  -0.33575  -0.33499  -0.33237  -0.33190
 Alpha  occ. eigenvalues --   -0.32627  -0.32555  -0.32466  -0.32109  -0.31864
 Alpha  occ. eigenvalues --   -0.31687  -0.31589  -0.31332  -0.31107  -0.31039
 Alpha  occ. eigenvalues --   -0.30769  -0.30725  -0.30680  -0.30506  -0.30476
 Alpha  occ. eigenvalues --   -0.30221  -0.30112  -0.30030  -0.29905  -0.29574
 Alpha  occ. eigenvalues --   -0.29510  -0.29477  -0.29107  -0.28997  -0.28868
 Alpha  occ. eigenvalues --   -0.28764  -0.28590  -0.28574  -0.28377  -0.28277
 Alpha  occ. eigenvalues --   -0.27736  -0.27697  -0.27011  -0.26681  -0.26642
 Alpha  occ. eigenvalues --   -0.26536  -0.26271  -0.26168  -0.25317  -0.25245
 Alpha  occ. eigenvalues --   -0.24830  -0.24399  -0.24182  -0.23892  -0.23795
 Alpha  occ. eigenvalues --   -0.23138  -0.22453  -0.21836  -0.21419  -0.20820
 Alpha  occ. eigenvalues --   -0.20596  -0.20425  -0.19170  -0.17766  -0.17265
 Alpha  occ. eigenvalues --   -0.15708
 Alpha virt. eigenvalues --   -0.11167  -0.06894  -0.06183  -0.04185  -0.03447
 Alpha virt. eigenvalues --   -0.02341  -0.02128  -0.00969  -0.00878   0.00381
 Alpha virt. eigenvalues --    0.01394   0.01907   0.01941   0.02660   0.02944

 Mulliken charges:
               1
     1  Mg   0.707292
     2  C    0.005024
     3  C   -0.040995
     4  C   -0.035377
     5  C   -0.105271
     6  N   -0.160304
     7  C   -0.086794
     8  C    0.039629
     9  C   -0.057655
    10  C    0.013480
    11  C    0.129685
    12  C    0.119990
    13  C    0.087908
    14  C    0.116823
    15  O   -0.204415
    16  O   -0.306263
    17  N   -0.360259
    18  C    0.142059
    19  C   -0.155495
    20  C    0.042222
    21  C    0.113677
    22  C    0.174828
    23  C   -0.096805
    24  O   -0.163382
    25  C    0.154970
    26  N   -0.180622
    27  C    0.009846
    28  C   -0.015542
    29  C    0.050039
    30  C    0.025904
    31  C    0.140870
    32  C    0.078790
    33  C    0.068826
    34  N   -0.251908
    35  C    0.118719
    36  C   -0.191372
    37  C    0.161534
    38  C    0.103999
    39  C    0.207211
    40  C   -0.124146
    41  O   -0.168556
    42  C    0.083389
    43  C    0.122868
    44  O   -0.174475
    45  O   -0.292139
    46  C    0.214948
    47  C    0.340076
    48  C   -0.090127
    49  C   -0.150818
    50  C    0.130910
    51  C    0.157749
    52  C    0.047988
    53  C    0.130905
    54  C   -0.077024
    55  C    0.088129
    56  C    0.109804
    57  C    0.061723
    58  C    0.065667
    59  C   -0.034630
    60  C    0.085096
    61  C    0.104484
    62  C    0.054290
    63  C    0.108604
    64  C   -0.090079
    65  C    0.100232
    66  C    0.085097
    67  H   -0.074296
    68  H   -0.041227
    69  H   -0.072211
    70  H   -0.024576
    71  H   -0.031859
    72  H   -0.014811
    73  H    0.009825
    74  H   -0.007604
    75  H   -0.017121
    76  H    0.022778
    77  H    0.017100
    78  H   -0.014400
    79  H   -0.014752
    80  H    0.006994
    81  H    0.013667
    82  H   -0.001337
    83  H    0.006741
    84  H    0.004000
    85  H   -0.021993
    86  H   -0.033683
    87  H   -0.002157
    88  H   -0.024885
    89  H    0.002705
    90  H   -0.026206
    91  H   -0.027861
    92  H    0.005669
    93  H   -0.005570
    94  H   -0.003747
    95  H    0.015765
    96  H   -0.031579
    97  H    0.023943
    98  H   -0.012032
    99  H    0.006311
   100  H    0.010931
   101  H    0.017629
   102  H    0.008297
   103  H   -0.015527
   104  H   -0.049104
   105  H   -0.014414
   106  H    0.008557
   107  H   -0.012509
   108  H   -0.037056
   109  H   -0.024818
   110  H   -0.020214
   111  H   -0.019229
   112  H   -0.028263
   113  H   -0.028340
   114  H   -0.028936
   115  H   -0.007829
   116  H   -0.030027
   117  H   -0.020399
   118  H   -0.039513
   119  H   -0.051720
   120  H   -0.031113
   121  H   -0.028753
   122  H   -0.025597
   123  H   -0.040589
   124  H   -0.041927
   125  H   -0.021554
   126  H   -0.017215
   127  H   -0.027773
   128  H   -0.035104
   129  H   -0.023975
   130  H   -0.021754
   131  H   -0.035044
   132  H   -0.021248
   133  H   -0.015732
   134  H   -0.030651
   135  H   -0.038129
   136  H   -0.011730
   137  H   -0.025921
   138  H   -0.007908
   139  H   -0.016219
   140  H   -0.022001
 Sum of Mulliken charges =  -0.00000

 Dipole moment (field-independent basis, Debye):
    X=             -3.2997    Y=              3.4522    Z=             -2.9471  Tot=              5.6117
 Quadrupole moment (field-independent basis, Debye-Ang):
   XX=           -370.1239   YY=           -418.1835   ZZ=           -407.8598
   XY=              6.4769   XZ=             -5.3511   YZ=             -1.8508

 Normal termination of Gaussian 16 at Fri Apr 29 14:27:44 2022.
