 Gaussian 16, Revision A.03,
 Gaussian 16:  ES64L-G16RevA.03 25-Dec-2016

 -----------------------------------
 #p cam-b3lyp/Def2SVP td=(nstates=5)
 -----------------------------------

 ------------------------------------------------------
 step_351_chromophore_1 TDDFT with cam-b3lyp functional
 ------------------------------------------------------
 Symbolic Z-matrix:
 Charge =  0 Multiplicity = 1

                         Standard orientation:
 ---------------------------------------------------------------------
 Center     Atomic      Atomic             Coordinates (Angstroms)
 Number     Number       Type             X           Y           Z
 ---------------------------------------------------------------------
      1         12           0        6.204912    0.602984    0.049857
      2          6           0        4.067147   -2.235643   -0.566808
      3          6           0        3.942703    2.549539   -1.373705
      4          6           0        8.496878    3.050790    0.300283
      5          6           0        8.706931   -1.757838    0.824840
      6          7           0        4.200534    0.155941   -0.920331
      7          6           0        3.481769   -0.990646   -1.001400
      8          6           0        2.137348   -0.758987   -1.628918
      9          6           0        2.303105    0.709287   -2.141647
     10          6           0        3.566686    1.202846   -1.417744
     11          6           0        2.405361    0.966504   -3.690870
     12          6           0        0.876826   -0.892988   -0.673810
     13          6           0       -0.271230   -1.793827   -1.224663
     14          6           0       -1.366027   -2.210738   -0.224137
     15          8           0       -1.158070   -2.359681    0.986605
     16          8           0       -2.658098   -2.327585   -0.778327
     17          7           0        6.140052    2.558070   -0.270310
     18          6           0        5.111283    3.212781   -0.904492
     19          6           0        5.447056    4.681757   -0.885297
     20          6           0        6.675403    4.826705   -0.266954
     21          6           0        7.195954    3.444733   -0.048597
     22          6           0        4.424494    5.727939   -1.383085
     23          6           0        7.361681    6.110807    0.161419
     24          8           0        8.489472    6.127452    0.651170
     25          6           0        6.602339    7.391141    0.089950
     26          7           0        8.323824    0.569301    0.340984
     27          6           0        8.987147    1.725912    0.395526
     28          6           0       10.509937    1.508584    0.671442
     29          6           0       10.545261   -0.023784    1.005220
     30          6           0        9.088223   -0.472684    0.733490
     31          6           0       11.340477    1.989276   -0.528607
     32          6           0       10.882918   -0.348607    2.505185
     33          6           0       10.032657    0.436103    3.565261
     34          7           0        6.445802   -1.488004    0.073456
     35          6           0        7.438730   -2.332546    0.546560
     36          6           0        7.130190   -3.707736    0.511729
     37          6           0        5.804083   -3.640273    0.171916
     38          6           0        5.387447   -2.324504   -0.084176
     39          6           0        7.967596   -4.889323    0.636799
     40          6           0        4.737158   -4.508819   -0.073782
     41          8           0        4.658164   -5.750996    0.024038
     42          6           0        3.503101   -3.647927   -0.597113
     43          6           0        2.341286   -3.984265    0.253462
     44          8           0        2.295444   -3.756039    1.452670
     45          8           0        1.456812   -4.746505   -0.508516
     46          6           0        0.377813   -5.475599    0.208847
     47          6           0       -3.841785   -2.602045    0.102027
     48          6           0       -5.035054   -1.927969   -0.502208
     49          6           0       -6.227584   -2.360334   -0.779036
     50          6           0       -6.724136   -3.825118   -0.468367
     51          6           0       -7.144832   -1.498536   -1.538195
     52          6           0       -8.254545   -0.946848   -0.581345
     53          6           0       -8.319297    0.615081   -0.433335
     54          6           0       -9.767837    1.174588   -0.310686
     55          6           0      -10.409043    1.373125   -1.657120
     56          6           0       -9.995338    2.445668    0.558714
     57          6           0      -10.711064    2.196478    1.951631
     58          6           0      -12.224995    2.705400    1.866612
     59          6           0      -13.253576    1.892205    2.634403
     60          6           0      -12.938784    1.842711    4.144686
     61          6           0      -13.544652    0.436000    1.998981
     62          6           0      -14.986330    0.242276    1.419831
     63          6           0      -15.048832   -0.048345   -0.119780
     64          6           0      -16.079929    0.943236   -0.810665
     65          6           0      -16.675268    0.252709   -2.068776
     66          6           0      -15.494568    2.345060   -1.146173
     67          1           0        3.267538    3.195643   -1.937881
     68          1           0        9.244033    3.847345    0.317648
     69          1           0        9.462005   -2.452782    1.198979
     70          1           0        2.000957   -1.407351   -2.494195
     71          1           0        1.438043    1.315200   -1.871496
     72          1           0        2.052955   -0.014958   -4.004262
     73          1           0        3.416689    1.261274   -3.971189
     74          1           0        1.709886    1.729205   -4.041302
     75          1           0        0.390356    0.074007   -0.549236
     76          1           0        1.250733   -1.230399    0.292720
     77          1           0        0.139221   -2.648392   -1.761560
     78          1           0       -0.825446   -1.243974   -1.985649
     79          1           0        3.657983    5.219908   -1.967009
     80          1           0        4.967543    6.447597   -1.996367
     81          1           0        3.912558    6.181808   -0.534686
     82          1           0        7.239923    8.153970    0.536018
     83          1           0        5.701450    7.249642    0.687256
     84          1           0        6.327719    7.583042   -0.947957
     85          1           0       10.802984    2.144048    1.507590
     86          1           0       11.240071   -0.532814    0.339096
     87          1           0       10.679025    1.991581   -1.395761
     88          1           0       12.090454    1.215852   -0.690696
     89          1           0       11.888512    2.921084   -0.386967
     90          1           0       11.959554   -0.211004    2.604479
     91          1           0       10.735263   -1.421990    2.620187
     92          1           0        9.926065   -0.122246    4.494599
     93          1           0        9.072550    0.642720    3.092293
     94          1           0       10.387339    1.455268    3.727133
     95          1           0        7.520054   -5.469030    1.443578
     96          1           0        8.982309   -4.697528    0.985409
     97          1           0        7.985374   -5.313289   -0.367403
     98          1           0        3.293657   -4.053979   -1.586787
     99          1           0        0.763282   -5.974491    1.098069
    100          1           0       -0.050862   -6.295777   -0.367518
    101          1           0       -0.410025   -4.850520    0.627932
    102          1           0       -3.738349   -2.249347    1.127724
    103          1           0       -3.894974   -3.687090    0.185689
    104          1           0       -4.860431   -0.886276   -0.770750
    105          1           0       -7.165692   -4.321828   -1.331446
    106          1           0       -7.493014   -3.727021    0.298042
    107          1           0       -5.892084   -4.509691   -0.301189
    108          1           0       -7.645082   -2.145615   -2.259609
    109          1           0       -6.679942   -0.696443   -2.109983
    110          1           0       -7.983799   -1.318053    0.406365
    111          1           0       -9.116387   -1.565031   -0.832118
    112          1           0       -7.964503    1.169333   -1.302355
    113          1           0       -7.801697    0.947823    0.467225
    114          1           0      -10.349038    0.370181    0.139614
    115          1           0      -11.494512    1.319550   -1.576176
    116          1           0      -10.066609    0.629400   -2.377642
    117          1           0      -10.169023    2.335231   -2.109617
    118          1           0      -10.563159    3.227060    0.052318
    119          1           0       -9.059079    2.979684    0.718912
    120          1           0      -10.128896    2.634710    2.762190
    121          1           0      -10.629700    1.139202    2.203859
    122          1           0      -12.598963    2.878003    0.857455
    123          1           0      -12.236267    3.743905    2.200251
    124          1           0      -14.098448    2.578762    2.697852
    125          1           0      -12.476914    0.916064    4.487397
    126          1           0      -13.853251    1.999804    4.716164
    127          1           0      -12.220867    2.605797    4.447034
    128          1           0      -13.492765   -0.386290    2.712708
    129          1           0      -12.735242    0.276325    1.286462
    130          1           0      -15.568798    1.106822    1.736875
    131          1           0      -15.421759   -0.651412    1.866063
    132          1           0      -15.358528   -1.087221   -0.232370
    133          1           0      -14.071230    0.242987   -0.503190
    134          1           0      -16.938886    1.189821   -0.186881
    135          1           0      -16.634730   -0.829022   -1.943843
    136          1           0      -16.193052    0.499313   -3.015251
    137          1           0      -17.757596    0.340130   -2.152905
    138          1           0      -14.949292    2.357774   -2.089094
    139          1           0      -14.901579    2.741139   -0.321645
    140          1           0      -16.289531    3.086837   -1.219138
 ---------------------------------------------------------------------

 SCF Done:  E(RCAM-B3LYP) =  -3007.19247902     A.U. after   17 cycles

 Excitation energies and oscillator strengths:

 Excited State   1:      Singlet-A      1.8162 eV  682.64 nm  f=0.3930  <S**2>=0.000
     245 -> 248        0.19022
     246 -> 247        0.68248
     245 <- 248        0.10515
 This state for optimization and/or second-order correction.
 Total Energy, E(TD-HF/TD-DFT) =  -3007.12573344
 Copying the excited state density for this state as the 1-particle RhoCI density.

 Excited State   2:      Singlet-A      2.3318 eV  531.70 nm  f=0.0712  <S**2>=0.000
     245 -> 247        0.61810
     246 -> 248       -0.33308

 Excited State   3:      Singlet-A      3.4328 eV  361.17 nm  f=0.0040  <S**2>=0.000
     243 -> 247        0.34400
     243 -> 249        0.17176
     243 -> 251       -0.18076
     244 -> 247        0.45504
     244 -> 249        0.19971
     244 -> 251       -0.19764

 Excited State   4:      Singlet-A      3.5061 eV  353.62 nm  f=0.7293  <S**2>=0.000
     245 -> 247        0.31754
     246 -> 248        0.60901
     245 <- 247       -0.10670

 Excited State   5:      Singlet-A      3.6369 eV  340.91 nm  f=0.0111  <S**2>=0.000
     241 -> 247        0.21778
     243 -> 247        0.50933
     244 -> 247       -0.40512

 The electronic state is 1-A.
 Alpha  occ. eigenvalues --  -46.88382 -19.24499 -19.24380 -19.19685 -19.19666
 Alpha  occ. eigenvalues --  -19.18879 -19.17257 -14.42014 -14.41482 -14.40280
 Alpha  occ. eigenvalues --  -14.38687 -10.39807 -10.38392 -10.35804 -10.33200
 Alpha  occ. eigenvalues --  -10.32169 -10.31708 -10.31488 -10.31147 -10.31040
 Alpha  occ. eigenvalues --  -10.30820 -10.30561 -10.30092 -10.29104 -10.28351
 Alpha  occ. eigenvalues --  -10.28317 -10.28249 -10.28206 -10.28127 -10.28001
 Alpha  occ. eigenvalues --  -10.27906 -10.27840 -10.27523 -10.27217 -10.27216
 Alpha  occ. eigenvalues --  -10.27157 -10.27134 -10.26692 -10.26686 -10.26596
 Alpha  occ. eigenvalues --  -10.26520 -10.26439 -10.26304 -10.26133 -10.26013
 Alpha  occ. eigenvalues --  -10.25932 -10.25816 -10.25732 -10.25587 -10.25469
 Alpha  occ. eigenvalues --  -10.25443 -10.25416 -10.25412 -10.25346 -10.25338
 Alpha  occ. eigenvalues --  -10.25133 -10.25098 -10.25085 -10.25079 -10.24925
 Alpha  occ. eigenvalues --  -10.24741 -10.24663 -10.24208 -10.24082 -10.24039
 Alpha  occ. eigenvalues --  -10.23285  -3.17045  -1.91932  -1.91493  -1.91363
 Alpha  occ. eigenvalues --   -1.14173  -1.14003  -1.10518  -1.07093  -1.06572
 Alpha  occ. eigenvalues --   -1.06252  -1.05031  -1.04145  -1.03086  -1.02577
 Alpha  occ. eigenvalues --   -0.91865  -0.91135  -0.89300  -0.89150  -0.88708
 Alpha  occ. eigenvalues --   -0.88305  -0.88151  -0.88021  -0.87525  -0.87029
 Alpha  occ. eigenvalues --   -0.87001  -0.85381  -0.84104  -0.83260  -0.83002
 Alpha  occ. eigenvalues --   -0.82479  -0.82341  -0.81149  -0.80654  -0.80312
 Alpha  occ. eigenvalues --   -0.79503  -0.78919  -0.78167  -0.76736  -0.76331
 Alpha  occ. eigenvalues --   -0.75843  -0.75578  -0.74914  -0.74557  -0.74020
 Alpha  occ. eigenvalues --   -0.73660  -0.72797  -0.71509  -0.70702  -0.69710
 Alpha  occ. eigenvalues --   -0.68788  -0.68569  -0.67390  -0.66717  -0.66023
 Alpha  occ. eigenvalues --   -0.65927  -0.65306  -0.64549  -0.63600  -0.63379
 Alpha  occ. eigenvalues --   -0.62972  -0.62584  -0.61716  -0.61512  -0.60276
 Alpha  occ. eigenvalues --   -0.60179  -0.59911  -0.59317  -0.58098  -0.57351
 Alpha  occ. eigenvalues --   -0.56811  -0.56479  -0.55920  -0.55882  -0.55389
 Alpha  occ. eigenvalues --   -0.54981  -0.54735  -0.54352  -0.54165  -0.53843
 Alpha  occ. eigenvalues --   -0.53784  -0.53522  -0.53016  -0.52962  -0.52841
 Alpha  occ. eigenvalues --   -0.52301  -0.52155  -0.51909  -0.51671  -0.51561
 Alpha  occ. eigenvalues --   -0.51369  -0.51177  -0.50902  -0.50653  -0.50553
 Alpha  occ. eigenvalues --   -0.50314  -0.49949  -0.49878  -0.49807  -0.49713
 Alpha  occ. eigenvalues --   -0.49486  -0.49343  -0.49124  -0.49032  -0.48950
 Alpha  occ. eigenvalues --   -0.48647  -0.48390  -0.48119  -0.48081  -0.47515
 Alpha  occ. eigenvalues --   -0.47221  -0.46984  -0.46948  -0.46726  -0.46366
 Alpha  occ. eigenvalues --   -0.46151  -0.46076  -0.45916  -0.45675  -0.45662
 Alpha  occ. eigenvalues --   -0.45400  -0.45228  -0.45214  -0.44865  -0.44818
 Alpha  occ. eigenvalues --   -0.44750  -0.44156  -0.44081  -0.43698  -0.43387
 Alpha  occ. eigenvalues --   -0.43295  -0.43128  -0.42995  -0.42831  -0.42650
 Alpha  occ. eigenvalues --   -0.42579  -0.42025  -0.41965  -0.41955  -0.41816
 Alpha  occ. eigenvalues --   -0.41693  -0.41417  -0.41300  -0.41104  -0.40968
 Alpha  occ. eigenvalues --   -0.40869  -0.40746  -0.40662  -0.40049  -0.40008
 Alpha  occ. eigenvalues --   -0.39942  -0.39649  -0.39545  -0.39299  -0.39291
 Alpha  occ. eigenvalues --   -0.38641  -0.38596  -0.37993  -0.37778  -0.37368
 Alpha  occ. eigenvalues --   -0.37270  -0.36981  -0.36741  -0.36339  -0.36158
 Alpha  occ. eigenvalues --   -0.35885  -0.35540  -0.34851  -0.34296  -0.33977
 Alpha  occ. eigenvalues --   -0.33801  -0.33578  -0.32931  -0.32177  -0.31742
 Alpha  occ. eigenvalues --   -0.30726  -0.30541  -0.29452  -0.29329  -0.24142
 Alpha  occ. eigenvalues --   -0.20994
 Alpha virt. eigenvalues --   -0.08067  -0.01833   0.00293   0.02596   0.02901
 Alpha virt. eigenvalues --    0.04409   0.05669   0.06142   0.06693   0.06756
 Alpha virt. eigenvalues --    0.07883   0.08048   0.08624   0.09212   0.09268

 Mulliken charges:
               1
     1  Mg   0.840694
     2  C   -0.016054
     3  C   -0.061598
     4  C   -0.054321
     5  C   -0.100558
     6  N   -0.231664
     7  C   -0.047221
     8  C   -0.011605
     9  C   -0.103953
    10  C    0.033098
    11  C    0.073545
    12  C    0.067537
    13  C    0.016796
    14  C    0.200092
    15  O   -0.244018
    16  O   -0.373589
    17  N   -0.452675
    18  C    0.158789
    19  C   -0.159080
    20  C   -0.023740
    21  C    0.142001
    22  C    0.121418
    23  C   -0.012565
    24  O   -0.201384
    25  C    0.070160
    26  N   -0.252611
    27  C    0.030816
    28  C   -0.072507
    29  C   -0.000866
    30  C    0.029917
    31  C    0.082241
    32  C    0.028531
    33  C    0.007549
    34  N   -0.335483
    35  C    0.113315
    36  C   -0.186074
    37  C    0.071371
    38  C    0.130546
    39  C    0.154481
    40  C   -0.023560
    41  O   -0.212083
    42  C    0.011877
    43  C    0.209389
    44  O   -0.208827
    45  O   -0.357610
    46  C    0.176811
    47  C    0.307922
    48  C   -0.112203
    49  C   -0.176168
    50  C    0.076041
    51  C    0.092751
    52  C   -0.009683
    53  C    0.080975
    54  C   -0.130822
    55  C    0.035247
    56  C    0.053169
    57  C    0.007990
    58  C    0.020335
    59  C   -0.095523
    60  C    0.027844
    61  C    0.053106
    62  C    0.002106
    63  C    0.055747
    64  C   -0.149442
    65  C    0.040211
    66  C    0.032738
    67  H   -0.040863
    68  H   -0.000773
    69  H   -0.038465
    70  H    0.010161
    71  H    0.003476
    72  H    0.009145
    73  H    0.034926
    74  H    0.016306
    75  H    0.011640
    76  H    0.053834
    77  H    0.046866
    78  H    0.019028
    79  H    0.014778
    80  H    0.032944
    81  H    0.041902
    82  H    0.035973
    83  H    0.034611
    84  H    0.030714
    85  H    0.013153
    86  H    0.002419
    87  H    0.023432
    88  H    0.001181
    89  H    0.027088
    90  H    0.001552
    91  H    0.000560
    92  H    0.030288
    93  H    0.015023
    94  H    0.017439
    95  H    0.040901
    96  H   -0.006701
    97  H    0.047627
    98  H    0.032798
    99  H    0.031849
   100  H    0.034692
   101  H    0.037705
   102  H    0.039329
   103  H    0.012308
   104  H   -0.014130
   105  H    0.010739
   106  H    0.031046
   107  H    0.012104
   108  H   -0.005446
   109  H    0.006317
   110  H    0.008073
   111  H    0.008540
   112  H   -0.002043
   113  H    0.000956
   114  H   -0.000420
   115  H    0.011835
   116  H   -0.005044
   117  H    0.003054
   118  H   -0.009271
   119  H   -0.020718
   120  H   -0.001943
   121  H   -0.002492
   122  H   -0.002570
   123  H   -0.010502
   124  H   -0.009541
   125  H    0.001657
   126  H    0.007397
   127  H   -0.002538
   128  H   -0.004780
   129  H   -0.001270
   130  H    0.004583
   131  H   -0.005502
   132  H    0.007438
   133  H    0.007733
   134  H    0.000402
   135  H   -0.012734
   136  H    0.011434
   137  H   -0.000494
   138  H    0.013530
   139  H    0.002817
   140  H    0.003269
 Sum of Mulliken charges =  -0.00000

 Dipole moment (field-independent basis, Debye):
    X=             -3.4458    Y=              5.0046    Z=             -3.2951  Tot=              6.9121
 Quadrupole moment (field-independent basis, Debye-Ang):
   XX=           -370.1875   YY=           -412.2564   ZZ=           -407.8949
   XY=             15.7241   XZ=             -6.2593   YZ=             -2.5639

 Normal termination of Gaussian 16 at Fri Apr 29 13:29:43 2022.
