 Gaussian 16, Revision A.03,
 Gaussian 16:  ES64L-G16RevA.03 25-Dec-2016

 ---------------------------------
 #p PBE1PBE/Def2SVP td=(nstates=5)
 ---------------------------------

 ----------------------------------------------------
 step_351_chromophore_1 TDDFT with PBE1PBE functional
 ----------------------------------------------------
 Symbolic Z-matrix:
 Charge =  0 Multiplicity = 1

                         Standard orientation:
 ---------------------------------------------------------------------
 Center     Atomic      Atomic             Coordinates (Angstroms)
 Number     Number       Type             X           Y           Z
 ---------------------------------------------------------------------
      1         12           0        6.204912    0.602984    0.049857
      2          6           0        4.067147   -2.235643   -0.566808
      3          6           0        3.942703    2.549539   -1.373705
      4          6           0        8.496878    3.050790    0.300283
      5          6           0        8.706931   -1.757838    0.824840
      6          7           0        4.200534    0.155941   -0.920331
      7          6           0        3.481769   -0.990646   -1.001400
      8          6           0        2.137348   -0.758987   -1.628918
      9          6           0        2.303105    0.709287   -2.141647
     10          6           0        3.566686    1.202846   -1.417744
     11          6           0        2.405361    0.966504   -3.690870
     12          6           0        0.876826   -0.892988   -0.673810
     13          6           0       -0.271230   -1.793827   -1.224663
     14          6           0       -1.366027   -2.210738   -0.224137
     15          8           0       -1.158070   -2.359681    0.986605
     16          8           0       -2.658098   -2.327585   -0.778327
     17          7           0        6.140052    2.558070   -0.270310
     18          6           0        5.111283    3.212781   -0.904492
     19          6           0        5.447056    4.681757   -0.885297
     20          6           0        6.675403    4.826705   -0.266954
     21          6           0        7.195954    3.444733   -0.048597
     22          6           0        4.424494    5.727939   -1.383085
     23          6           0        7.361681    6.110807    0.161419
     24          8           0        8.489472    6.127452    0.651170
     25          6           0        6.602339    7.391141    0.089950
     26          7           0        8.323824    0.569301    0.340984
     27          6           0        8.987147    1.725912    0.395526
     28          6           0       10.509937    1.508584    0.671442
     29          6           0       10.545261   -0.023784    1.005220
     30          6           0        9.088223   -0.472684    0.733490
     31          6           0       11.340477    1.989276   -0.528607
     32          6           0       10.882918   -0.348607    2.505185
     33          6           0       10.032657    0.436103    3.565261
     34          7           0        6.445802   -1.488004    0.073456
     35          6           0        7.438730   -2.332546    0.546560
     36          6           0        7.130190   -3.707736    0.511729
     37          6           0        5.804083   -3.640273    0.171916
     38          6           0        5.387447   -2.324504   -0.084176
     39          6           0        7.967596   -4.889323    0.636799
     40          6           0        4.737158   -4.508819   -0.073782
     41          8           0        4.658164   -5.750996    0.024038
     42          6           0        3.503101   -3.647927   -0.597113
     43          6           0        2.341286   -3.984265    0.253462
     44          8           0        2.295444   -3.756039    1.452670
     45          8           0        1.456812   -4.746505   -0.508516
     46          6           0        0.377813   -5.475599    0.208847
     47          6           0       -3.841785   -2.602045    0.102027
     48          6           0       -5.035054   -1.927969   -0.502208
     49          6           0       -6.227584   -2.360334   -0.779036
     50          6           0       -6.724136   -3.825118   -0.468367
     51          6           0       -7.144832   -1.498536   -1.538195
     52          6           0       -8.254545   -0.946848   -0.581345
     53          6           0       -8.319297    0.615081   -0.433335
     54          6           0       -9.767837    1.174588   -0.310686
     55          6           0      -10.409043    1.373125   -1.657120
     56          6           0       -9.995338    2.445668    0.558714
     57          6           0      -10.711064    2.196478    1.951631
     58          6           0      -12.224995    2.705400    1.866612
     59          6           0      -13.253576    1.892205    2.634403
     60          6           0      -12.938784    1.842711    4.144686
     61          6           0      -13.544652    0.436000    1.998981
     62          6           0      -14.986330    0.242276    1.419831
     63          6           0      -15.048832   -0.048345   -0.119780
     64          6           0      -16.079929    0.943236   -0.810665
     65          6           0      -16.675268    0.252709   -2.068776
     66          6           0      -15.494568    2.345060   -1.146173
     67          1           0        3.267538    3.195643   -1.937881
     68          1           0        9.244033    3.847345    0.317648
     69          1           0        9.462005   -2.452782    1.198979
     70          1           0        2.000957   -1.407351   -2.494195
     71          1           0        1.438043    1.315200   -1.871496
     72          1           0        2.052955   -0.014958   -4.004262
     73          1           0        3.416689    1.261274   -3.971189
     74          1           0        1.709886    1.729205   -4.041302
     75          1           0        0.390356    0.074007   -0.549236
     76          1           0        1.250733   -1.230399    0.292720
     77          1           0        0.139221   -2.648392   -1.761560
     78          1           0       -0.825446   -1.243974   -1.985649
     79          1           0        3.657983    5.219908   -1.967009
     80          1           0        4.967543    6.447597   -1.996367
     81          1           0        3.912558    6.181808   -0.534686
     82          1           0        7.239923    8.153970    0.536018
     83          1           0        5.701450    7.249642    0.687256
     84          1           0        6.327719    7.583042   -0.947957
     85          1           0       10.802984    2.144048    1.507590
     86          1           0       11.240071   -0.532814    0.339096
     87          1           0       10.679025    1.991581   -1.395761
     88          1           0       12.090454    1.215852   -0.690696
     89          1           0       11.888512    2.921084   -0.386967
     90          1           0       11.959554   -0.211004    2.604479
     91          1           0       10.735263   -1.421990    2.620187
     92          1           0        9.926065   -0.122246    4.494599
     93          1           0        9.072550    0.642720    3.092293
     94          1           0       10.387339    1.455268    3.727133
     95          1           0        7.520054   -5.469030    1.443578
     96          1           0        8.982309   -4.697528    0.985409
     97          1           0        7.985374   -5.313289   -0.367403
     98          1           0        3.293657   -4.053979   -1.586787
     99          1           0        0.763282   -5.974491    1.098069
    100          1           0       -0.050862   -6.295777   -0.367518
    101          1           0       -0.410025   -4.850520    0.627932
    102          1           0       -3.738349   -2.249347    1.127724
    103          1           0       -3.894974   -3.687090    0.185689
    104          1           0       -4.860431   -0.886276   -0.770750
    105          1           0       -7.165692   -4.321828   -1.331446
    106          1           0       -7.493014   -3.727021    0.298042
    107          1           0       -5.892084   -4.509691   -0.301189
    108          1           0       -7.645082   -2.145615   -2.259609
    109          1           0       -6.679942   -0.696443   -2.109983
    110          1           0       -7.983799   -1.318053    0.406365
    111          1           0       -9.116387   -1.565031   -0.832118
    112          1           0       -7.964503    1.169333   -1.302355
    113          1           0       -7.801697    0.947823    0.467225
    114          1           0      -10.349038    0.370181    0.139614
    115          1           0      -11.494512    1.319550   -1.576176
    116          1           0      -10.066609    0.629400   -2.377642
    117          1           0      -10.169023    2.335231   -2.109617
    118          1           0      -10.563159    3.227060    0.052318
    119          1           0       -9.059079    2.979684    0.718912
    120          1           0      -10.128896    2.634710    2.762190
    121          1           0      -10.629700    1.139202    2.203859
    122          1           0      -12.598963    2.878003    0.857455
    123          1           0      -12.236267    3.743905    2.200251
    124          1           0      -14.098448    2.578762    2.697852
    125          1           0      -12.476914    0.916064    4.487397
    126          1           0      -13.853251    1.999804    4.716164
    127          1           0      -12.220867    2.605797    4.447034
    128          1           0      -13.492765   -0.386290    2.712708
    129          1           0      -12.735242    0.276325    1.286462
    130          1           0      -15.568798    1.106822    1.736875
    131          1           0      -15.421759   -0.651412    1.866063
    132          1           0      -15.358528   -1.087221   -0.232370
    133          1           0      -14.071230    0.242987   -0.503190
    134          1           0      -16.938886    1.189821   -0.186881
    135          1           0      -16.634730   -0.829022   -1.943843
    136          1           0      -16.193052    0.499313   -3.015251
    137          1           0      -17.757596    0.340130   -2.152905
    138          1           0      -14.949292    2.357774   -2.089094
    139          1           0      -14.901579    2.741139   -0.321645
    140          1           0      -16.289531    3.086837   -1.219138
 ---------------------------------------------------------------------

 SCF Done:  E(RPBE1PBE) =  -3005.37837465     A.U. after   15 cycles

 Excitation energies and oscillator strengths:

 Excited State   1:      Singlet-A      1.9300 eV  642.41 nm  f=0.3822  <S**2>=0.000
     245 -> 248        0.18883
     246 -> 247        0.68779
 This state for optimization and/or second-order correction.
 Total Energy, E(TD-HF/TD-DFT) =  -3005.30744855
 Copying the excited state density for this state as the 1-particle RhoCI density.

 Excited State   2:      Singlet-A      2.3148 eV  535.61 nm  f=0.0777  <S**2>=0.000
     245 -> 247        0.63599
     246 -> 248       -0.30192

 Excited State   3:      Singlet-A      2.8738 eV  431.42 nm  f=0.0003  <S**2>=0.000
     244 -> 247        0.67445
     244 -> 249        0.15398
     244 -> 250       -0.12218

 Excited State   4:      Singlet-A      3.2356 eV  383.19 nm  f=0.0084  <S**2>=0.000
     243 -> 247        0.67518
     246 -> 248        0.15688

 Excited State   5:      Singlet-A      3.3049 eV  375.15 nm  f=0.0008  <S**2>=0.000
     240 -> 247        0.60770
     240 -> 249       -0.20847
     241 -> 247       -0.24763

 The electronic state is 1-A.
 Alpha  occ. eigenvalues --  -46.91787 -19.25220 -19.25117 -19.19976 -19.19609
 Alpha  occ. eigenvalues --  -19.19143 -19.17833 -14.41485 -14.40996 -14.39822
 Alpha  occ. eigenvalues --  -14.38521 -10.36881 -10.35455 -10.32673 -10.30606
 Alpha  occ. eigenvalues --  -10.29565 -10.29043 -10.28844 -10.28777 -10.28640
 Alpha  occ. eigenvalues --  -10.28543 -10.27831 -10.27377 -10.27087 -10.26358
 Alpha  occ. eigenvalues --  -10.26230 -10.25992 -10.25828 -10.25687 -10.25536
 Alpha  occ. eigenvalues --  -10.25536 -10.25496 -10.25126 -10.25070 -10.24917
 Alpha  occ. eigenvalues --  -10.24909 -10.24891 -10.24352 -10.24163 -10.24042
 Alpha  occ. eigenvalues --  -10.24025 -10.24006 -10.23927 -10.23766 -10.23695
 Alpha  occ. eigenvalues --  -10.23531 -10.23443 -10.23392 -10.23109 -10.23102
 Alpha  occ. eigenvalues --  -10.23076 -10.23040 -10.23013 -10.23010 -10.22803
 Alpha  occ. eigenvalues --  -10.22710 -10.22664 -10.22650 -10.22604 -10.22512
 Alpha  occ. eigenvalues --  -10.22291 -10.22039 -10.21579 -10.21475 -10.21423
 Alpha  occ. eigenvalues --  -10.21332  -3.14026  -1.86854  -1.86392  -1.86269
 Alpha  occ. eigenvalues --   -1.08971  -1.08809  -1.04984  -1.02064  -1.01479
 Alpha  occ. eigenvalues --   -1.01136  -0.99657  -0.98793  -0.97871  -0.97130
 Alpha  occ. eigenvalues --   -0.86392  -0.85302  -0.83468  -0.83318  -0.82951
 Alpha  occ. eigenvalues --   -0.82393  -0.82333  -0.82275  -0.81891  -0.81452
 Alpha  occ. eigenvalues --   -0.81092  -0.79600  -0.78325  -0.77553  -0.77254
 Alpha  occ. eigenvalues --   -0.76510  -0.76437  -0.75459  -0.74891  -0.74606
 Alpha  occ. eigenvalues --   -0.73687  -0.73081  -0.72490  -0.71093  -0.70516
 Alpha  occ. eigenvalues --   -0.70218  -0.69650  -0.69263  -0.68686  -0.68191
 Alpha  occ. eigenvalues --   -0.67938  -0.67298  -0.65958  -0.65047  -0.64026
 Alpha  occ. eigenvalues --   -0.63058  -0.62947  -0.61813  -0.60972  -0.60375
 Alpha  occ. eigenvalues --   -0.60195  -0.59851  -0.59105  -0.58116  -0.57531
 Alpha  occ. eigenvalues --   -0.57176  -0.57124  -0.56168  -0.55969  -0.54726
 Alpha  occ. eigenvalues --   -0.54594  -0.54383  -0.53894  -0.52738  -0.52044
 Alpha  occ. eigenvalues --   -0.51295  -0.50971  -0.50484  -0.50266  -0.49937
 Alpha  occ. eigenvalues --   -0.49483  -0.49170  -0.48856  -0.48723  -0.48216
 Alpha  occ. eigenvalues --   -0.48073  -0.47930  -0.47594  -0.47425  -0.47356
 Alpha  occ. eigenvalues --   -0.46875  -0.46760  -0.46384  -0.46343  -0.46017
 Alpha  occ. eigenvalues --   -0.45901  -0.45843  -0.45453  -0.45112  -0.44980
 Alpha  occ. eigenvalues --   -0.44844  -0.44416  -0.44376  -0.44312  -0.44253
 Alpha  occ. eigenvalues --   -0.44026  -0.43922  -0.43753  -0.43624  -0.43578
 Alpha  occ. eigenvalues --   -0.43299  -0.43064  -0.42788  -0.42617  -0.42121
 Alpha  occ. eigenvalues --   -0.41820  -0.41729  -0.41668  -0.41394  -0.41104
 Alpha  occ. eigenvalues --   -0.40849  -0.40781  -0.40700  -0.40375  -0.40288
 Alpha  occ. eigenvalues --   -0.40206  -0.40026  -0.39897  -0.39633  -0.39444
 Alpha  occ. eigenvalues --   -0.39371  -0.38988  -0.38744  -0.38596  -0.38237
 Alpha  occ. eigenvalues --   -0.38098  -0.37843  -0.37807  -0.37626  -0.37356
 Alpha  occ. eigenvalues --   -0.37183  -0.36900  -0.36815  -0.36728  -0.36584
 Alpha  occ. eigenvalues --   -0.36492  -0.36285  -0.36164  -0.35972  -0.35878
 Alpha  occ. eigenvalues --   -0.35745  -0.35651  -0.35433  -0.34926  -0.34861
 Alpha  occ. eigenvalues --   -0.34727  -0.34573  -0.34362  -0.34209  -0.34076
 Alpha  occ. eigenvalues --   -0.33637  -0.33431  -0.33007  -0.32642  -0.32144
 Alpha  occ. eigenvalues --   -0.32061  -0.31820  -0.31798  -0.31376  -0.31138
 Alpha  occ. eigenvalues --   -0.30736  -0.30546  -0.29777  -0.29267  -0.29222
 Alpha  occ. eigenvalues --   -0.28978  -0.28578  -0.28093  -0.27368  -0.26379
 Alpha  occ. eigenvalues --   -0.26286  -0.25828  -0.25317  -0.24489  -0.21001
 Alpha  occ. eigenvalues --   -0.18625
 Alpha virt. eigenvalues --   -0.10665  -0.05310  -0.03894  -0.01585  -0.00317
 Alpha virt. eigenvalues --   -0.00028   0.00961   0.01971   0.02168   0.03193
 Alpha virt. eigenvalues --    0.04046   0.04691   0.04992   0.05609   0.05973

 Mulliken charges:
               1
     1  Mg   0.987957
     2  C   -0.022444
     3  C   -0.058969
     4  C   -0.035870
     5  C   -0.083200
     6  N   -0.341489
     7  C    0.034679
     8  C   -0.087024
     9  C   -0.170924
    10  C    0.067673
    11  C    0.014792
    12  C    0.021478
    13  C   -0.061989
    14  C    0.266939
    15  O   -0.275440
    16  O   -0.403475
    17  N   -0.565190
    18  C    0.183748
    19  C   -0.187254
    20  C   -0.072665
    21  C    0.165845
    22  C    0.059435
    23  C    0.041216
    24  O   -0.240745
    25  C   -0.006230
    26  N   -0.362136
    27  C    0.054939
    28  C   -0.143043
    29  C   -0.076111
    30  C    0.062097
    31  C    0.025809
    32  C   -0.031989
    33  C   -0.069110
    34  N   -0.457547
    35  C    0.127470
    36  C   -0.188983
    37  C    0.004960
    38  C    0.181386
    39  C    0.098868
    40  C    0.076474
    41  O   -0.254593
    42  C   -0.095365
    43  C    0.303703
    44  O   -0.245207
    45  O   -0.390660
    46  C    0.119831
    47  C    0.267198
    48  C   -0.119401
    49  C   -0.230180
    50  C    0.017693
    51  C    0.028997
    52  C   -0.071246
    53  C    0.025224
    54  C   -0.217192
    55  C   -0.029869
    56  C    0.001686
    57  C   -0.051841
    58  C   -0.039302
    59  C   -0.182544
    60  C   -0.028597
    61  C   -0.004025
    62  C   -0.057600
    63  C   -0.010183
    64  C   -0.239855
    65  C   -0.017809
    66  C   -0.031294
    67  H   -0.007273
    68  H    0.029702
    69  H   -0.006082
    70  H    0.046996
    71  H    0.040216
    72  H    0.037150
    73  H    0.062562
    74  H    0.043274
    75  H    0.044692
    76  H    0.085281
    77  H    0.078068
    78  H    0.051941
    79  H    0.042078
    80  H    0.059687
    81  H    0.068058
    82  H    0.062357
    83  H    0.062004
    84  H    0.057592
    85  H    0.050010
    86  H    0.038577
    87  H    0.052141
    88  H    0.029052
    89  H    0.053598
    90  H    0.035837
    91  H    0.034322
    92  H    0.057967
    93  H    0.048418
    94  H    0.045343
    95  H    0.069151
    96  H    0.022606
    97  H    0.075779
    98  H    0.070032
    99  H    0.053460
   100  H    0.056653
   101  H    0.062893
   102  H    0.065431
   103  H    0.039032
   104  H    0.016742
   105  H    0.037326
   106  H    0.057944
   107  H    0.038585
   108  H    0.029166
   109  H    0.036788
   110  H    0.043145
   111  H    0.038224
   112  H    0.030300
   113  H    0.033929
   114  H    0.040678
   115  H    0.042524
   116  H    0.024195
   117  H    0.030965
   118  H    0.022446
   119  H    0.012009
   120  H    0.029529
   121  H    0.029392
   122  H    0.032109
   123  H    0.022994
   124  H    0.027841
   125  H    0.028563
   126  H    0.035120
   127  H    0.025083
   128  H    0.026915
   129  H    0.035203
   130  H    0.035941
   131  H    0.027999
   132  H    0.038452
   133  H    0.045034
   134  H    0.038038
   135  H    0.014932
   136  H    0.038047
   137  H    0.027154
   138  H    0.040126
   139  H    0.034782
   140  H    0.031669
 Sum of Mulliken charges =  -0.00000

 Dipole moment (field-independent basis, Debye):
    X=             -3.4183    Y=              4.2805    Z=             -3.2023  Tot=              6.3452
 Quadrupole moment (field-independent basis, Debye-Ang):
   XX=           -363.9073   YY=           -410.1936   ZZ=           -405.1854
   XY=             10.5018   XZ=             -4.9950   YZ=             -2.6197

 Normal termination of Gaussian 16 at Fri Apr 29 13:48:03 2022.
