 Gaussian 16, Revision A.03,
 Gaussian 16:  ES64L-G16RevA.03 25-Dec-2016

 --------------------------------
 #p wB97XD/Def2SVP td=(nstates=5)
 --------------------------------

 ---------------------------------------------------
 step_351_chromophore_1 TDDFT with wB97XD functional
 ---------------------------------------------------
 Symbolic Z-matrix:
 Charge =  0 Multiplicity = 1

                         Standard orientation:
 ---------------------------------------------------------------------
 Center     Atomic      Atomic             Coordinates (Angstroms)
 Number     Number       Type             X           Y           Z
 ---------------------------------------------------------------------
      1         12           0        6.204912    0.602984    0.049857
      2          6           0        4.067147   -2.235643   -0.566808
      3          6           0        3.942703    2.549539   -1.373705
      4          6           0        8.496878    3.050790    0.300283
      5          6           0        8.706931   -1.757838    0.824840
      6          7           0        4.200534    0.155941   -0.920331
      7          6           0        3.481769   -0.990646   -1.001400
      8          6           0        2.137348   -0.758987   -1.628918
      9          6           0        2.303105    0.709287   -2.141647
     10          6           0        3.566686    1.202846   -1.417744
     11          6           0        2.405361    0.966504   -3.690870
     12          6           0        0.876826   -0.892988   -0.673810
     13          6           0       -0.271230   -1.793827   -1.224663
     14          6           0       -1.366027   -2.210738   -0.224137
     15          8           0       -1.158070   -2.359681    0.986605
     16          8           0       -2.658098   -2.327585   -0.778327
     17          7           0        6.140052    2.558070   -0.270310
     18          6           0        5.111283    3.212781   -0.904492
     19          6           0        5.447056    4.681757   -0.885297
     20          6           0        6.675403    4.826705   -0.266954
     21          6           0        7.195954    3.444733   -0.048597
     22          6           0        4.424494    5.727939   -1.383085
     23          6           0        7.361681    6.110807    0.161419
     24          8           0        8.489472    6.127452    0.651170
     25          6           0        6.602339    7.391141    0.089950
     26          7           0        8.323824    0.569301    0.340984
     27          6           0        8.987147    1.725912    0.395526
     28          6           0       10.509937    1.508584    0.671442
     29          6           0       10.545261   -0.023784    1.005220
     30          6           0        9.088223   -0.472684    0.733490
     31          6           0       11.340477    1.989276   -0.528607
     32          6           0       10.882918   -0.348607    2.505185
     33          6           0       10.032657    0.436103    3.565261
     34          7           0        6.445802   -1.488004    0.073456
     35          6           0        7.438730   -2.332546    0.546560
     36          6           0        7.130190   -3.707736    0.511729
     37          6           0        5.804083   -3.640273    0.171916
     38          6           0        5.387447   -2.324504   -0.084176
     39          6           0        7.967596   -4.889323    0.636799
     40          6           0        4.737158   -4.508819   -0.073782
     41          8           0        4.658164   -5.750996    0.024038
     42          6           0        3.503101   -3.647927   -0.597113
     43          6           0        2.341286   -3.984265    0.253462
     44          8           0        2.295444   -3.756039    1.452670
     45          8           0        1.456812   -4.746505   -0.508516
     46          6           0        0.377813   -5.475599    0.208847
     47          6           0       -3.841785   -2.602045    0.102027
     48          6           0       -5.035054   -1.927969   -0.502208
     49          6           0       -6.227584   -2.360334   -0.779036
     50          6           0       -6.724136   -3.825118   -0.468367
     51          6           0       -7.144832   -1.498536   -1.538195
     52          6           0       -8.254545   -0.946848   -0.581345
     53          6           0       -8.319297    0.615081   -0.433335
     54          6           0       -9.767837    1.174588   -0.310686
     55          6           0      -10.409043    1.373125   -1.657120
     56          6           0       -9.995338    2.445668    0.558714
     57          6           0      -10.711064    2.196478    1.951631
     58          6           0      -12.224995    2.705400    1.866612
     59          6           0      -13.253576    1.892205    2.634403
     60          6           0      -12.938784    1.842711    4.144686
     61          6           0      -13.544652    0.436000    1.998981
     62          6           0      -14.986330    0.242276    1.419831
     63          6           0      -15.048832   -0.048345   -0.119780
     64          6           0      -16.079929    0.943236   -0.810665
     65          6           0      -16.675268    0.252709   -2.068776
     66          6           0      -15.494568    2.345060   -1.146173
     67          1           0        3.267538    3.195643   -1.937881
     68          1           0        9.244033    3.847345    0.317648
     69          1           0        9.462005   -2.452782    1.198979
     70          1           0        2.000957   -1.407351   -2.494195
     71          1           0        1.438043    1.315200   -1.871496
     72          1           0        2.052955   -0.014958   -4.004262
     73          1           0        3.416689    1.261274   -3.971189
     74          1           0        1.709886    1.729205   -4.041302
     75          1           0        0.390356    0.074007   -0.549236
     76          1           0        1.250733   -1.230399    0.292720
     77          1           0        0.139221   -2.648392   -1.761560
     78          1           0       -0.825446   -1.243974   -1.985649
     79          1           0        3.657983    5.219908   -1.967009
     80          1           0        4.967543    6.447597   -1.996367
     81          1           0        3.912558    6.181808   -0.534686
     82          1           0        7.239923    8.153970    0.536018
     83          1           0        5.701450    7.249642    0.687256
     84          1           0        6.327719    7.583042   -0.947957
     85          1           0       10.802984    2.144048    1.507590
     86          1           0       11.240071   -0.532814    0.339096
     87          1           0       10.679025    1.991581   -1.395761
     88          1           0       12.090454    1.215852   -0.690696
     89          1           0       11.888512    2.921084   -0.386967
     90          1           0       11.959554   -0.211004    2.604479
     91          1           0       10.735263   -1.421990    2.620187
     92          1           0        9.926065   -0.122246    4.494599
     93          1           0        9.072550    0.642720    3.092293
     94          1           0       10.387339    1.455268    3.727133
     95          1           0        7.520054   -5.469030    1.443578
     96          1           0        8.982309   -4.697528    0.985409
     97          1           0        7.985374   -5.313289   -0.367403
     98          1           0        3.293657   -4.053979   -1.586787
     99          1           0        0.763282   -5.974491    1.098069
    100          1           0       -0.050862   -6.295777   -0.367518
    101          1           0       -0.410025   -4.850520    0.627932
    102          1           0       -3.738349   -2.249347    1.127724
    103          1           0       -3.894974   -3.687090    0.185689
    104          1           0       -4.860431   -0.886276   -0.770750
    105          1           0       -7.165692   -4.321828   -1.331446
    106          1           0       -7.493014   -3.727021    0.298042
    107          1           0       -5.892084   -4.509691   -0.301189
    108          1           0       -7.645082   -2.145615   -2.259609
    109          1           0       -6.679942   -0.696443   -2.109983
    110          1           0       -7.983799   -1.318053    0.406365
    111          1           0       -9.116387   -1.565031   -0.832118
    112          1           0       -7.964503    1.169333   -1.302355
    113          1           0       -7.801697    0.947823    0.467225
    114          1           0      -10.349038    0.370181    0.139614
    115          1           0      -11.494512    1.319550   -1.576176
    116          1           0      -10.066609    0.629400   -2.377642
    117          1           0      -10.169023    2.335231   -2.109617
    118          1           0      -10.563159    3.227060    0.052318
    119          1           0       -9.059079    2.979684    0.718912
    120          1           0      -10.128896    2.634710    2.762190
    121          1           0      -10.629700    1.139202    2.203859
    122          1           0      -12.598963    2.878003    0.857455
    123          1           0      -12.236267    3.743905    2.200251
    124          1           0      -14.098448    2.578762    2.697852
    125          1           0      -12.476914    0.916064    4.487397
    126          1           0      -13.853251    1.999804    4.716164
    127          1           0      -12.220867    2.605797    4.447034
    128          1           0      -13.492765   -0.386290    2.712708
    129          1           0      -12.735242    0.276325    1.286462
    130          1           0      -15.568798    1.106822    1.736875
    131          1           0      -15.421759   -0.651412    1.866063
    132          1           0      -15.358528   -1.087221   -0.232370
    133          1           0      -14.071230    0.242987   -0.503190
    134          1           0      -16.938886    1.189821   -0.186881
    135          1           0      -16.634730   -0.829022   -1.943843
    136          1           0      -16.193052    0.499313   -3.015251
    137          1           0      -17.757596    0.340130   -2.152905
    138          1           0      -14.949292    2.357774   -2.089094
    139          1           0      -14.901579    2.741139   -0.321645
    140          1           0      -16.289531    3.086837   -1.219138
 ---------------------------------------------------------------------

 SCF Done:  E(RwB97XD) =  -3007.89075716     A.U. after   17 cycles

 Excitation energies and oscillator strengths:

 Excited State   1:      Singlet-A      1.7786 eV  697.10 nm  f=0.3919  <S**2>=0.000
     245 -> 248        0.19328
     246 -> 247        0.68063
     245 <- 248        0.11249
 This state for optimization and/or second-order correction.
 Total Energy, E(TD-HF/TD-DFT) =  -3007.82539546
 Copying the excited state density for this state as the 1-particle RhoCI density.

 Excited State   2:      Singlet-A      2.2829 eV  543.10 nm  f=0.0693  <S**2>=0.000
     245 -> 247        0.61663
     246 -> 248       -0.33328

 Excited State   3:      Singlet-A      3.4852 eV  355.75 nm  f=0.0101  <S**2>=0.000
     244 -> 247        0.53675
     244 -> 248       -0.11301
     244 -> 249        0.27482
     244 -> 250       -0.28711

 Excited State   4:      Singlet-A      3.5156 eV  352.67 nm  f=0.7193  <S**2>=0.000
     239 -> 247        0.10477
     241 -> 247        0.12945
     245 -> 247        0.30984
     246 -> 248        0.60225
     245 <- 247       -0.10977

 Excited State   5:      Singlet-A      3.6756 eV  337.32 nm  f=0.0014  <S**2>=0.000
     240 -> 247        0.11910
     241 -> 247       -0.26411
     243 -> 247        0.60604
     244 -> 247        0.11459

 The electronic state is 1-A.
 Alpha  occ. eigenvalues --  -46.94733 -19.29691 -19.29621 -19.24750 -19.24589
 Alpha  occ. eigenvalues --  -19.23768 -19.22262 -14.46576 -14.46068 -14.44936
 Alpha  occ. eigenvalues --  -14.43266 -10.43621 -10.42209 -10.39823 -10.37162
 Alpha  occ. eigenvalues --  -10.36050 -10.35875 -10.35649 -10.35215 -10.35126
 Alpha  occ. eigenvalues --  -10.34793 -10.34350 -10.34293 -10.33056 -10.32409
 Alpha  occ. eigenvalues --  -10.32378 -10.32335 -10.32245 -10.32168 -10.31970
 Alpha  occ. eigenvalues --  -10.31918 -10.31770 -10.31624 -10.31254 -10.31207
 Alpha  occ. eigenvalues --  -10.31194 -10.31132 -10.30663 -10.30611 -10.30530
 Alpha  occ. eigenvalues --  -10.30476 -10.30369 -10.30242 -10.30115 -10.29969
 Alpha  occ. eigenvalues --  -10.29877 -10.29754 -10.29722 -10.29455 -10.29394
 Alpha  occ. eigenvalues --  -10.29384 -10.29378 -10.29312 -10.29213 -10.29173
 Alpha  occ. eigenvalues --  -10.29072 -10.29022 -10.29016 -10.28978 -10.28865
 Alpha  occ. eigenvalues --  -10.28650 -10.28474 -10.28023 -10.27895 -10.27859
 Alpha  occ. eigenvalues --  -10.27220  -3.20824  -1.94403  -1.93944  -1.93812
 Alpha  occ. eigenvalues --   -1.16292  -1.16148  -1.12788  -1.09251  -1.08733
 Alpha  occ. eigenvalues --   -1.08435  -1.07029  -1.06143  -1.05143  -1.04634
 Alpha  occ. eigenvalues --   -0.93805  -0.92947  -0.91086  -0.90966  -0.90670
 Alpha  occ. eigenvalues --   -0.90156  -0.90063  -0.89888  -0.89444  -0.88942
 Alpha  occ. eigenvalues --   -0.88763  -0.87260  -0.85986  -0.85174  -0.84893
 Alpha  occ. eigenvalues --   -0.84417  -0.84161  -0.83043  -0.82517  -0.82254
 Alpha  occ. eigenvalues --   -0.81347  -0.80918  -0.80054  -0.78630  -0.78169
 Alpha  occ. eigenvalues --   -0.77765  -0.77351  -0.76828  -0.76368  -0.75854
 Alpha  occ. eigenvalues --   -0.75555  -0.74773  -0.73491  -0.72627  -0.71606
 Alpha  occ. eigenvalues --   -0.70683  -0.70547  -0.69421  -0.68588  -0.67870
 Alpha  occ. eigenvalues --   -0.67854  -0.67326  -0.66508  -0.65563  -0.65190
 Alpha  occ. eigenvalues --   -0.64782  -0.64573  -0.63569  -0.63481  -0.62273
 Alpha  occ. eigenvalues --   -0.62139  -0.61828  -0.61318  -0.60079  -0.59352
 Alpha  occ. eigenvalues --   -0.58727  -0.58418  -0.57873  -0.57758  -0.57372
 Alpha  occ. eigenvalues --   -0.56896  -0.56627  -0.56249  -0.56083  -0.55767
 Alpha  occ. eigenvalues --   -0.55669  -0.55453  -0.54932  -0.54882  -0.54723
 Alpha  occ. eigenvalues --   -0.54229  -0.54098  -0.53772  -0.53547  -0.53407
 Alpha  occ. eigenvalues --   -0.53246  -0.53083  -0.52808  -0.52658  -0.52431
 Alpha  occ. eigenvalues --   -0.52202  -0.51946  -0.51829  -0.51707  -0.51585
 Alpha  occ. eigenvalues --   -0.51397  -0.51219  -0.51019  -0.50931  -0.50826
 Alpha  occ. eigenvalues --   -0.50573  -0.50345  -0.50085  -0.50059  -0.49383
 Alpha  occ. eigenvalues --   -0.49082  -0.48893  -0.48846  -0.48604  -0.48274
 Alpha  occ. eigenvalues --   -0.48069  -0.47950  -0.47815  -0.47608  -0.47508
 Alpha  occ. eigenvalues --   -0.47276  -0.47138  -0.47090  -0.46733  -0.46714
 Alpha  occ. eigenvalues --   -0.46698  -0.46091  -0.45942  -0.45609  -0.45317
 Alpha  occ. eigenvalues --   -0.45173  -0.45000  -0.44896  -0.44740  -0.44656
 Alpha  occ. eigenvalues --   -0.44510  -0.43902  -0.43894  -0.43831  -0.43673
 Alpha  occ. eigenvalues --   -0.43597  -0.43344  -0.43226  -0.42985  -0.42893
 Alpha  occ. eigenvalues --   -0.42793  -0.42637  -0.42517  -0.41924  -0.41890
 Alpha  occ. eigenvalues --   -0.41790  -0.41568  -0.41382  -0.41190  -0.41146
 Alpha  occ. eigenvalues --   -0.40549  -0.40436  -0.39902  -0.39645  -0.39195
 Alpha  occ. eigenvalues --   -0.39106  -0.38900  -0.38822  -0.38276  -0.38100
 Alpha  occ. eigenvalues --   -0.37722  -0.37513  -0.36700  -0.36132  -0.35958
 Alpha  occ. eigenvalues --   -0.35752  -0.35624  -0.35014  -0.34299  -0.33804
 Alpha  occ. eigenvalues --   -0.32942  -0.32529  -0.31525  -0.31279  -0.26090
 Alpha  occ. eigenvalues --   -0.22820
 Alpha virt. eigenvalues --   -0.06398   0.00077   0.02322   0.04987   0.05778
 Alpha virt. eigenvalues --    0.06642   0.07837   0.08699   0.08950   0.09448
 Alpha virt. eigenvalues --    0.10573   0.11261   0.11751   0.12409   0.12697

 Mulliken charges:
               1
     1  Mg   0.977730
     2  C   -0.027130
     3  C   -0.076770
     4  C   -0.061359
     5  C   -0.100733
     6  N   -0.302442
     7  C   -0.004749
     8  C   -0.058835
     9  C   -0.147997
    10  C    0.057560
    11  C    0.026330
    12  C    0.031529
    13  C   -0.042872
    14  C    0.253310
    15  O   -0.271098
    16  O   -0.402853
    17  N   -0.538711
    18  C    0.179824
    19  C   -0.176602
    20  C   -0.065184
    21  C    0.164853
    22  C    0.074050
    23  C    0.036590
    24  O   -0.232732
    25  C    0.007595
    26  N   -0.324744
    27  C    0.049648
    28  C   -0.123432
    29  C   -0.048764
    30  C    0.049360
    31  C    0.035058
    32  C   -0.017703
    33  C   -0.047825
    34  N   -0.421519
    35  C    0.118864
    36  C   -0.190214
    37  C    0.013919
    38  C    0.162857
    39  C    0.109476
    40  C    0.054343
    41  O   -0.247543
    42  C   -0.052133
    43  C    0.271656
    44  O   -0.237361
    45  O   -0.387329
    46  C    0.137011
    47  C    0.278990
    48  C   -0.131569
    49  C   -0.209085
    50  C    0.030295
    51  C    0.044312
    52  C   -0.057097
    53  C    0.041296
    54  C   -0.184388
    55  C   -0.013644
    56  C    0.013764
    57  C   -0.037394
    58  C   -0.016043
    59  C   -0.154912
    60  C   -0.018589
    61  C    0.014998
    62  C   -0.042184
    63  C    0.011672
    64  C   -0.212148
    65  C   -0.006221
    66  C   -0.015035
    67  H   -0.015723
    68  H    0.026249
    69  H   -0.015732
    70  H    0.033931
    71  H    0.029284
    72  H    0.030643
    73  H    0.056433
    74  H    0.038518
    75  H    0.035871
    76  H    0.077427
    77  H    0.069998
    78  H    0.045719
    79  H    0.039228
    80  H    0.054860
    81  H    0.064831
    82  H    0.062679
    83  H    0.055963
    84  H    0.051505
    85  H    0.038940
    86  H    0.029868
    87  H    0.045294
    88  H    0.023387
    89  H    0.049499
    90  H    0.027846
    91  H    0.024988
    92  H    0.054279
    93  H    0.034559
    94  H    0.038257
    95  H    0.063696
    96  H    0.016107
    97  H    0.069984
    98  H    0.063555
    99  H    0.049674
   100  H    0.053638
   101  H    0.055665
   102  H    0.061724
   103  H    0.034007
   104  H    0.013354
   105  H    0.032119
   106  H    0.052457
   107  H    0.032731
   108  H    0.020822
   109  H    0.029975
   110  H    0.031605
   111  H    0.031867
   112  H    0.020033
   113  H    0.026342
   114  H    0.022439
   115  H    0.034391
   116  H    0.017071
   117  H    0.024060
   118  H    0.012851
   119  H    0.004895
   120  H    0.023260
   121  H    0.018329
   122  H    0.016073
   123  H    0.014839
   124  H    0.016504
   125  H    0.022052
   126  H    0.030227
   127  H    0.018549
   128  H    0.020122
   129  H    0.017264
   130  H    0.024671
   131  H    0.021230
   132  H    0.031320
   133  H    0.030408
   134  H    0.026933
   135  H    0.007625
   136  H    0.032337
   137  H    0.021879
   138  H    0.033530
   139  H    0.023050
   140  H    0.026192
 Sum of Mulliken charges =  -0.00000

 Dipole moment (field-independent basis, Debye):
    X=             -3.4754    Y=              5.2712    Z=             -3.3456  Tot=              7.1454
 Quadrupole moment (field-independent basis, Debye-Ang):
   XX=           -365.3018   YY=           -407.3588   ZZ=           -404.8102
   XY=             17.0259   XZ=             -5.7940   YZ=             -2.7790

 Normal termination of Gaussian 16 at Fri Apr 29 14:16:18 2022.
