 Gaussian 16, Revision A.03,
 Gaussian 16:  ES64L-G16RevA.03 25-Dec-2016

 --------------------
 #p ZINDO=(nstates=5)
 --------------------

 ----------------------------
 step_351_chromophore_1 ZINDO
 ----------------------------
 Symbolic Z-matrix:
 Charge =  0 Multiplicity = 1

                         Standard orientation:
 ---------------------------------------------------------------------
 Center     Atomic      Atomic             Coordinates (Angstroms)
 Number     Number       Type             X           Y           Z
 ---------------------------------------------------------------------
      1         12           0        6.204912    0.602984    0.049857
      2          6           0        4.067147   -2.235643   -0.566808
      3          6           0        3.942703    2.549539   -1.373705
      4          6           0        8.496878    3.050790    0.300283
      5          6           0        8.706931   -1.757838    0.824840
      6          7           0        4.200534    0.155941   -0.920331
      7          6           0        3.481769   -0.990646   -1.001400
      8          6           0        2.137348   -0.758987   -1.628918
      9          6           0        2.303105    0.709287   -2.141647
     10          6           0        3.566686    1.202846   -1.417744
     11          6           0        2.405361    0.966504   -3.690870
     12          6           0        0.876826   -0.892988   -0.673810
     13          6           0       -0.271230   -1.793827   -1.224663
     14          6           0       -1.366027   -2.210738   -0.224137
     15          8           0       -1.158070   -2.359681    0.986605
     16          8           0       -2.658098   -2.327585   -0.778327
     17          7           0        6.140052    2.558070   -0.270310
     18          6           0        5.111283    3.212781   -0.904492
     19          6           0        5.447056    4.681757   -0.885297
     20          6           0        6.675403    4.826705   -0.266954
     21          6           0        7.195954    3.444733   -0.048597
     22          6           0        4.424494    5.727939   -1.383085
     23          6           0        7.361681    6.110807    0.161419
     24          8           0        8.489472    6.127452    0.651170
     25          6           0        6.602339    7.391141    0.089950
     26          7           0        8.323824    0.569301    0.340984
     27          6           0        8.987147    1.725912    0.395526
     28          6           0       10.509937    1.508584    0.671442
     29          6           0       10.545261   -0.023784    1.005220
     30          6           0        9.088223   -0.472684    0.733490
     31          6           0       11.340477    1.989276   -0.528607
     32          6           0       10.882918   -0.348607    2.505185
     33          6           0       10.032657    0.436103    3.565261
     34          7           0        6.445802   -1.488004    0.073456
     35          6           0        7.438730   -2.332546    0.546560
     36          6           0        7.130190   -3.707736    0.511729
     37          6           0        5.804083   -3.640273    0.171916
     38          6           0        5.387447   -2.324504   -0.084176
     39          6           0        7.967596   -4.889323    0.636799
     40          6           0        4.737158   -4.508819   -0.073782
     41          8           0        4.658164   -5.750996    0.024038
     42          6           0        3.503101   -3.647927   -0.597113
     43          6           0        2.341286   -3.984265    0.253462
     44          8           0        2.295444   -3.756039    1.452670
     45          8           0        1.456812   -4.746505   -0.508516
     46          6           0        0.377813   -5.475599    0.208847
     47          6           0       -3.841785   -2.602045    0.102027
     48          6           0       -5.035054   -1.927969   -0.502208
     49          6           0       -6.227584   -2.360334   -0.779036
     50          6           0       -6.724136   -3.825118   -0.468367
     51          6           0       -7.144832   -1.498536   -1.538195
     52          6           0       -8.254545   -0.946848   -0.581345
     53          6           0       -8.319297    0.615081   -0.433335
     54          6           0       -9.767837    1.174588   -0.310686
     55          6           0      -10.409043    1.373125   -1.657120
     56          6           0       -9.995338    2.445668    0.558714
     57          6           0      -10.711064    2.196478    1.951631
     58          6           0      -12.224995    2.705400    1.866612
     59          6           0      -13.253576    1.892205    2.634403
     60          6           0      -12.938784    1.842711    4.144686
     61          6           0      -13.544652    0.436000    1.998981
     62          6           0      -14.986330    0.242276    1.419831
     63          6           0      -15.048832   -0.048345   -0.119780
     64          6           0      -16.079929    0.943236   -0.810665
     65          6           0      -16.675268    0.252709   -2.068776
     66          6           0      -15.494568    2.345060   -1.146173
     67          1           0        3.267538    3.195643   -1.937881
     68          1           0        9.244033    3.847345    0.317648
     69          1           0        9.462005   -2.452782    1.198979
     70          1           0        2.000957   -1.407351   -2.494195
     71          1           0        1.438043    1.315200   -1.871496
     72          1           0        2.052955   -0.014958   -4.004262
     73          1           0        3.416689    1.261274   -3.971189
     74          1           0        1.709886    1.729205   -4.041302
     75          1           0        0.390356    0.074007   -0.549236
     76          1           0        1.250733   -1.230399    0.292720
     77          1           0        0.139221   -2.648392   -1.761560
     78          1           0       -0.825446   -1.243974   -1.985649
     79          1           0        3.657983    5.219908   -1.967009
     80          1           0        4.967543    6.447597   -1.996367
     81          1           0        3.912558    6.181808   -0.534686
     82          1           0        7.239923    8.153970    0.536018
     83          1           0        5.701450    7.249642    0.687256
     84          1           0        6.327719    7.583042   -0.947957
     85          1           0       10.802984    2.144048    1.507590
     86          1           0       11.240071   -0.532814    0.339096
     87          1           0       10.679025    1.991581   -1.395761
     88          1           0       12.090454    1.215852   -0.690696
     89          1           0       11.888512    2.921084   -0.386967
     90          1           0       11.959554   -0.211004    2.604479
     91          1           0       10.735263   -1.421990    2.620187
     92          1           0        9.926065   -0.122246    4.494599
     93          1           0        9.072550    0.642720    3.092293
     94          1           0       10.387339    1.455268    3.727133
     95          1           0        7.520054   -5.469030    1.443578
     96          1           0        8.982309   -4.697528    0.985409
     97          1           0        7.985374   -5.313289   -0.367403
     98          1           0        3.293657   -4.053979   -1.586787
     99          1           0        0.763282   -5.974491    1.098069
    100          1           0       -0.050862   -6.295777   -0.367518
    101          1           0       -0.410025   -4.850520    0.627932
    102          1           0       -3.738349   -2.249347    1.127724
    103          1           0       -3.894974   -3.687090    0.185689
    104          1           0       -4.860431   -0.886276   -0.770750
    105          1           0       -7.165692   -4.321828   -1.331446
    106          1           0       -7.493014   -3.727021    0.298042
    107          1           0       -5.892084   -4.509691   -0.301189
    108          1           0       -7.645082   -2.145615   -2.259609
    109          1           0       -6.679942   -0.696443   -2.109983
    110          1           0       -7.983799   -1.318053    0.406365
    111          1           0       -9.116387   -1.565031   -0.832118
    112          1           0       -7.964503    1.169333   -1.302355
    113          1           0       -7.801697    0.947823    0.467225
    114          1           0      -10.349038    0.370181    0.139614
    115          1           0      -11.494512    1.319550   -1.576176
    116          1           0      -10.066609    0.629400   -2.377642
    117          1           0      -10.169023    2.335231   -2.109617
    118          1           0      -10.563159    3.227060    0.052318
    119          1           0       -9.059079    2.979684    0.718912
    120          1           0      -10.128896    2.634710    2.762190
    121          1           0      -10.629700    1.139202    2.203859
    122          1           0      -12.598963    2.878003    0.857455
    123          1           0      -12.236267    3.743905    2.200251
    124          1           0      -14.098448    2.578762    2.697852
    125          1           0      -12.476914    0.916064    4.487397
    126          1           0      -13.853251    1.999804    4.716164
    127          1           0      -12.220867    2.605797    4.447034
    128          1           0      -13.492765   -0.386290    2.712708
    129          1           0      -12.735242    0.276325    1.286462
    130          1           0      -15.568798    1.106822    1.736875
    131          1           0      -15.421759   -0.651412    1.866063
    132          1           0      -15.358528   -1.087221   -0.232370
    133          1           0      -14.071230    0.242987   -0.503190
    134          1           0      -16.938886    1.189821   -0.186881
    135          1           0      -16.634730   -0.829022   -1.943843
    136          1           0      -16.193052    0.499313   -3.015251
    137          1           0      -17.757596    0.340130   -2.152905
    138          1           0      -14.949292    2.357774   -2.089094
    139          1           0      -14.901579    2.741139   -0.321645
    140          1           0      -16.289531    3.086837   -1.219138
 ---------------------------------------------------------------------

 SCF Done:  E(RZINDO/S) =  -474.195964160     A.U. after   19 cycles

 Excitation energies and oscillator strengths:

 Excited State   1:      Singlet-A      1.3730 eV  903.03 nm  f=0.5641  <S**2>=0.000
     175 ->178         0.17416
     176 ->177         0.66914
 This state for optimization and/or second-order correction.
 Total Energy, E(CIS/TDA) =  -474.145507884
 Copying the excited state density for this state as the 1-particle RhoCI density.

 Excited State   2:      Singlet-A      1.9706 eV  629.16 nm  f=0.0065  <S**2>=0.000
     175 ->177         0.49199
     176 ->178        -0.48039

 Excited State   3:      Singlet-A      2.9514 eV  420.08 nm  f=0.3081  <S**2>=0.000
     171 ->177         0.22919
     171 ->178        -0.14249
     171 ->179         0.17421
     171 ->180         0.28423
     171 ->185         0.15351
     171 ->188         0.10338
     175 ->177         0.24027
     176 ->178         0.26048
     176 ->179        -0.23420
     176 ->180        -0.16617

 Excited State   4:      Singlet-A      2.9701 eV  417.45 nm  f=0.4954  <S**2>=0.000
     171 ->177        -0.20492
     171 ->178         0.12559
     171 ->179        -0.15536
     171 ->180        -0.25771
     171 ->185        -0.14110
     175 ->177         0.29579
     176 ->178         0.31950
     176 ->179        -0.18284
     176 ->180        -0.12733

 Excited State   5:      Singlet-A      2.9804 eV  416.00 nm  f=0.0254  <S**2>=0.000
     167 ->177        -0.22628
     167 ->179         0.36051
     167 ->180        -0.15002
     167 ->184        -0.11026
     167 ->185         0.13942
     168 ->177        -0.20754
     168 ->179         0.31035
     168 ->180        -0.13379
     168 ->185         0.12232
     169 ->179        -0.10173

 The electronic state is 1-A.
 Alpha  occ. eigenvalues --   -1.84970  -1.81682  -1.81037  -1.72435  -1.69545
 Alpha  occ. eigenvalues --   -1.67581  -1.63440  -1.60114  -1.59440  -1.55950
 Alpha  occ. eigenvalues --   -1.54952  -1.51023  -1.48055  -1.46486  -1.45176
 Alpha  occ. eigenvalues --   -1.43812  -1.42188  -1.41107  -1.38981  -1.36646
 Alpha  occ. eigenvalues --   -1.36420  -1.34173  -1.32650  -1.31971  -1.28498
 Alpha  occ. eigenvalues --   -1.26864  -1.24908  -1.22588  -1.20340  -1.18144
 Alpha  occ. eigenvalues --   -1.17199  -1.16446  -1.15673  -1.14850  -1.12471
 Alpha  occ. eigenvalues --   -1.12078  -1.11412  -1.10814  -1.04909  -1.03802
 Alpha  occ. eigenvalues --   -1.03316  -1.01001  -0.99265  -0.97919  -0.97636
 Alpha  occ. eigenvalues --   -0.96685  -0.94517  -0.94171  -0.92457  -0.91689
 Alpha  occ. eigenvalues --   -0.90127  -0.90004  -0.89004  -0.88396  -0.85869
 Alpha  occ. eigenvalues --   -0.84557  -0.83538  -0.82406  -0.82110  -0.80320
 Alpha  occ. eigenvalues --   -0.79967  -0.78904  -0.76503  -0.76215  -0.75957
 Alpha  occ. eigenvalues --   -0.75263  -0.74786  -0.74668  -0.74102  -0.73381
 Alpha  occ. eigenvalues --   -0.72848  -0.72538  -0.72182  -0.71493  -0.71439
 Alpha  occ. eigenvalues --   -0.70616  -0.69602  -0.68946  -0.68389  -0.68371
 Alpha  occ. eigenvalues --   -0.67767  -0.67239  -0.66474  -0.66125  -0.65062
 Alpha  occ. eigenvalues --   -0.64884  -0.64113  -0.63916  -0.63853  -0.63125
 Alpha  occ. eigenvalues --   -0.62890  -0.62855  -0.62651  -0.62015  -0.61776
 Alpha  occ. eigenvalues --   -0.61339  -0.60985  -0.60806  -0.60332  -0.59979
 Alpha  occ. eigenvalues --   -0.59757  -0.58983  -0.58935  -0.58660  -0.58263
 Alpha  occ. eigenvalues --   -0.57765  -0.57242  -0.57085  -0.56592  -0.55983
 Alpha  occ. eigenvalues --   -0.55645  -0.55540  -0.55382  -0.54677  -0.54377
 Alpha  occ. eigenvalues --   -0.53988  -0.53316  -0.52953  -0.52523  -0.52427
 Alpha  occ. eigenvalues --   -0.51891  -0.51653  -0.51533  -0.51278  -0.51085
 Alpha  occ. eigenvalues --   -0.50782  -0.50565  -0.50445  -0.50395  -0.49966
 Alpha  occ. eigenvalues --   -0.49717  -0.49633  -0.49327  -0.49077  -0.48983
 Alpha  occ. eigenvalues --   -0.48711  -0.48659  -0.48228  -0.48036  -0.47635
 Alpha  occ. eigenvalues --   -0.47333  -0.47037  -0.46987  -0.46707  -0.46510
 Alpha  occ. eigenvalues --   -0.46362  -0.45985  -0.45854  -0.45690  -0.45402
 Alpha  occ. eigenvalues --   -0.45269  -0.45207  -0.45165  -0.43979  -0.43583
 Alpha  occ. eigenvalues --   -0.43385  -0.43091  -0.42709  -0.42492  -0.42116
 Alpha  occ. eigenvalues --   -0.41585  -0.41474  -0.40359  -0.38948  -0.38669
 Alpha  occ. eigenvalues --   -0.37264  -0.36803  -0.36501  -0.34925  -0.34259
 Alpha  occ. eigenvalues --   -0.32891  -0.32668  -0.32482  -0.31420  -0.26735
 Alpha  occ. eigenvalues --   -0.21525
 Alpha virt. eigenvalues --   -0.07695  -0.02124  -0.00655   0.01645   0.01948
 Alpha virt. eigenvalues --    0.02071   0.03282   0.03808   0.04889   0.05544
 Alpha virt. eigenvalues --    0.06077   0.07045   0.07336   0.07489   0.08312

 Mulliken charges:
               1
     1  Mg   0.431433
     2  C   -0.030668
     3  C   -0.097051
     4  C   -0.080708
     5  C   -0.059384
     6  N   -0.268240
     7  C    0.089475
     8  C    0.007210
     9  C   -0.006287
    10  C    0.169971
    11  C   -0.058557
    12  C   -0.020900
    13  C    0.010908
    14  C    0.459747
    15  O   -0.505855
    16  O   -0.289012
    17  N   -0.332693
    18  C    0.132825
    19  C    0.023181
    20  C   -0.023352
    21  C    0.150265
    22  C   -0.043510
    23  C    0.331100
    24  O   -0.517229
    25  C   -0.028682
    26  N   -0.263389
    27  C    0.176261
    28  C   -0.002584
    29  C   -0.002490
    30  C    0.092903
    31  C   -0.050653
    32  C   -0.029788
    33  C   -0.056308
    34  N   -0.326550
    35  C    0.065999
    36  C    0.027247
    37  C   -0.048595
    38  C    0.097844
    39  C   -0.031692
    40  C    0.320310
    41  O   -0.557722
    42  C    0.052971
    43  C    0.492637
    44  O   -0.506593
    45  O   -0.276385
    46  C    0.066410
    47  C    0.111230
    48  C   -0.082726
    49  C    0.004194
    50  C   -0.054088
    51  C   -0.019510
    52  C   -0.036596
    53  C   -0.026746
    54  C   -0.009926
    55  C   -0.050951
    56  C   -0.038495
    57  C   -0.039735
    58  C   -0.029083
    59  C   -0.013153
    60  C   -0.057772
    61  C   -0.038266
    62  C   -0.044949
    63  C   -0.036916
    64  C   -0.013304
    65  C   -0.065185
    66  C   -0.057148
    67  H    0.016211
    68  H    0.047015
    69  H    0.017887
    70  H    0.028601
    71  H    0.022679
    72  H    0.027444
    73  H    0.032904
    74  H    0.021755
    75  H    0.024661
    76  H    0.048857
    77  H    0.049240
    78  H    0.026353
    79  H    0.026659
    80  H    0.034084
    81  H    0.038277
    82  H    0.043145
    83  H    0.038410
    84  H    0.041528
    85  H    0.032855
    86  H    0.030343
    87  H    0.025460
    88  H    0.014262
    89  H    0.030450
    90  H    0.012273
    91  H    0.020261
    92  H    0.028608
    93  H    0.023472
    94  H    0.020654
    95  H    0.041632
    96  H    0.014463
    97  H    0.044226
    98  H    0.049930
    99  H    0.041210
   100  H    0.033934
   101  H    0.050034
   102  H    0.054453
   103  H    0.041430
   104  H    0.021349
   105  H    0.019214
   106  H    0.036430
   107  H    0.028711
   108  H    0.014725
   109  H    0.025605
   110  H    0.015005
   111  H    0.030149
   112  H    0.024254
   113  H    0.023900
   114  H    0.012600
   115  H    0.014225
   116  H    0.009772
   117  H    0.015054
   118  H    0.018010
   119  H    0.011083
   120  H    0.022294
   121  H    0.019354
   122  H    0.016846
   123  H    0.010026
   124  H    0.018956
   125  H    0.014912
   126  H    0.015284
   127  H    0.014659
   128  H    0.019437
   129  H    0.024044
   130  H    0.025854
   131  H    0.013789
   132  H    0.033014
   133  H    0.029345
   134  H    0.021780
   135  H    0.008618
   136  H    0.024102
   137  H    0.015442
   138  H    0.022911
   139  H    0.016595
   140  H    0.012295
 Sum of Mulliken charges =  -0.00000

 Dipole moment (field-independent basis, Debye):
    X=             -4.4023    Y=              9.3877    Z=             -7.2053  Tot=             12.6264
 N-N= 4.207587591912D+03 E-N= 0.000000000000D+00  KE=-9.090022337990D+03
 Leave Link  601 at Fri Apr 29 14:27:51 2022, MaxMem=  6710886400 cpu:               1.4 elap:               0.1
 (Enter /sw/apps/gaussian-16.0/g16/l9999.exe)
 1\1\GINC-BP1-COMPUTE159\SP\RZINDO CIS\STO-3G\C55H74Mg1N4O6\OF15641\29-
 Apr-2022\0\\#p ZINDO=(nstates=5)\\step_351_chromophore_1 ZINDO\\0,1\Mg
 ,0,-2.091,16.922,26.379\C,0,-2.4,14.65,29.163\C,0,-3.155,19.372,28.328
 \C,0,-2.169,18.793,23.586\C,0,-1.706,14.04,24.384\N,0,-2.757,16.965,28
 .55\C,0,-2.737,16.009,29.511\C,0,-3.158,16.555,30.845\C,0,-3.682,17.96
 9,30.43\C,0,-3.15,18.144,28.998\C,0,-5.228,18.256,30.495\C,0,-2.028,16
 .666,31.954\C,0,-2.408,16.062,33.341\C,0,-1.259,15.859,34.347\O,0,-0.0

 Normal termination of Gaussian 16 at Fri Apr 29 14:27:52 2022.
