 Gaussian 16, Revision A.03,
 Gaussian 16:  ES64L-G16RevA.03 25-Dec-2016

 ------------------------------
 #p blyp/Def2SVP td=(nstates=5)
 ------------------------------

 -------------------------------------------------
 step_251_chromophore_5 TDDFT with blyp functional
 -------------------------------------------------
 Symbolic Z-matrix:
 Charge =  0 Multiplicity = 1

                         Standard orientation:
 ---------------------------------------------------------------------
 Center     Atomic      Atomic             Coordinates (Angstroms)
 Number     Number       Type             X           Y           Z
 ---------------------------------------------------------------------
      1         12           0        5.283390    0.477002   -0.456820
      2          6           0        3.821227   -2.652990   -0.614231
      3          6           0        2.931310    1.606755   -2.861856
      4          6           0        6.280297    3.715068    0.056280
      5          6           0        7.240533   -0.505342    2.214060
      6          7           0        3.676526   -0.491230   -1.672071
      7          6           0        3.198407   -1.769850   -1.476370
      8          6           0        1.862017   -2.077347   -2.250417
      9          6           0        1.818170   -0.842907   -3.269435
     10          6           0        2.900922    0.193690   -2.632410
     11          6           0        2.082164   -1.098652   -4.802179
     12          6           0        0.640739   -2.155798   -1.403520
     13          6           0       -0.171346   -3.434521   -1.328900
     14          6           0       -1.671591   -3.264888   -1.040375
     15          8           0       -2.571643   -3.981244   -1.525581
     16          8           0       -1.854962   -2.247602   -0.155727
     17          7           0        4.745469    2.399317   -1.365908
     18          6           0        3.780588    2.578935   -2.374930
     19          6           0        3.774151    3.944376   -2.794181
     20          6           0        4.660683    4.634151   -1.820531
     21          6           0        5.286489    3.588105   -0.953738
     22          6           0        2.803050    4.521272   -3.829497
     23          6           0        4.832914    6.163020   -1.839885
     24          8           0        4.279551    6.964142   -2.587626
     25          6           0        5.478986    6.784359   -0.652520
     26          7           0        6.498112    1.549133    1.113153
     27          6           0        6.868820    2.825837    0.945094
     28          6           0        7.569376    3.247819    2.235791
     29          6           0        7.997486    1.884983    2.956076
     30          6           0        7.215952    0.855889    2.023301
     31          6           0        8.867185    4.060386    1.889672
     32          6           0        7.666525    1.666288    4.489430
     33          6           0        8.785702    1.555207    5.513988
     34          7           0        5.572549   -1.284012    0.578999
     35          6           0        6.440441   -1.561656    1.639731
     36          6           0        6.260263   -2.912461    2.076290
     37          6           0        5.226492   -3.419231    1.229491
     38          6           0        4.899353   -2.353121    0.303721
     39          6           0        6.961122   -3.636597    3.182253
     40          6           0        4.451410   -4.534424    0.870609
     41          8           0        4.463445   -5.643935    1.365019
     42          6           0        3.459146   -4.078519   -0.268280
     43          6           0        3.450811   -5.105673   -1.321630
     44          8           0        2.532466   -5.902583   -1.477208
     45          8           0        4.621997   -5.041060   -2.061661
     46          6           0        4.699795   -6.079075   -3.114034
     47          6           0       -3.197319   -2.102252    0.423450
     48          6           0       -3.474989   -0.700433    1.037212
     49          6           0       -4.314862   -0.332354    2.076091
     50          6           0       -5.345097   -1.220156    2.682106
     51          6           0       -4.307043    1.126509    2.591675
     52          6           0       -4.893288    2.125841    1.579589
     53          6           0       -6.437112    1.955462    1.375385
     54          6           0       -6.858950    1.577440   -0.077965
     55          6           0       -6.543079    2.746918   -0.994051
     56          6           0       -8.434842    1.295996   -0.080462
     57          6           0       -8.851810   -0.149066   -0.182621
     58          6           0       -9.513339   -0.639602    1.245148
     59          6           0      -11.030410   -0.879063    1.035200
     60          6           0      -11.631320   -1.850451    2.098741
     61          6           0      -11.769149    0.455834    0.986208
     62          6           0      -12.574186    0.669147   -0.374206
     63          6           0      -14.028338    0.286937   -0.137321
     64          6           0      -14.861297    1.570251    0.023067
     65          6           0      -15.648896    1.483548    1.368622
     66          6           0      -15.855967    1.840533   -1.215958
     67          1           0        2.290249    2.057656   -3.621671
     68          1           0        6.603107    4.758003    0.092916
     69          1           0        7.835763   -0.784549    3.085811
     70          1           0        1.973693   -3.005728   -2.809461
     71          1           0        0.851907   -0.358601   -3.123926
     72          1           0        2.030301   -2.175998   -4.959143
     73          1           0        3.031931   -0.710755   -5.170629
     74          1           0        1.309118   -0.560851   -5.349792
     75          1           0       -0.061096   -1.426621   -1.811076
     76          1           0        0.894089   -1.941791   -0.365751
     77          1           0        0.199558   -4.011863   -0.482521
     78          1           0       -0.149061   -4.014775   -2.251066
     79          1           0        2.015416    3.910970   -4.270819
     80          1           0        3.486116    4.936576   -4.570061
     81          1           0        2.447620    5.433494   -3.351374
     82          1           0        6.559758    6.918048   -0.634668
     83          1           0        5.145586    6.332637    0.281890
     84          1           0        5.125599    7.815859   -0.627787
     85          1           0        6.931787    3.844743    2.888311
     86          1           0        9.047526    1.670891    2.759968
     87          1           0        8.833836    4.972201    2.485963
     88          1           0        8.999164    4.309200    0.835933
     89          1           0        9.786278    3.523786    2.126226
     90          1           0        7.069914    0.754374    4.498541
     91          1           0        7.106075    2.554187    4.785331
     92          1           0        8.351985    0.998846    6.345305
     93          1           0        9.030841    2.553318    5.877670
     94          1           0        9.708681    1.035067    5.259923
     95          1           0        6.543136   -4.643578    3.190177
     96          1           0        6.788549   -3.071059    4.097440
     97          1           0        8.038120   -3.748226    3.055598
     98          1           0        2.483881   -4.105499    0.218928
     99          1           0        5.172236   -6.978298   -2.718829
    100          1           0        5.206441   -5.609538   -3.957183
    101          1           0        3.715127   -6.336395   -3.503275
    102          1           0       -3.280548   -2.938796    1.117609
    103          1           0       -3.969638   -2.342867   -0.307011
    104          1           0       -2.779638    0.106344    0.807116
    105          1           0       -5.369398   -2.215057    2.236655
    106          1           0       -6.321344   -0.746023    2.588355
    107          1           0       -5.228548   -1.400009    3.751328
    108          1           0       -3.268730    1.389888    2.791594
    109          1           0       -4.869227    1.273993    3.514617
    110          1           0       -4.365944    2.170009    0.626225
    111          1           0       -4.764573    3.112943    2.023679
    112          1           0       -6.979773    2.865420    1.630556
    113          1           0       -6.830232    1.174395    2.027235
    114          1           0       -6.213355    0.701720   -0.143975
    115          1           0       -7.396628    3.190490   -1.507064
    116          1           0       -5.961508    2.288257   -1.794390
    117          1           0       -5.903643    3.518535   -0.566084
    118          1           0       -8.863140    1.765453   -0.965925
    119          1           0       -8.890137    1.809558    0.766638
    120          1           0       -8.015877   -0.796515   -0.449918
    121          1           0       -9.547594   -0.149450   -1.021900
    122          1           0       -9.157267    0.040300    2.019564
    123          1           0       -9.078326   -1.607235    1.494737
    124          1           0      -11.083406   -1.277893    0.022504
    125          1           0      -12.710713   -1.846365    1.944079
    126          1           0      -11.456125   -1.523381    3.123883
    127          1           0      -11.303241   -2.882676    1.981737
    128          1           0      -11.205370    1.388381    0.955713
    129          1           0      -12.345835    0.487033    1.910399
    130          1           0      -12.100804    0.052234   -1.138690
    131          1           0      -12.235678    1.680873   -0.591763
    132          1           0      -14.098969   -0.354346    0.740695
    133          1           0      -14.316735   -0.286941   -1.017906
    134          1           0      -14.247902    2.469490    0.090484
    135          1           0      -15.341276    2.310431    2.008476
    136          1           0      -15.425431    0.628718    2.006943
    137          1           0      -16.734294    1.529029    1.282345
    138          1           0      -16.052108    2.902920   -1.360961
    139          1           0      -16.813498    1.366318   -0.999786
    140          1           0      -15.282676    1.506102   -2.080450
 ---------------------------------------------------------------------

 SCF Done:  E(RB-LYP) =  -3007.35912992     A.U. after   22 cycles

 Excitation energies and oscillator strengths:

 Excited State   1:      Singlet-A      1.7125 eV  723.99 nm  f=0.0012  <S**2>=0.000
     244 -> 247        0.70464
 This state for optimization and/or second-order correction.
 Total Energy, E(TD-HF/TD-DFT) =  -3007.29619609
 Copying the excited state density for this state as the 1-particle RhoCI density.

 Excited State   2:      Singlet-A      1.7578 eV  705.33 nm  f=0.0006  <S**2>=0.000
     243 -> 247        0.70334

 Excited State   3:      Singlet-A      1.8071 eV  686.09 nm  f=0.2653  <S**2>=0.000
     245 -> 248        0.18662
     246 -> 247        0.68069
     246 <- 247       -0.14572

 Excited State   4:      Singlet-A      1.9685 eV  629.83 nm  f=0.0378  <S**2>=0.000
     242 -> 247        0.59410
     245 -> 247        0.35191
     246 -> 248       -0.11561

 Excited State   5:      Singlet-A      1.9911 eV  622.70 nm  f=0.0928  <S**2>=0.000
     242 -> 247       -0.38293
     245 -> 247        0.53665
     246 -> 248       -0.19199

 The electronic state is 1-A.
 Alpha  occ. eigenvalues --  -46.28872 -18.82727 -18.82303 -18.76805 -18.76531
 Alpha  occ. eigenvalues --  -18.75695 -18.75599 -14.04462 -14.03311 -14.01672
 Alpha  occ. eigenvalues --  -14.01500 -10.04138 -10.03772  -9.99851  -9.99286
 Alpha  occ. eigenvalues --   -9.98669  -9.98161  -9.97588  -9.97366  -9.97234
 Alpha  occ. eigenvalues --   -9.97078  -9.96766  -9.96370  -9.95755  -9.95202
 Alpha  occ. eigenvalues --   -9.95144  -9.94752  -9.94714  -9.94680  -9.94383
 Alpha  occ. eigenvalues --   -9.94317  -9.94250  -9.93851  -9.93796  -9.93790
 Alpha  occ. eigenvalues --   -9.93726  -9.93510  -9.93438  -9.93401  -9.93151
 Alpha  occ. eigenvalues --   -9.93097  -9.92784  -9.92763  -9.92737  -9.92686
 Alpha  occ. eigenvalues --   -9.92543  -9.92460  -9.92417  -9.92214  -9.92104
 Alpha  occ. eigenvalues --   -9.91803  -9.91664  -9.91613  -9.91312  -9.91296
 Alpha  occ. eigenvalues --   -9.91095  -9.91077  -9.91015  -9.90975  -9.90901
 Alpha  occ. eigenvalues --   -9.90791  -9.90786  -9.90640  -9.90489  -9.90362
 Alpha  occ. eigenvalues --   -9.90357  -2.93193  -1.73640  -1.73062  -1.72911
 Alpha  occ. eigenvalues --   -0.97705  -0.97121  -0.91779  -0.91458  -0.89646
 Alpha  occ. eigenvalues --   -0.88869  -0.87426  -0.86546  -0.84853  -0.84134
 Alpha  occ. eigenvalues --   -0.75681  -0.73629  -0.73316  -0.72713  -0.72682
 Alpha  occ. eigenvalues --   -0.71699  -0.71491  -0.71149  -0.70909  -0.70224
 Alpha  occ. eigenvalues --   -0.69274  -0.68936  -0.67844  -0.67824  -0.67255
 Alpha  occ. eigenvalues --   -0.66358  -0.65843  -0.65256  -0.65159  -0.64785
 Alpha  occ. eigenvalues --   -0.64168  -0.62856  -0.62280  -0.61500  -0.61022
 Alpha  occ. eigenvalues --   -0.60452  -0.60325  -0.59723  -0.59290  -0.58709
 Alpha  occ. eigenvalues --   -0.58549  -0.58010  -0.57396  -0.55618  -0.54850
 Alpha  occ. eigenvalues --   -0.54434  -0.53942  -0.53096  -0.52407  -0.51713
 Alpha  occ. eigenvalues --   -0.51466  -0.51142  -0.50966  -0.50557  -0.50082
 Alpha  occ. eigenvalues --   -0.49795  -0.49402  -0.48914  -0.48740  -0.46689
 Alpha  occ. eigenvalues --   -0.46352  -0.46255  -0.46080  -0.45788  -0.44457
 Alpha  occ. eigenvalues --   -0.43673  -0.43503  -0.43062  -0.42752  -0.42439
 Alpha  occ. eigenvalues --   -0.42187  -0.41902  -0.41454  -0.41373  -0.41104
 Alpha  occ. eigenvalues --   -0.40829  -0.40606  -0.40509  -0.40285  -0.39980
 Alpha  occ. eigenvalues --   -0.39869  -0.39589  -0.39410  -0.39220  -0.38960
 Alpha  occ. eigenvalues --   -0.38862  -0.38838  -0.38689  -0.38410  -0.38233
 Alpha  occ. eigenvalues --   -0.38091  -0.37827  -0.37517  -0.37199  -0.37137
 Alpha  occ. eigenvalues --   -0.36921  -0.36705  -0.36528  -0.36432  -0.36323
 Alpha  occ. eigenvalues --   -0.36194  -0.36046  -0.35903  -0.35874  -0.35486
 Alpha  occ. eigenvalues --   -0.35433  -0.35194  -0.35092  -0.34926  -0.34758
 Alpha  occ. eigenvalues --   -0.34745  -0.34603  -0.34507  -0.34142  -0.34018
 Alpha  occ. eigenvalues --   -0.33893  -0.33698  -0.33511  -0.33379  -0.33302
 Alpha  occ. eigenvalues --   -0.33192  -0.33038  -0.32954  -0.32911  -0.32543
 Alpha  occ. eigenvalues --   -0.32491  -0.32317  -0.32047  -0.31944  -0.31642
 Alpha  occ. eigenvalues --   -0.31397  -0.31332  -0.31218  -0.31133  -0.30934
 Alpha  occ. eigenvalues --   -0.30553  -0.30447  -0.30353  -0.30119  -0.29890
 Alpha  occ. eigenvalues --   -0.29720  -0.29583  -0.29323  -0.29225  -0.29043
 Alpha  occ. eigenvalues --   -0.28781  -0.28707  -0.28546  -0.28349  -0.27889
 Alpha  occ. eigenvalues --   -0.27640  -0.27541  -0.27095  -0.27060  -0.26591
 Alpha  occ. eigenvalues --   -0.26274  -0.26161  -0.25588  -0.25524  -0.25314
 Alpha  occ. eigenvalues --   -0.25135  -0.24514  -0.24014  -0.23647  -0.23212
 Alpha  occ. eigenvalues --   -0.22850  -0.22187  -0.21964  -0.21523  -0.21236
 Alpha  occ. eigenvalues --   -0.20135  -0.19767  -0.18867  -0.18733  -0.17947
 Alpha  occ. eigenvalues --   -0.16809
 Alpha virt. eigenvalues --   -0.12510  -0.07577  -0.06414  -0.04858  -0.02989
 Alpha virt. eigenvalues --   -0.02787  -0.02684  -0.02578  -0.02118  -0.00586
 Alpha virt. eigenvalues --    0.00573   0.01131   0.02388   0.02502   0.02976

 Mulliken charges:
               1
     1  Mg   0.668487
     2  C    0.098392
     3  C   -0.024629
     4  C   -0.027548
     5  C   -0.043446
     6  N   -0.231737
     7  C   -0.102669
     8  C    0.032327
     9  C   -0.035210
    10  C    0.046815
    11  C    0.137160
    12  C    0.136962
    13  C    0.120240
    14  C    0.056606
    15  O   -0.205099
    16  O   -0.266555
    17  N   -0.287395
    18  C    0.105288
    19  C   -0.143171
    20  C   -0.017567
    21  C    0.114364
    22  C    0.201506
    23  C   -0.042603
    24  O   -0.170836
    25  C    0.100624
    26  N   -0.196096
    27  C    0.061974
    28  C   -0.018583
    29  C    0.043135
    30  C   -0.023936
    31  C    0.105781
    32  C    0.092600
    33  C    0.062878
    34  N   -0.241008
    35  C    0.106601
    36  C   -0.165513
    37  C    0.115517
    38  C    0.000755
    39  C    0.174392
    40  C   -0.108171
    41  O   -0.121238
    42  C    0.090386
    43  C    0.095792
    44  O   -0.174947
    45  O   -0.295081
    46  C    0.213386
    47  C    0.293616
    48  C   -0.061725
    49  C   -0.159488
    50  C    0.147756
    51  C    0.133506
    52  C    0.090001
    53  C    0.041871
    54  C   -0.088119
    55  C    0.125918
    56  C    0.085431
    57  C    0.065593
    58  C    0.076661
    59  C   -0.022966
    60  C    0.116957
    61  C    0.053955
    62  C    0.022046
    63  C    0.157114
    64  C   -0.079461
    65  C    0.082396
    66  C    0.088185
    67  H   -0.073825
    68  H   -0.077421
    69  H   -0.061926
    70  H   -0.021906
    71  H   -0.018791
    72  H   -0.001746
    73  H    0.000966
    74  H   -0.001626
    75  H   -0.017103
    76  H   -0.013906
    77  H    0.022426
    78  H   -0.002899
    79  H    0.006562
    80  H    0.003560
    81  H    0.009629
    82  H    0.016861
    83  H    0.004354
    84  H   -0.016211
    85  H   -0.004958
    86  H   -0.028463
    87  H   -0.010544
    88  H   -0.004551
    89  H   -0.016171
    90  H   -0.010328
    91  H   -0.023555
    92  H   -0.009789
    93  H   -0.005771
    94  H   -0.004647
    95  H    0.011802
    96  H    0.001198
    97  H   -0.000703
    98  H   -0.004727
    99  H    0.029451
   100  H    0.011882
   101  H    0.014900
   102  H    0.000436
   103  H    0.009583
   104  H   -0.032214
   105  H   -0.017790
   106  H   -0.002446
   107  H   -0.006794
   108  H   -0.022386
   109  H   -0.030937
   110  H   -0.020910
   111  H   -0.036426
   112  H   -0.039180
   113  H   -0.039719
   114  H   -0.018567
   115  H   -0.014750
   116  H   -0.023670
   117  H   -0.012356
   118  H   -0.047916
   119  H   -0.015143
   120  H   -0.026676
   121  H   -0.029216
   122  H   -0.024921
   123  H   -0.045478
   124  H   -0.038149
   125  H   -0.026343
   126  H   -0.011464
   127  H   -0.014376
   128  H   -0.041561
   129  H   -0.038731
   130  H   -0.030959
   131  H   -0.029854
   132  H   -0.017143
   133  H   -0.040675
   134  H   -0.025189
   135  H   -0.025251
   136  H   -0.022380
   137  H   -0.019893
   138  H   -0.017507
   139  H   -0.003475
   140  H   -0.009774
 Sum of Mulliken charges =  -0.00000

 Dipole moment (field-independent basis, Debye):
    X=              2.7098    Y=              3.5688    Z=              1.8665  Tot=              4.8542
 Quadrupole moment (field-independent basis, Debye-Ang):
   XX=           -366.2096   YY=           -466.3143   ZZ=           -386.6513
   XY=             -1.1517   XZ=              4.0448   YZ=             23.3881

 Normal termination of Gaussian 16 at Fri Apr 29 11:44:31 2022.
