 Gaussian 16, Revision A.03,
 Gaussian 16:  ES64L-G16RevA.03 25-Dec-2016

 -----------------------------------
 #p cam-b3lyp/Def2SVP td=(nstates=5)
 -----------------------------------

 ------------------------------------------------------
 step_251_chromophore_5 TDDFT with cam-b3lyp functional
 ------------------------------------------------------
 Symbolic Z-matrix:
 Charge =  0 Multiplicity = 1

                         Standard orientation:
 ---------------------------------------------------------------------
 Center     Atomic      Atomic             Coordinates (Angstroms)
 Number     Number       Type             X           Y           Z
 ---------------------------------------------------------------------
      1         12           0        5.283390    0.477002   -0.456820
      2          6           0        3.821227   -2.652990   -0.614231
      3          6           0        2.931310    1.606755   -2.861856
      4          6           0        6.280297    3.715068    0.056280
      5          6           0        7.240533   -0.505342    2.214060
      6          7           0        3.676526   -0.491230   -1.672071
      7          6           0        3.198407   -1.769850   -1.476370
      8          6           0        1.862017   -2.077347   -2.250417
      9          6           0        1.818170   -0.842907   -3.269435
     10          6           0        2.900922    0.193690   -2.632410
     11          6           0        2.082164   -1.098652   -4.802179
     12          6           0        0.640739   -2.155798   -1.403520
     13          6           0       -0.171346   -3.434521   -1.328900
     14          6           0       -1.671591   -3.264888   -1.040375
     15          8           0       -2.571643   -3.981244   -1.525581
     16          8           0       -1.854962   -2.247602   -0.155727
     17          7           0        4.745469    2.399317   -1.365908
     18          6           0        3.780588    2.578935   -2.374930
     19          6           0        3.774151    3.944376   -2.794181
     20          6           0        4.660683    4.634151   -1.820531
     21          6           0        5.286489    3.588105   -0.953738
     22          6           0        2.803050    4.521272   -3.829497
     23          6           0        4.832914    6.163020   -1.839885
     24          8           0        4.279551    6.964142   -2.587626
     25          6           0        5.478986    6.784359   -0.652520
     26          7           0        6.498112    1.549133    1.113153
     27          6           0        6.868820    2.825837    0.945094
     28          6           0        7.569376    3.247819    2.235791
     29          6           0        7.997486    1.884983    2.956076
     30          6           0        7.215952    0.855889    2.023301
     31          6           0        8.867185    4.060386    1.889672
     32          6           0        7.666525    1.666288    4.489430
     33          6           0        8.785702    1.555207    5.513988
     34          7           0        5.572549   -1.284012    0.578999
     35          6           0        6.440441   -1.561656    1.639731
     36          6           0        6.260263   -2.912461    2.076290
     37          6           0        5.226492   -3.419231    1.229491
     38          6           0        4.899353   -2.353121    0.303721
     39          6           0        6.961122   -3.636597    3.182253
     40          6           0        4.451410   -4.534424    0.870609
     41          8           0        4.463445   -5.643935    1.365019
     42          6           0        3.459146   -4.078519   -0.268280
     43          6           0        3.450811   -5.105673   -1.321630
     44          8           0        2.532466   -5.902583   -1.477208
     45          8           0        4.621997   -5.041060   -2.061661
     46          6           0        4.699795   -6.079075   -3.114034
     47          6           0       -3.197319   -2.102252    0.423450
     48          6           0       -3.474989   -0.700433    1.037212
     49          6           0       -4.314862   -0.332354    2.076091
     50          6           0       -5.345097   -1.220156    2.682106
     51          6           0       -4.307043    1.126509    2.591675
     52          6           0       -4.893288    2.125841    1.579589
     53          6           0       -6.437112    1.955462    1.375385
     54          6           0       -6.858950    1.577440   -0.077965
     55          6           0       -6.543079    2.746918   -0.994051
     56          6           0       -8.434842    1.295996   -0.080462
     57          6           0       -8.851810   -0.149066   -0.182621
     58          6           0       -9.513339   -0.639602    1.245148
     59          6           0      -11.030410   -0.879063    1.035200
     60          6           0      -11.631320   -1.850451    2.098741
     61          6           0      -11.769149    0.455834    0.986208
     62          6           0      -12.574186    0.669147   -0.374206
     63          6           0      -14.028338    0.286937   -0.137321
     64          6           0      -14.861297    1.570251    0.023067
     65          6           0      -15.648896    1.483548    1.368622
     66          6           0      -15.855967    1.840533   -1.215958
     67          1           0        2.290249    2.057656   -3.621671
     68          1           0        6.603107    4.758003    0.092916
     69          1           0        7.835763   -0.784549    3.085811
     70          1           0        1.973693   -3.005728   -2.809461
     71          1           0        0.851907   -0.358601   -3.123926
     72          1           0        2.030301   -2.175998   -4.959143
     73          1           0        3.031931   -0.710755   -5.170629
     74          1           0        1.309118   -0.560851   -5.349792
     75          1           0       -0.061096   -1.426621   -1.811076
     76          1           0        0.894089   -1.941791   -0.365751
     77          1           0        0.199558   -4.011863   -0.482521
     78          1           0       -0.149061   -4.014775   -2.251066
     79          1           0        2.015416    3.910970   -4.270819
     80          1           0        3.486116    4.936576   -4.570061
     81          1           0        2.447620    5.433494   -3.351374
     82          1           0        6.559758    6.918048   -0.634668
     83          1           0        5.145586    6.332637    0.281890
     84          1           0        5.125599    7.815859   -0.627787
     85          1           0        6.931787    3.844743    2.888311
     86          1           0        9.047526    1.670891    2.759968
     87          1           0        8.833836    4.972201    2.485963
     88          1           0        8.999164    4.309200    0.835933
     89          1           0        9.786278    3.523786    2.126226
     90          1           0        7.069914    0.754374    4.498541
     91          1           0        7.106075    2.554187    4.785331
     92          1           0        8.351985    0.998846    6.345305
     93          1           0        9.030841    2.553318    5.877670
     94          1           0        9.708681    1.035067    5.259923
     95          1           0        6.543136   -4.643578    3.190177
     96          1           0        6.788549   -3.071059    4.097440
     97          1           0        8.038120   -3.748226    3.055598
     98          1           0        2.483881   -4.105499    0.218928
     99          1           0        5.172236   -6.978298   -2.718829
    100          1           0        5.206441   -5.609538   -3.957183
    101          1           0        3.715127   -6.336395   -3.503275
    102          1           0       -3.280548   -2.938796    1.117609
    103          1           0       -3.969638   -2.342867   -0.307011
    104          1           0       -2.779638    0.106344    0.807116
    105          1           0       -5.369398   -2.215057    2.236655
    106          1           0       -6.321344   -0.746023    2.588355
    107          1           0       -5.228548   -1.400009    3.751328
    108          1           0       -3.268730    1.389888    2.791594
    109          1           0       -4.869227    1.273993    3.514617
    110          1           0       -4.365944    2.170009    0.626225
    111          1           0       -4.764573    3.112943    2.023679
    112          1           0       -6.979773    2.865420    1.630556
    113          1           0       -6.830232    1.174395    2.027235
    114          1           0       -6.213355    0.701720   -0.143975
    115          1           0       -7.396628    3.190490   -1.507064
    116          1           0       -5.961508    2.288257   -1.794390
    117          1           0       -5.903643    3.518535   -0.566084
    118          1           0       -8.863140    1.765453   -0.965925
    119          1           0       -8.890137    1.809558    0.766638
    120          1           0       -8.015877   -0.796515   -0.449918
    121          1           0       -9.547594   -0.149450   -1.021900
    122          1           0       -9.157267    0.040300    2.019564
    123          1           0       -9.078326   -1.607235    1.494737
    124          1           0      -11.083406   -1.277893    0.022504
    125          1           0      -12.710713   -1.846365    1.944079
    126          1           0      -11.456125   -1.523381    3.123883
    127          1           0      -11.303241   -2.882676    1.981737
    128          1           0      -11.205370    1.388381    0.955713
    129          1           0      -12.345835    0.487033    1.910399
    130          1           0      -12.100804    0.052234   -1.138690
    131          1           0      -12.235678    1.680873   -0.591763
    132          1           0      -14.098969   -0.354346    0.740695
    133          1           0      -14.316735   -0.286941   -1.017906
    134          1           0      -14.247902    2.469490    0.090484
    135          1           0      -15.341276    2.310431    2.008476
    136          1           0      -15.425431    0.628718    2.006943
    137          1           0      -16.734294    1.529029    1.282345
    138          1           0      -16.052108    2.902920   -1.360961
    139          1           0      -16.813498    1.366318   -0.999786
    140          1           0      -15.282676    1.506102   -2.080450
 ---------------------------------------------------------------------

 SCF Done:  E(RCAM-B3LYP) =  -3007.13712568     A.U. after   19 cycles

 Excitation energies and oscillator strengths:

 Excited State   1:      Singlet-A      1.7131 eV  723.75 nm  f=0.3711  <S**2>=0.000
     245 -> 248        0.17428
     246 -> 247        0.68637
     245 <- 248        0.10491
 This state for optimization and/or second-order correction.
 Total Energy, E(TD-HF/TD-DFT) =  -3007.07417070
 Copying the excited state density for this state as the 1-particle RhoCI density.

 Excited State   2:      Singlet-A      2.1719 eV  570.85 nm  f=0.1592  <S**2>=0.000
     245 -> 247        0.65197
     246 -> 248       -0.25355

 Excited State   3:      Singlet-A      3.0425 eV  407.51 nm  f=0.0087  <S**2>=0.000
     243 -> 247        0.68938

 Excited State   4:      Singlet-A      3.3795 eV  366.87 nm  f=0.0001  <S**2>=0.000
     241 -> 247        0.52712
     241 -> 249       -0.21193
     241 -> 250       -0.19479
     242 -> 247        0.32933

 Excited State   5:      Singlet-A      3.4487 eV  359.51 nm  f=0.0001  <S**2>=0.000
     240 -> 247        0.54957
     240 -> 248       -0.14477
     240 -> 249        0.29046
     240 -> 250       -0.15674
     241 -> 247        0.12842
     242 -> 247       -0.14378

 The electronic state is 1-A.
 Alpha  occ. eigenvalues --  -46.90555 -19.25591 -19.25165 -19.19895 -19.19446
 Alpha  occ. eigenvalues --  -19.19181 -19.18380 -14.43562 -14.42066 -14.40121
 Alpha  occ. eigenvalues --  -14.39947 -10.39458 -10.39190 -10.35345 -10.34273
 Alpha  occ. eigenvalues --  -10.33187 -10.32758 -10.32148 -10.31758 -10.31749
 Alpha  occ. eigenvalues --  -10.31512 -10.30897 -10.30493 -10.30198 -10.29906
 Alpha  occ. eigenvalues --  -10.29514 -10.29171 -10.28810 -10.28744 -10.28589
 Alpha  occ. eigenvalues --  -10.28518 -10.28362 -10.28336 -10.28267 -10.28017
 Alpha  occ. eigenvalues --  -10.27980 -10.27535 -10.27406 -10.27101 -10.27054
 Alpha  occ. eigenvalues --  -10.27009 -10.26892 -10.26829 -10.26563 -10.26292
 Alpha  occ. eigenvalues --  -10.26243 -10.26116 -10.25967 -10.25868 -10.25844
 Alpha  occ. eigenvalues --  -10.25518 -10.25486 -10.25385 -10.25361 -10.24985
 Alpha  occ. eigenvalues --  -10.24853 -10.24698 -10.24687 -10.24638 -10.24631
 Alpha  occ. eigenvalues --  -10.24463 -10.24415 -10.24345 -10.24071 -10.24034
 Alpha  occ. eigenvalues --  -10.23954  -3.18766  -1.93694  -1.93197  -1.93068
 Alpha  occ. eigenvalues --   -1.16081  -1.15587  -1.10128  -1.09848  -1.07537
 Alpha  occ. eigenvalues --   -1.06695  -1.04893  -1.04130  -1.02647  -1.01815
 Alpha  occ. eigenvalues --   -0.92681  -0.90515  -0.90175  -0.89548  -0.89484
 Alpha  occ. eigenvalues --   -0.88266  -0.88168  -0.87769  -0.87258  -0.86767
 Alpha  occ. eigenvalues --   -0.85914  -0.85507  -0.84116  -0.83909  -0.83472
 Alpha  occ. eigenvalues --   -0.82477  -0.81966  -0.81339  -0.80911  -0.80620
 Alpha  occ. eigenvalues --   -0.79972  -0.78454  -0.77781  -0.77212  -0.76516
 Alpha  occ. eigenvalues --   -0.75810  -0.75635  -0.75049  -0.74570  -0.73825
 Alpha  occ. eigenvalues --   -0.73699  -0.73014  -0.72355  -0.70517  -0.69412
 Alpha  occ. eigenvalues --   -0.68906  -0.68525  -0.67690  -0.66829  -0.65709
 Alpha  occ. eigenvalues --   -0.65611  -0.65334  -0.65047  -0.64705  -0.63860
 Alpha  occ. eigenvalues --   -0.63837  -0.63064  -0.62868  -0.62667  -0.60328
 Alpha  occ. eigenvalues --   -0.59843  -0.59711  -0.59597  -0.59215  -0.57869
 Alpha  occ. eigenvalues --   -0.57103  -0.56661  -0.56399  -0.55958  -0.55698
 Alpha  occ. eigenvalues --   -0.55419  -0.54855  -0.54565  -0.54166  -0.53903
 Alpha  occ. eigenvalues --   -0.53563  -0.53342  -0.53180  -0.52890  -0.52857
 Alpha  occ. eigenvalues --   -0.52642  -0.52278  -0.52016  -0.51932  -0.51857
 Alpha  occ. eigenvalues --   -0.51624  -0.51394  -0.51044  -0.50961  -0.50554
 Alpha  occ. eigenvalues --   -0.50398  -0.50094  -0.49914  -0.49811  -0.49373
 Alpha  occ. eigenvalues --   -0.49305  -0.49194  -0.48936  -0.48725  -0.48571
 Alpha  occ. eigenvalues --   -0.48512  -0.48270  -0.48072  -0.47860  -0.47815
 Alpha  occ. eigenvalues --   -0.47392  -0.47191  -0.47078  -0.46959  -0.46715
 Alpha  occ. eigenvalues --   -0.46626  -0.46509  -0.46395  -0.46023  -0.45905
 Alpha  occ. eigenvalues --   -0.45817  -0.45392  -0.45267  -0.45247  -0.45006
 Alpha  occ. eigenvalues --   -0.44934  -0.44680  -0.44602  -0.44497  -0.44322
 Alpha  occ. eigenvalues --   -0.44076  -0.43833  -0.43618  -0.43572  -0.43150
 Alpha  occ. eigenvalues --   -0.42971  -0.42883  -0.42656  -0.42503  -0.42410
 Alpha  occ. eigenvalues --   -0.42238  -0.41915  -0.41716  -0.41619  -0.41460
 Alpha  occ. eigenvalues --   -0.41324  -0.40682  -0.40554  -0.40375  -0.40052
 Alpha  occ. eigenvalues --   -0.39853  -0.39809  -0.39550  -0.39473  -0.38820
 Alpha  occ. eigenvalues --   -0.38528  -0.38405  -0.37862  -0.37771  -0.37482
 Alpha  occ. eigenvalues --   -0.37429  -0.36842  -0.36826  -0.36726  -0.36346
 Alpha  occ. eigenvalues --   -0.36207  -0.34609  -0.34517  -0.34455  -0.34026
 Alpha  occ. eigenvalues --   -0.33647  -0.33389  -0.32484  -0.31834  -0.31290
 Alpha  occ. eigenvalues --   -0.30605  -0.30262  -0.29650  -0.29353  -0.24690
 Alpha  occ. eigenvalues --   -0.22226
 Alpha virt. eigenvalues --   -0.09797  -0.02413  -0.00047   0.02155   0.02280
 Alpha virt. eigenvalues --    0.04445   0.04496   0.05140   0.05297   0.06112
 Alpha virt. eigenvalues --    0.07182   0.08399   0.08613   0.08926   0.09091

 Mulliken charges:
               1
     1  Mg   0.797314
     2  C    0.071971
     3  C   -0.042915
     4  C   -0.054849
     5  C   -0.052305
     6  N   -0.300058
     7  C   -0.057623
     8  C   -0.016817
     9  C   -0.078949
    10  C    0.066727
    11  C    0.079394
    12  C    0.081150
    13  C    0.052073
    14  C    0.142465
    15  O   -0.249014
    16  O   -0.330933
    17  N   -0.374649
    18  C    0.119190
    19  C   -0.139214
    20  C   -0.092453
    21  C    0.150543
    22  C    0.136685
    23  C    0.043217
    24  O   -0.209230
    25  C    0.005521
    26  N   -0.267878
    27  C    0.091664
    28  C   -0.078169
    29  C   -0.006882
    30  C   -0.004293
    31  C    0.049013
    32  C    0.036089
    33  C    0.003138
    34  N   -0.332579
    35  C    0.107755
    36  C   -0.158875
    37  C    0.031434
    38  C    0.039612
    39  C    0.122477
    40  C   -0.007819
    41  O   -0.164365
    42  C    0.007480
    43  C    0.182684
    44  O   -0.214113
    45  O   -0.355805
    46  C    0.174021
    47  C    0.265912
    48  C   -0.087529
    49  C   -0.183714
    50  C    0.090131
    51  C    0.075046
    52  C    0.033249
    53  C   -0.002846
    54  C   -0.134205
    55  C    0.059924
    56  C    0.033692
    57  C    0.012901
    58  C    0.027451
    59  C   -0.080139
    60  C    0.060463
    61  C    0.002191
    62  C   -0.030688
    63  C    0.099018
    64  C   -0.137932
    65  C    0.024067
    66  C    0.035207
    67  H   -0.038052
    68  H   -0.042406
    69  H   -0.028544
    70  H    0.011298
    71  H    0.016088
    72  H    0.022460
    73  H    0.026748
    74  H    0.022047
    75  H    0.013065
    76  H    0.019571
    77  H    0.051038
    78  H    0.029985
    79  H    0.034493
    80  H    0.033372
    81  H    0.040462
    82  H    0.046019
    83  H    0.034480
    84  H    0.021625
    85  H    0.028566
    86  H    0.005552
    87  H    0.013830
    88  H    0.019700
    89  H    0.009913
    90  H    0.018809
    91  H    0.003530
    92  H    0.014533
    93  H    0.015986
    94  H    0.017505
    95  H    0.039076
    96  H    0.023754
    97  H    0.024257
    98  H    0.035323
    99  H    0.051468
   100  H    0.034362
   101  H    0.039821
   102  H    0.027123
   103  H    0.039664
   104  H    0.000925
   105  H    0.006500
   106  H    0.015776
   107  H    0.019607
   108  H    0.009671
   109  H    0.000571
   110  H    0.005704
   111  H   -0.005247
   112  H   -0.009628
   113  H   -0.017841
   114  H    0.008572
   115  H    0.010888
   116  H    0.001615
   117  H    0.011329
   118  H   -0.018000
   119  H    0.009056
   120  H    0.002318
   121  H   -0.003272
   122  H   -0.000421
   123  H   -0.015830
   124  H   -0.005755
   125  H   -0.003711
   126  H    0.011866
   127  H    0.010875
   128  H   -0.012990
   129  H   -0.010579
   130  H   -0.004074
   131  H   -0.002057
   132  H    0.006261
   133  H   -0.009441
   134  H    0.005832
   135  H   -0.001006
   136  H    0.001148
   137  H    0.004151
   138  H    0.006566
   139  H    0.018027
   140  H    0.012046
 Sum of Mulliken charges =  -0.00000

 Dipole moment (field-independent basis, Debye):
    X=              2.6985    Y=              4.6352    Z=              1.4513  Tot=              5.5564
 Quadrupole moment (field-independent basis, Debye-Ang):
   XX=           -366.3836   YY=           -464.1912   ZZ=           -384.4213
   XY=              3.7569   XZ=              2.2885   YZ=             23.9567

 Normal termination of Gaussian 16 at Fri Apr 29 10:45:49 2022.
