 Gaussian 16, Revision A.03,
 Gaussian 16:  ES64L-G16RevA.03 25-Dec-2016

 ---------------------------------
 #p PBE1PBE/Def2SVP td=(nstates=5)
 ---------------------------------

 ----------------------------------------------------
 step_251_chromophore_5 TDDFT with PBE1PBE functional
 ----------------------------------------------------
 Symbolic Z-matrix:
 Charge =  0 Multiplicity = 1

                         Standard orientation:
 ---------------------------------------------------------------------
 Center     Atomic      Atomic             Coordinates (Angstroms)
 Number     Number       Type             X           Y           Z
 ---------------------------------------------------------------------
      1         12           0        5.283390    0.477002   -0.456820
      2          6           0        3.821227   -2.652990   -0.614231
      3          6           0        2.931310    1.606755   -2.861856
      4          6           0        6.280297    3.715068    0.056280
      5          6           0        7.240533   -0.505342    2.214060
      6          7           0        3.676526   -0.491230   -1.672071
      7          6           0        3.198407   -1.769850   -1.476370
      8          6           0        1.862017   -2.077347   -2.250417
      9          6           0        1.818170   -0.842907   -3.269435
     10          6           0        2.900922    0.193690   -2.632410
     11          6           0        2.082164   -1.098652   -4.802179
     12          6           0        0.640739   -2.155798   -1.403520
     13          6           0       -0.171346   -3.434521   -1.328900
     14          6           0       -1.671591   -3.264888   -1.040375
     15          8           0       -2.571643   -3.981244   -1.525581
     16          8           0       -1.854962   -2.247602   -0.155727
     17          7           0        4.745469    2.399317   -1.365908
     18          6           0        3.780588    2.578935   -2.374930
     19          6           0        3.774151    3.944376   -2.794181
     20          6           0        4.660683    4.634151   -1.820531
     21          6           0        5.286489    3.588105   -0.953738
     22          6           0        2.803050    4.521272   -3.829497
     23          6           0        4.832914    6.163020   -1.839885
     24          8           0        4.279551    6.964142   -2.587626
     25          6           0        5.478986    6.784359   -0.652520
     26          7           0        6.498112    1.549133    1.113153
     27          6           0        6.868820    2.825837    0.945094
     28          6           0        7.569376    3.247819    2.235791
     29          6           0        7.997486    1.884983    2.956076
     30          6           0        7.215952    0.855889    2.023301
     31          6           0        8.867185    4.060386    1.889672
     32          6           0        7.666525    1.666288    4.489430
     33          6           0        8.785702    1.555207    5.513988
     34          7           0        5.572549   -1.284012    0.578999
     35          6           0        6.440441   -1.561656    1.639731
     36          6           0        6.260263   -2.912461    2.076290
     37          6           0        5.226492   -3.419231    1.229491
     38          6           0        4.899353   -2.353121    0.303721
     39          6           0        6.961122   -3.636597    3.182253
     40          6           0        4.451410   -4.534424    0.870609
     41          8           0        4.463445   -5.643935    1.365019
     42          6           0        3.459146   -4.078519   -0.268280
     43          6           0        3.450811   -5.105673   -1.321630
     44          8           0        2.532466   -5.902583   -1.477208
     45          8           0        4.621997   -5.041060   -2.061661
     46          6           0        4.699795   -6.079075   -3.114034
     47          6           0       -3.197319   -2.102252    0.423450
     48          6           0       -3.474989   -0.700433    1.037212
     49          6           0       -4.314862   -0.332354    2.076091
     50          6           0       -5.345097   -1.220156    2.682106
     51          6           0       -4.307043    1.126509    2.591675
     52          6           0       -4.893288    2.125841    1.579589
     53          6           0       -6.437112    1.955462    1.375385
     54          6           0       -6.858950    1.577440   -0.077965
     55          6           0       -6.543079    2.746918   -0.994051
     56          6           0       -8.434842    1.295996   -0.080462
     57          6           0       -8.851810   -0.149066   -0.182621
     58          6           0       -9.513339   -0.639602    1.245148
     59          6           0      -11.030410   -0.879063    1.035200
     60          6           0      -11.631320   -1.850451    2.098741
     61          6           0      -11.769149    0.455834    0.986208
     62          6           0      -12.574186    0.669147   -0.374206
     63          6           0      -14.028338    0.286937   -0.137321
     64          6           0      -14.861297    1.570251    0.023067
     65          6           0      -15.648896    1.483548    1.368622
     66          6           0      -15.855967    1.840533   -1.215958
     67          1           0        2.290249    2.057656   -3.621671
     68          1           0        6.603107    4.758003    0.092916
     69          1           0        7.835763   -0.784549    3.085811
     70          1           0        1.973693   -3.005728   -2.809461
     71          1           0        0.851907   -0.358601   -3.123926
     72          1           0        2.030301   -2.175998   -4.959143
     73          1           0        3.031931   -0.710755   -5.170629
     74          1           0        1.309118   -0.560851   -5.349792
     75          1           0       -0.061096   -1.426621   -1.811076
     76          1           0        0.894089   -1.941791   -0.365751
     77          1           0        0.199558   -4.011863   -0.482521
     78          1           0       -0.149061   -4.014775   -2.251066
     79          1           0        2.015416    3.910970   -4.270819
     80          1           0        3.486116    4.936576   -4.570061
     81          1           0        2.447620    5.433494   -3.351374
     82          1           0        6.559758    6.918048   -0.634668
     83          1           0        5.145586    6.332637    0.281890
     84          1           0        5.125599    7.815859   -0.627787
     85          1           0        6.931787    3.844743    2.888311
     86          1           0        9.047526    1.670891    2.759968
     87          1           0        8.833836    4.972201    2.485963
     88          1           0        8.999164    4.309200    0.835933
     89          1           0        9.786278    3.523786    2.126226
     90          1           0        7.069914    0.754374    4.498541
     91          1           0        7.106075    2.554187    4.785331
     92          1           0        8.351985    0.998846    6.345305
     93          1           0        9.030841    2.553318    5.877670
     94          1           0        9.708681    1.035067    5.259923
     95          1           0        6.543136   -4.643578    3.190177
     96          1           0        6.788549   -3.071059    4.097440
     97          1           0        8.038120   -3.748226    3.055598
     98          1           0        2.483881   -4.105499    0.218928
     99          1           0        5.172236   -6.978298   -2.718829
    100          1           0        5.206441   -5.609538   -3.957183
    101          1           0        3.715127   -6.336395   -3.503275
    102          1           0       -3.280548   -2.938796    1.117609
    103          1           0       -3.969638   -2.342867   -0.307011
    104          1           0       -2.779638    0.106344    0.807116
    105          1           0       -5.369398   -2.215057    2.236655
    106          1           0       -6.321344   -0.746023    2.588355
    107          1           0       -5.228548   -1.400009    3.751328
    108          1           0       -3.268730    1.389888    2.791594
    109          1           0       -4.869227    1.273993    3.514617
    110          1           0       -4.365944    2.170009    0.626225
    111          1           0       -4.764573    3.112943    2.023679
    112          1           0       -6.979773    2.865420    1.630556
    113          1           0       -6.830232    1.174395    2.027235
    114          1           0       -6.213355    0.701720   -0.143975
    115          1           0       -7.396628    3.190490   -1.507064
    116          1           0       -5.961508    2.288257   -1.794390
    117          1           0       -5.903643    3.518535   -0.566084
    118          1           0       -8.863140    1.765453   -0.965925
    119          1           0       -8.890137    1.809558    0.766638
    120          1           0       -8.015877   -0.796515   -0.449918
    121          1           0       -9.547594   -0.149450   -1.021900
    122          1           0       -9.157267    0.040300    2.019564
    123          1           0       -9.078326   -1.607235    1.494737
    124          1           0      -11.083406   -1.277893    0.022504
    125          1           0      -12.710713   -1.846365    1.944079
    126          1           0      -11.456125   -1.523381    3.123883
    127          1           0      -11.303241   -2.882676    1.981737
    128          1           0      -11.205370    1.388381    0.955713
    129          1           0      -12.345835    0.487033    1.910399
    130          1           0      -12.100804    0.052234   -1.138690
    131          1           0      -12.235678    1.680873   -0.591763
    132          1           0      -14.098969   -0.354346    0.740695
    133          1           0      -14.316735   -0.286941   -1.017906
    134          1           0      -14.247902    2.469490    0.090484
    135          1           0      -15.341276    2.310431    2.008476
    136          1           0      -15.425431    0.628718    2.006943
    137          1           0      -16.734294    1.529029    1.282345
    138          1           0      -16.052108    2.902920   -1.360961
    139          1           0      -16.813498    1.366318   -0.999786
    140          1           0      -15.282676    1.506102   -2.080450
 ---------------------------------------------------------------------

 SCF Done:  E(RPBE1PBE) =  -3005.32661874     A.U. after   16 cycles

 Excitation energies and oscillator strengths:

 Excited State   1:      Singlet-A      1.8583 eV  667.19 nm  f=0.3520  <S**2>=0.000
     245 -> 248        0.16998
     246 -> 247        0.69196
     246 <- 247       -0.10667
 This state for optimization and/or second-order correction.
 Total Energy, E(TD-HF/TD-DFT) =  -3005.25832766
 Copying the excited state density for this state as the 1-particle RhoCI density.

 Excited State   2:      Singlet-A      2.1845 eV  567.56 nm  f=0.1531  <S**2>=0.000
     245 -> 247        0.65892
     246 -> 248       -0.23359

 Excited State   3:      Singlet-A      2.7255 eV  454.90 nm  f=0.0122  <S**2>=0.000
     243 -> 247        0.69425

 Excited State   4:      Singlet-A      2.7862 eV  445.00 nm  f=0.0002  <S**2>=0.000
     242 -> 247        0.68405
     242 -> 249       -0.12544

 Excited State   5:      Singlet-A      2.8799 eV  430.51 nm  f=0.0004  <S**2>=0.000
     241 -> 247        0.67874
     241 -> 249        0.13787

 The electronic state is 1-A.
 Alpha  occ. eigenvalues --  -46.93920 -19.26302 -19.25855 -19.20199 -19.19805
 Alpha  occ. eigenvalues --  -19.19215 -19.18857 -14.43016 -14.41607 -14.39692
 Alpha  occ. eigenvalues --  -14.39687 -10.36552 -10.36254 -10.32299 -10.31606
 Alpha  occ. eigenvalues --  -10.30742 -10.30167 -10.29611 -10.29568 -10.29304
 Alpha  occ. eigenvalues --  -10.28827 -10.28760 -10.28265 -10.27868 -10.27291
 Alpha  occ. eigenvalues --  -10.27266 -10.27073 -10.26604 -10.26547 -10.26350
 Alpha  occ. eigenvalues --  -10.26346 -10.26272 -10.26154 -10.25732 -10.25729
 Alpha  occ. eigenvalues --  -10.25619 -10.25195 -10.25179 -10.24799 -10.24572
 Alpha  occ. eigenvalues --  -10.24392 -10.24389 -10.24171 -10.24171 -10.23830
 Alpha  occ. eigenvalues --  -10.23742 -10.23717 -10.23532 -10.23444 -10.23222
 Alpha  occ. eigenvalues --  -10.23072 -10.23070 -10.23051 -10.23021 -10.22688
 Alpha  occ. eigenvalues --  -10.22437 -10.22243 -10.22210 -10.22091 -10.22042
 Alpha  occ. eigenvalues --  -10.22025 -10.21967 -10.21915 -10.21616 -10.21443
 Alpha  occ. eigenvalues --  -10.21349  -3.15721  -1.88588  -1.88070  -1.87944
 Alpha  occ. eigenvalues --   -1.10932  -1.10384  -1.04823  -1.04687  -1.02422
 Alpha  occ. eigenvalues --   -1.01591  -0.99733  -0.98828  -0.97116  -0.96322
 Alpha  occ. eigenvalues --   -0.87125  -0.84667  -0.84314  -0.83819  -0.83553
 Alpha  occ. eigenvalues --   -0.82547  -0.82271  -0.82079  -0.81777  -0.80865
 Alpha  occ. eigenvalues --   -0.80054  -0.79679  -0.78325  -0.78273  -0.77647
 Alpha  occ. eigenvalues --   -0.76737  -0.76085  -0.75516  -0.75289  -0.74870
 Alpha  occ. eigenvalues --   -0.74125  -0.72758  -0.72129  -0.71402  -0.70815
 Alpha  occ. eigenvalues --   -0.70020  -0.69894  -0.69118  -0.68694  -0.68230
 Alpha  occ. eigenvalues --   -0.67933  -0.67308  -0.66789  -0.64809  -0.63799
 Alpha  occ. eigenvalues --   -0.63521  -0.62742  -0.62084  -0.61041  -0.60134
 Alpha  occ. eigenvalues --   -0.60015  -0.59845  -0.59614  -0.58945  -0.58368
 Alpha  occ. eigenvalues --   -0.57964  -0.57645  -0.57005  -0.56812  -0.54877
 Alpha  occ. eigenvalues --   -0.54455  -0.54187  -0.54043  -0.53833  -0.52514
 Alpha  occ. eigenvalues --   -0.51600  -0.51243  -0.50823  -0.50508  -0.50116
 Alpha  occ. eigenvalues --   -0.49979  -0.49370  -0.49178  -0.48579  -0.48524
 Alpha  occ. eigenvalues --   -0.48292  -0.47828  -0.47629  -0.47483  -0.47381
 Alpha  occ. eigenvalues --   -0.47156  -0.46781  -0.46495  -0.46411  -0.46202
 Alpha  occ. eigenvalues --   -0.46180  -0.46002  -0.45730  -0.45503  -0.45077
 Alpha  occ. eigenvalues --   -0.45017  -0.44666  -0.44531  -0.44340  -0.44007
 Alpha  occ. eigenvalues --   -0.43849  -0.43693  -0.43600  -0.43415  -0.43200
 Alpha  occ. eigenvalues --   -0.43035  -0.42890  -0.42701  -0.42434  -0.42368
 Alpha  occ. eigenvalues --   -0.42056  -0.41900  -0.41819  -0.41612  -0.41443
 Alpha  occ. eigenvalues --   -0.41281  -0.41227  -0.41023  -0.40769  -0.40584
 Alpha  occ. eigenvalues --   -0.40466  -0.40122  -0.40026  -0.39983  -0.39682
 Alpha  occ. eigenvalues --   -0.39605  -0.39356  -0.39292  -0.39185  -0.39110
 Alpha  occ. eigenvalues --   -0.38972  -0.38584  -0.38469  -0.38276  -0.37876
 Alpha  occ. eigenvalues --   -0.37796  -0.37660  -0.37433  -0.37292  -0.37186
 Alpha  occ. eigenvalues --   -0.37042  -0.36688  -0.36539  -0.36463  -0.36253
 Alpha  occ. eigenvalues --   -0.36069  -0.35439  -0.35380  -0.35150  -0.35016
 Alpha  occ. eigenvalues --   -0.34779  -0.34621  -0.34437  -0.34260  -0.33605
 Alpha  occ. eigenvalues --   -0.33431  -0.33326  -0.32822  -0.32623  -0.32517
 Alpha  occ. eigenvalues --   -0.32214  -0.31824  -0.31749  -0.31689  -0.31389
 Alpha  occ. eigenvalues --   -0.31019  -0.29852  -0.29500  -0.29402  -0.28992
 Alpha  occ. eigenvalues --   -0.28842  -0.28499  -0.27486  -0.27439  -0.26169
 Alpha  occ. eigenvalues --   -0.25874  -0.25631  -0.25087  -0.24644  -0.21645
 Alpha  occ. eigenvalues --   -0.19829
 Alpha virt. eigenvalues --   -0.12208  -0.05931  -0.04201  -0.02287  -0.00463
 Alpha virt. eigenvalues --    0.00060   0.00283   0.00463   0.00843   0.02264
 Alpha virt. eigenvalues --    0.03220   0.04245   0.05332   0.05385   0.05830

 Mulliken charges:
               1
     1  Mg   0.935846
     2  C    0.060023
     3  C   -0.039967
     4  C   -0.053186
     5  C   -0.050934
     6  N   -0.398428
     7  C    0.019331
     8  C   -0.087098
     9  C   -0.149337
    10  C    0.103156
    11  C    0.021502
    12  C    0.031933
    13  C   -0.026277
    14  C    0.210123
    15  O   -0.282935
    16  O   -0.360215
    17  N   -0.484810
    18  C    0.138395
    19  C   -0.158138
    20  C   -0.145606
    21  C    0.182469
    22  C    0.071644
    23  C    0.098745
    24  O   -0.246803
    25  C   -0.076553
    26  N   -0.367270
    27  C    0.130167
    28  C   -0.165850
    29  C   -0.069330
    30  C    0.034877
    31  C   -0.001776
    32  C   -0.030246
    33  C   -0.067498
    34  N   -0.465517
    35  C    0.132080
    36  C   -0.171236
    37  C   -0.023812
    38  C    0.101366
    39  C    0.069092
    40  C    0.089999
    41  O   -0.209911
    42  C   -0.109468
    43  C    0.271756
    44  O   -0.250759
    45  O   -0.383881
    46  C    0.118944
    47  C    0.232217
    48  C   -0.103257
    49  C   -0.228886
    50  C    0.025675
    51  C    0.008949
    52  C   -0.031224
    53  C   -0.057163
    54  C   -0.220591
    55  C    0.000866
    56  C   -0.020403
    57  C   -0.044700
    58  C   -0.027666
    59  C   -0.168260
    60  C   -0.006663
    61  C   -0.045072
    62  C   -0.095059
    63  C    0.036362
    64  C   -0.223723
    65  C   -0.033092
    66  C   -0.027701
    67  H   -0.004379
    68  H   -0.004902
    69  H    0.004616
    70  H    0.050559
    71  H    0.052308
    72  H    0.048955
    73  H    0.053671
    74  H    0.048757
    75  H    0.047450
    76  H    0.052262
    77  H    0.084998
    78  H    0.061120
    79  H    0.057929
    80  H    0.061821
    81  H    0.068213
    82  H    0.070634
    83  H    0.061212
    84  H    0.050066
    85  H    0.063378
    86  H    0.043055
    87  H    0.041403
    88  H    0.046295
    89  H    0.036263
    90  H    0.050934
    91  H    0.037476
    92  H    0.042849
    93  H    0.044302
    94  H    0.044097
    95  H    0.067380
    96  H    0.052041
    97  H    0.052928
    98  H    0.077589
    99  H    0.073321
   100  H    0.056443
   101  H    0.060768
   102  H    0.053077
   103  H    0.064931
   104  H    0.030884
   105  H    0.033643
   106  H    0.046589
   107  H    0.047525
   108  H    0.042835
   109  H    0.032874
   110  H    0.037233
   111  H    0.028698
   112  H    0.023483
   113  H    0.019735
   114  H    0.047505
   115  H    0.037450
   116  H    0.030350
   117  H    0.038349
   118  H    0.015171
   119  H    0.038740
   120  H    0.034219
   121  H    0.028515
   122  H    0.030978
   123  H    0.017721
   124  H    0.032812
   125  H    0.026800
   126  H    0.039474
   127  H    0.038920
   128  H    0.020747
   129  H    0.023125
   130  H    0.027746
   131  H    0.028768
   132  H    0.040496
   133  H    0.023262
   134  H    0.042627
   135  H    0.026693
   136  H    0.026967
   137  H    0.030704
   138  H    0.034574
   139  H    0.044735
   140  H    0.040019
 Sum of Mulliken charges =  -0.00000

 Dipole moment (field-independent basis, Debye):
    X=              2.8651    Y=              4.2211    Z=              1.8488  Tot=              5.4263
 Quadrupole moment (field-independent basis, Debye-Ang):
   XX=           -361.1792   YY=           -461.6147   ZZ=           -380.7970
   XY=              1.7322   XZ=              5.2686   YZ=             24.3966

 Normal termination of Gaussian 16 at Fri Apr 29 11:00:59 2022.
