 Gaussian 16, Revision A.03,
 Gaussian 16:  ES64L-G16RevA.03 25-Dec-2016

 --------------------------------
 #p wB97XD/Def2SVP td=(nstates=5)
 --------------------------------

 ---------------------------------------------------
 step_251_chromophore_5 TDDFT with wB97XD functional
 ---------------------------------------------------
 Symbolic Z-matrix:
 Charge =  0 Multiplicity = 1

                         Standard orientation:
 ---------------------------------------------------------------------
 Center     Atomic      Atomic             Coordinates (Angstroms)
 Number     Number       Type             X           Y           Z
 ---------------------------------------------------------------------
      1         12           0        5.283390    0.477002   -0.456820
      2          6           0        3.821227   -2.652990   -0.614231
      3          6           0        2.931310    1.606755   -2.861856
      4          6           0        6.280297    3.715068    0.056280
      5          6           0        7.240533   -0.505342    2.214060
      6          7           0        3.676526   -0.491230   -1.672071
      7          6           0        3.198407   -1.769850   -1.476370
      8          6           0        1.862017   -2.077347   -2.250417
      9          6           0        1.818170   -0.842907   -3.269435
     10          6           0        2.900922    0.193690   -2.632410
     11          6           0        2.082164   -1.098652   -4.802179
     12          6           0        0.640739   -2.155798   -1.403520
     13          6           0       -0.171346   -3.434521   -1.328900
     14          6           0       -1.671591   -3.264888   -1.040375
     15          8           0       -2.571643   -3.981244   -1.525581
     16          8           0       -1.854962   -2.247602   -0.155727
     17          7           0        4.745469    2.399317   -1.365908
     18          6           0        3.780588    2.578935   -2.374930
     19          6           0        3.774151    3.944376   -2.794181
     20          6           0        4.660683    4.634151   -1.820531
     21          6           0        5.286489    3.588105   -0.953738
     22          6           0        2.803050    4.521272   -3.829497
     23          6           0        4.832914    6.163020   -1.839885
     24          8           0        4.279551    6.964142   -2.587626
     25          6           0        5.478986    6.784359   -0.652520
     26          7           0        6.498112    1.549133    1.113153
     27          6           0        6.868820    2.825837    0.945094
     28          6           0        7.569376    3.247819    2.235791
     29          6           0        7.997486    1.884983    2.956076
     30          6           0        7.215952    0.855889    2.023301
     31          6           0        8.867185    4.060386    1.889672
     32          6           0        7.666525    1.666288    4.489430
     33          6           0        8.785702    1.555207    5.513988
     34          7           0        5.572549   -1.284012    0.578999
     35          6           0        6.440441   -1.561656    1.639731
     36          6           0        6.260263   -2.912461    2.076290
     37          6           0        5.226492   -3.419231    1.229491
     38          6           0        4.899353   -2.353121    0.303721
     39          6           0        6.961122   -3.636597    3.182253
     40          6           0        4.451410   -4.534424    0.870609
     41          8           0        4.463445   -5.643935    1.365019
     42          6           0        3.459146   -4.078519   -0.268280
     43          6           0        3.450811   -5.105673   -1.321630
     44          8           0        2.532466   -5.902583   -1.477208
     45          8           0        4.621997   -5.041060   -2.061661
     46          6           0        4.699795   -6.079075   -3.114034
     47          6           0       -3.197319   -2.102252    0.423450
     48          6           0       -3.474989   -0.700433    1.037212
     49          6           0       -4.314862   -0.332354    2.076091
     50          6           0       -5.345097   -1.220156    2.682106
     51          6           0       -4.307043    1.126509    2.591675
     52          6           0       -4.893288    2.125841    1.579589
     53          6           0       -6.437112    1.955462    1.375385
     54          6           0       -6.858950    1.577440   -0.077965
     55          6           0       -6.543079    2.746918   -0.994051
     56          6           0       -8.434842    1.295996   -0.080462
     57          6           0       -8.851810   -0.149066   -0.182621
     58          6           0       -9.513339   -0.639602    1.245148
     59          6           0      -11.030410   -0.879063    1.035200
     60          6           0      -11.631320   -1.850451    2.098741
     61          6           0      -11.769149    0.455834    0.986208
     62          6           0      -12.574186    0.669147   -0.374206
     63          6           0      -14.028338    0.286937   -0.137321
     64          6           0      -14.861297    1.570251    0.023067
     65          6           0      -15.648896    1.483548    1.368622
     66          6           0      -15.855967    1.840533   -1.215958
     67          1           0        2.290249    2.057656   -3.621671
     68          1           0        6.603107    4.758003    0.092916
     69          1           0        7.835763   -0.784549    3.085811
     70          1           0        1.973693   -3.005728   -2.809461
     71          1           0        0.851907   -0.358601   -3.123926
     72          1           0        2.030301   -2.175998   -4.959143
     73          1           0        3.031931   -0.710755   -5.170629
     74          1           0        1.309118   -0.560851   -5.349792
     75          1           0       -0.061096   -1.426621   -1.811076
     76          1           0        0.894089   -1.941791   -0.365751
     77          1           0        0.199558   -4.011863   -0.482521
     78          1           0       -0.149061   -4.014775   -2.251066
     79          1           0        2.015416    3.910970   -4.270819
     80          1           0        3.486116    4.936576   -4.570061
     81          1           0        2.447620    5.433494   -3.351374
     82          1           0        6.559758    6.918048   -0.634668
     83          1           0        5.145586    6.332637    0.281890
     84          1           0        5.125599    7.815859   -0.627787
     85          1           0        6.931787    3.844743    2.888311
     86          1           0        9.047526    1.670891    2.759968
     87          1           0        8.833836    4.972201    2.485963
     88          1           0        8.999164    4.309200    0.835933
     89          1           0        9.786278    3.523786    2.126226
     90          1           0        7.069914    0.754374    4.498541
     91          1           0        7.106075    2.554187    4.785331
     92          1           0        8.351985    0.998846    6.345305
     93          1           0        9.030841    2.553318    5.877670
     94          1           0        9.708681    1.035067    5.259923
     95          1           0        6.543136   -4.643578    3.190177
     96          1           0        6.788549   -3.071059    4.097440
     97          1           0        8.038120   -3.748226    3.055598
     98          1           0        2.483881   -4.105499    0.218928
     99          1           0        5.172236   -6.978298   -2.718829
    100          1           0        5.206441   -5.609538   -3.957183
    101          1           0        3.715127   -6.336395   -3.503275
    102          1           0       -3.280548   -2.938796    1.117609
    103          1           0       -3.969638   -2.342867   -0.307011
    104          1           0       -2.779638    0.106344    0.807116
    105          1           0       -5.369398   -2.215057    2.236655
    106          1           0       -6.321344   -0.746023    2.588355
    107          1           0       -5.228548   -1.400009    3.751328
    108          1           0       -3.268730    1.389888    2.791594
    109          1           0       -4.869227    1.273993    3.514617
    110          1           0       -4.365944    2.170009    0.626225
    111          1           0       -4.764573    3.112943    2.023679
    112          1           0       -6.979773    2.865420    1.630556
    113          1           0       -6.830232    1.174395    2.027235
    114          1           0       -6.213355    0.701720   -0.143975
    115          1           0       -7.396628    3.190490   -1.507064
    116          1           0       -5.961508    2.288257   -1.794390
    117          1           0       -5.903643    3.518535   -0.566084
    118          1           0       -8.863140    1.765453   -0.965925
    119          1           0       -8.890137    1.809558    0.766638
    120          1           0       -8.015877   -0.796515   -0.449918
    121          1           0       -9.547594   -0.149450   -1.021900
    122          1           0       -9.157267    0.040300    2.019564
    123          1           0       -9.078326   -1.607235    1.494737
    124          1           0      -11.083406   -1.277893    0.022504
    125          1           0      -12.710713   -1.846365    1.944079
    126          1           0      -11.456125   -1.523381    3.123883
    127          1           0      -11.303241   -2.882676    1.981737
    128          1           0      -11.205370    1.388381    0.955713
    129          1           0      -12.345835    0.487033    1.910399
    130          1           0      -12.100804    0.052234   -1.138690
    131          1           0      -12.235678    1.680873   -0.591763
    132          1           0      -14.098969   -0.354346    0.740695
    133          1           0      -14.316735   -0.286941   -1.017906
    134          1           0      -14.247902    2.469490    0.090484
    135          1           0      -15.341276    2.310431    2.008476
    136          1           0      -15.425431    0.628718    2.006943
    137          1           0      -16.734294    1.529029    1.282345
    138          1           0      -16.052108    2.902920   -1.360961
    139          1           0      -16.813498    1.366318   -0.999786
    140          1           0      -15.282676    1.506102   -2.080450
 ---------------------------------------------------------------------

 SCF Done:  E(RwB97XD) =  -3007.83726082     A.U. after   19 cycles

 Excitation energies and oscillator strengths:

 Excited State   1:      Singlet-A      1.6654 eV  744.46 nm  f=0.3704  <S**2>=0.000
     245 -> 248        0.17871
     246 -> 247        0.68432
     245 <- 248        0.11350
 This state for optimization and/or second-order correction.
 Total Energy, E(TD-HF/TD-DFT) =  -3007.77605727
 Copying the excited state density for this state as the 1-particle RhoCI density.

 Excited State   2:      Singlet-A      2.1185 eV  585.24 nm  f=0.1553  <S**2>=0.000
     245 -> 247        0.64906
     246 -> 248       -0.25655

 Excited State   3:      Singlet-A      3.0618 eV  404.94 nm  f=0.0076  <S**2>=0.000
     243 -> 247        0.68068

 Excited State   4:      Singlet-A      3.4385 eV  360.58 nm  f=0.0001  <S**2>=0.000
     240 -> 247       -0.21826
     240 -> 249       -0.12712
     241 -> 247        0.35717
     241 -> 249       -0.18303
     241 -> 250       -0.17278
     242 -> 247        0.42871
     242 -> 249       -0.12826

 Excited State   5:      Singlet-A      3.4576 eV  358.59 nm  f=0.0002  <S**2>=0.000
     240 -> 247        0.51413
     240 -> 248       -0.13607
     240 -> 249        0.30204
     240 -> 250       -0.16399
     241 -> 247        0.18242
     242 -> 247        0.14853

 The electronic state is 1-A.
 Alpha  occ. eigenvalues --  -46.96888 -19.30831 -19.30372 -19.24828 -19.24425
 Alpha  occ. eigenvalues --  -19.24258 -19.23362 -14.48225 -14.46620 -14.44769
 Alpha  occ. eigenvalues --  -14.44484 -10.43290 -10.43029 -10.39367 -10.38222
 Alpha  occ. eigenvalues --  -10.37348 -10.36655 -10.36294 -10.35822 -10.35759
 Alpha  occ. eigenvalues --  -10.35222 -10.34850 -10.34621 -10.34164 -10.34149
 Alpha  occ. eigenvalues --  -10.33616 -10.33097 -10.32881 -10.32811 -10.32796
 Alpha  occ. eigenvalues --  -10.32651 -10.32403 -10.32387 -10.32368 -10.32031
 Alpha  occ. eigenvalues --  -10.31985 -10.31606 -10.31389 -10.31023 -10.30964
 Alpha  occ. eigenvalues --  -10.30895 -10.30885 -10.30789 -10.30520 -10.30223
 Alpha  occ. eigenvalues --  -10.30124 -10.29938 -10.29806 -10.29765 -10.29685
 Alpha  occ. eigenvalues --  -10.29462 -10.29400 -10.29360 -10.29348 -10.28962
 Alpha  occ. eigenvalues --  -10.28792 -10.28607 -10.28589 -10.28519 -10.28467
 Alpha  occ. eigenvalues --  -10.28382 -10.28332 -10.28286 -10.27958 -10.27900
 Alpha  occ. eigenvalues --  -10.27764  -3.22583  -1.96192  -1.95674  -1.95544
 Alpha  occ. eigenvalues --   -1.18281  -1.17732  -1.12397  -1.12023  -1.09726
 Alpha  occ. eigenvalues --   -1.08903  -1.06865  -1.06125  -1.04709  -1.03884
 Alpha  occ. eigenvalues --   -0.94628  -0.92331  -0.91992  -0.91517  -0.91233
 Alpha  occ. eigenvalues --   -0.90110  -0.89951  -0.89719  -0.89157  -0.88539
 Alpha  occ. eigenvalues --   -0.87915  -0.87415  -0.86022  -0.85786  -0.85334
 Alpha  occ. eigenvalues --   -0.84413  -0.83842  -0.83230  -0.82854  -0.82503
 Alpha  occ. eigenvalues --   -0.81798  -0.80349  -0.79727  -0.79185  -0.78457
 Alpha  occ. eigenvalues --   -0.77647  -0.77543  -0.76830  -0.76382  -0.75742
 Alpha  occ. eigenvalues --   -0.75593  -0.74927  -0.74350  -0.72459  -0.71332
 Alpha  occ. eigenvalues --   -0.70886  -0.70399  -0.69709  -0.68683  -0.67621
 Alpha  occ. eigenvalues --   -0.67577  -0.67366  -0.67038  -0.66572  -0.65829
 Alpha  occ. eigenvalues --   -0.65641  -0.65031  -0.64683  -0.64485  -0.62372
 Alpha  occ. eigenvalues --   -0.61806  -0.61654  -0.61543  -0.61215  -0.59865
 Alpha  occ. eigenvalues --   -0.59015  -0.58639  -0.58325  -0.57894  -0.57573
 Alpha  occ. eigenvalues --   -0.57375  -0.56728  -0.56540  -0.56046  -0.55818
 Alpha  occ. eigenvalues --   -0.55526  -0.55232  -0.55048  -0.54817  -0.54768
 Alpha  occ. eigenvalues --   -0.54556  -0.54168  -0.53963  -0.53863  -0.53759
 Alpha  occ. eigenvalues --   -0.53541  -0.53323  -0.52923  -0.52844  -0.52443
 Alpha  occ. eigenvalues --   -0.52357  -0.52013  -0.51822  -0.51790  -0.51299
 Alpha  occ. eigenvalues --   -0.51245  -0.51157  -0.50901  -0.50625  -0.50477
 Alpha  occ. eigenvalues --   -0.50366  -0.50156  -0.49959  -0.49786  -0.49729
 Alpha  occ. eigenvalues --   -0.49286  -0.49157  -0.49012  -0.48849  -0.48617
 Alpha  occ. eigenvalues --   -0.48494  -0.48441  -0.48266  -0.47954  -0.47850
 Alpha  occ. eigenvalues --   -0.47779  -0.47240  -0.47184  -0.47128  -0.46891
 Alpha  occ. eigenvalues --   -0.46834  -0.46588  -0.46460  -0.46421  -0.46244
 Alpha  occ. eigenvalues --   -0.46006  -0.45699  -0.45537  -0.45453  -0.45075
 Alpha  occ. eigenvalues --   -0.44908  -0.44848  -0.44553  -0.44387  -0.44306
 Alpha  occ. eigenvalues --   -0.44159  -0.43809  -0.43642  -0.43572  -0.43366
 Alpha  occ. eigenvalues --   -0.43273  -0.42530  -0.42419  -0.42231  -0.41966
 Alpha  occ. eigenvalues --   -0.41725  -0.41688  -0.41456  -0.41314  -0.40657
 Alpha  occ. eigenvalues --   -0.40383  -0.40311  -0.39891  -0.39693  -0.39472
 Alpha  occ. eigenvalues --   -0.39272  -0.38846  -0.38720  -0.38679  -0.38323
 Alpha  occ. eigenvalues --   -0.38043  -0.36589  -0.36496  -0.36376  -0.35864
 Alpha  occ. eigenvalues --   -0.35620  -0.35479  -0.34318  -0.34063  -0.33270
 Alpha  occ. eigenvalues --   -0.32544  -0.32364  -0.31905  -0.31372  -0.26614
 Alpha  occ. eigenvalues --   -0.24042
 Alpha virt. eigenvalues --   -0.08156  -0.00489   0.01999   0.04271   0.05418
 Alpha virt. eigenvalues --    0.06735   0.06966   0.07333   0.07660   0.08620
 Alpha virt. eigenvalues --    0.09733   0.11188   0.12020   0.12183   0.12559

 Mulliken charges:
               1
     1  Mg   0.930822
     2  C    0.058731
     3  C   -0.053442
     4  C   -0.067793
     5  C   -0.064479
     6  N   -0.367830
     7  C   -0.015033
     8  C   -0.062272
     9  C   -0.121221
    10  C    0.087706
    11  C    0.031324
    12  C    0.042344
    13  C   -0.009430
    14  C    0.200148
    15  O   -0.280576
    16  O   -0.359711
    17  N   -0.454776
    18  C    0.135284
    19  C   -0.149465
    20  C   -0.136856
    21  C    0.177524
    22  C    0.084159
    23  C    0.092411
    24  O   -0.239705
    25  C   -0.062711
    26  N   -0.335336
    27  C    0.120502
    28  C   -0.138957
    29  C   -0.048716
    30  C    0.022496
    31  C    0.006345
    32  C   -0.011662
    33  C   -0.052415
    34  N   -0.425365
    35  C    0.118290
    36  C   -0.169355
    37  C   -0.018253
    38  C    0.077169
    39  C    0.078401
    40  C    0.069428
    41  O   -0.202007
    42  C   -0.062471
    43  C    0.247489
    44  O   -0.245063
    45  O   -0.384297
    46  C    0.134482
    47  C    0.243208
    48  C   -0.111971
    49  C   -0.213724
    50  C    0.041396
    51  C    0.027737
    52  C   -0.016133
    53  C   -0.033526
    54  C   -0.184393
    55  C    0.009709
    56  C   -0.001390
    57  C   -0.029644
    58  C   -0.011755
    59  C   -0.135908
    60  C    0.009627
    61  C   -0.033030
    62  C   -0.074329
    63  C    0.058754
    64  C   -0.200381
    65  C   -0.020864
    66  C   -0.012352
    67  H   -0.012299
    68  H   -0.019649
    69  H   -0.002514
    70  H    0.036606
    71  H    0.041464
    72  H    0.044316
    73  H    0.048311
    74  H    0.043760
    75  H    0.036019
    76  H    0.045344
    77  H    0.077323
    78  H    0.056684
    79  H    0.057267
    80  H    0.058029
    81  H    0.063656
    82  H    0.068607
    83  H    0.055686
    84  H    0.048642
    85  H    0.055108
    86  H    0.030281
    87  H    0.036212
    88  H    0.039893
    89  H    0.031197
    90  H    0.041364
    91  H    0.028700
    92  H    0.036962
    93  H    0.037577
    94  H    0.038516
    95  H    0.063099
    96  H    0.045473
    97  H    0.047111
    98  H    0.065517
    99  H    0.069905
   100  H    0.052643
   101  H    0.056041
   102  H    0.048063
   103  H    0.060462
   104  H    0.027651
   105  H    0.028491
   106  H    0.036386
   107  H    0.042902
   108  H    0.036285
   109  H    0.026176
   110  H    0.027111
   111  H    0.021935
   112  H    0.014466
   113  H   -0.002235
   114  H    0.027879
   115  H    0.032390
   116  H    0.024384
   117  H    0.032064
   118  H    0.005850
   119  H    0.025163
   120  H    0.027233
   121  H    0.018205
   122  H    0.020146
   123  H    0.009158
   124  H    0.017794
   125  H    0.018537
   126  H    0.033387
   127  H    0.033993
   128  H    0.009792
   129  H    0.011613
   130  H    0.017765
   131  H    0.020513
   132  H    0.022903
   133  H    0.016041
   134  H    0.031219
   135  H    0.020799
   136  H    0.020794
   137  H    0.024993
   138  H    0.029224
   139  H    0.038161
   140  H    0.032570
 Sum of Mulliken charges =  -0.00000

 Dipole moment (field-independent basis, Debye):
    X=              2.7089    Y=              4.8730    Z=              1.3880  Tot=              5.7455
 Quadrupole moment (field-independent basis, Debye-Ang):
   XX=           -362.4305   YY=           -460.1746   ZZ=           -380.2272
   XY=              4.5437   XZ=              2.6219   YZ=             23.8377

 Normal termination of Gaussian 16 at Fri Apr 29 11:30:47 2022.
