 Gaussian 16, Revision A.03,
 Gaussian 16:  ES64L-G16RevA.03 25-Dec-2016

 --------------------
 #p ZINDO=(nstates=5)
 --------------------

 ----------------------------
 step_251_chromophore_5 ZINDO
 ----------------------------
 Symbolic Z-matrix:
 Charge =  0 Multiplicity = 1

                         Standard orientation:
 ---------------------------------------------------------------------
 Center     Atomic      Atomic             Coordinates (Angstroms)
 Number     Number       Type             X           Y           Z
 ---------------------------------------------------------------------
      1         12           0        5.283390    0.477002   -0.456820
      2          6           0        3.821227   -2.652990   -0.614231
      3          6           0        2.931310    1.606755   -2.861856
      4          6           0        6.280297    3.715068    0.056280
      5          6           0        7.240533   -0.505342    2.214060
      6          7           0        3.676526   -0.491230   -1.672071
      7          6           0        3.198407   -1.769850   -1.476370
      8          6           0        1.862017   -2.077347   -2.250417
      9          6           0        1.818170   -0.842907   -3.269435
     10          6           0        2.900922    0.193690   -2.632410
     11          6           0        2.082164   -1.098652   -4.802179
     12          6           0        0.640739   -2.155798   -1.403520
     13          6           0       -0.171346   -3.434521   -1.328900
     14          6           0       -1.671591   -3.264888   -1.040375
     15          8           0       -2.571643   -3.981244   -1.525581
     16          8           0       -1.854962   -2.247602   -0.155727
     17          7           0        4.745469    2.399317   -1.365908
     18          6           0        3.780588    2.578935   -2.374930
     19          6           0        3.774151    3.944376   -2.794181
     20          6           0        4.660683    4.634151   -1.820531
     21          6           0        5.286489    3.588105   -0.953738
     22          6           0        2.803050    4.521272   -3.829497
     23          6           0        4.832914    6.163020   -1.839885
     24          8           0        4.279551    6.964142   -2.587626
     25          6           0        5.478986    6.784359   -0.652520
     26          7           0        6.498112    1.549133    1.113153
     27          6           0        6.868820    2.825837    0.945094
     28          6           0        7.569376    3.247819    2.235791
     29          6           0        7.997486    1.884983    2.956076
     30          6           0        7.215952    0.855889    2.023301
     31          6           0        8.867185    4.060386    1.889672
     32          6           0        7.666525    1.666288    4.489430
     33          6           0        8.785702    1.555207    5.513988
     34          7           0        5.572549   -1.284012    0.578999
     35          6           0        6.440441   -1.561656    1.639731
     36          6           0        6.260263   -2.912461    2.076290
     37          6           0        5.226492   -3.419231    1.229491
     38          6           0        4.899353   -2.353121    0.303721
     39          6           0        6.961122   -3.636597    3.182253
     40          6           0        4.451410   -4.534424    0.870609
     41          8           0        4.463445   -5.643935    1.365019
     42          6           0        3.459146   -4.078519   -0.268280
     43          6           0        3.450811   -5.105673   -1.321630
     44          8           0        2.532466   -5.902583   -1.477208
     45          8           0        4.621997   -5.041060   -2.061661
     46          6           0        4.699795   -6.079075   -3.114034
     47          6           0       -3.197319   -2.102252    0.423450
     48          6           0       -3.474989   -0.700433    1.037212
     49          6           0       -4.314862   -0.332354    2.076091
     50          6           0       -5.345097   -1.220156    2.682106
     51          6           0       -4.307043    1.126509    2.591675
     52          6           0       -4.893288    2.125841    1.579589
     53          6           0       -6.437112    1.955462    1.375385
     54          6           0       -6.858950    1.577440   -0.077965
     55          6           0       -6.543079    2.746918   -0.994051
     56          6           0       -8.434842    1.295996   -0.080462
     57          6           0       -8.851810   -0.149066   -0.182621
     58          6           0       -9.513339   -0.639602    1.245148
     59          6           0      -11.030410   -0.879063    1.035200
     60          6           0      -11.631320   -1.850451    2.098741
     61          6           0      -11.769149    0.455834    0.986208
     62          6           0      -12.574186    0.669147   -0.374206
     63          6           0      -14.028338    0.286937   -0.137321
     64          6           0      -14.861297    1.570251    0.023067
     65          6           0      -15.648896    1.483548    1.368622
     66          6           0      -15.855967    1.840533   -1.215958
     67          1           0        2.290249    2.057656   -3.621671
     68          1           0        6.603107    4.758003    0.092916
     69          1           0        7.835763   -0.784549    3.085811
     70          1           0        1.973693   -3.005728   -2.809461
     71          1           0        0.851907   -0.358601   -3.123926
     72          1           0        2.030301   -2.175998   -4.959143
     73          1           0        3.031931   -0.710755   -5.170629
     74          1           0        1.309118   -0.560851   -5.349792
     75          1           0       -0.061096   -1.426621   -1.811076
     76          1           0        0.894089   -1.941791   -0.365751
     77          1           0        0.199558   -4.011863   -0.482521
     78          1           0       -0.149061   -4.014775   -2.251066
     79          1           0        2.015416    3.910970   -4.270819
     80          1           0        3.486116    4.936576   -4.570061
     81          1           0        2.447620    5.433494   -3.351374
     82          1           0        6.559758    6.918048   -0.634668
     83          1           0        5.145586    6.332637    0.281890
     84          1           0        5.125599    7.815859   -0.627787
     85          1           0        6.931787    3.844743    2.888311
     86          1           0        9.047526    1.670891    2.759968
     87          1           0        8.833836    4.972201    2.485963
     88          1           0        8.999164    4.309200    0.835933
     89          1           0        9.786278    3.523786    2.126226
     90          1           0        7.069914    0.754374    4.498541
     91          1           0        7.106075    2.554187    4.785331
     92          1           0        8.351985    0.998846    6.345305
     93          1           0        9.030841    2.553318    5.877670
     94          1           0        9.708681    1.035067    5.259923
     95          1           0        6.543136   -4.643578    3.190177
     96          1           0        6.788549   -3.071059    4.097440
     97          1           0        8.038120   -3.748226    3.055598
     98          1           0        2.483881   -4.105499    0.218928
     99          1           0        5.172236   -6.978298   -2.718829
    100          1           0        5.206441   -5.609538   -3.957183
    101          1           0        3.715127   -6.336395   -3.503275
    102          1           0       -3.280548   -2.938796    1.117609
    103          1           0       -3.969638   -2.342867   -0.307011
    104          1           0       -2.779638    0.106344    0.807116
    105          1           0       -5.369398   -2.215057    2.236655
    106          1           0       -6.321344   -0.746023    2.588355
    107          1           0       -5.228548   -1.400009    3.751328
    108          1           0       -3.268730    1.389888    2.791594
    109          1           0       -4.869227    1.273993    3.514617
    110          1           0       -4.365944    2.170009    0.626225
    111          1           0       -4.764573    3.112943    2.023679
    112          1           0       -6.979773    2.865420    1.630556
    113          1           0       -6.830232    1.174395    2.027235
    114          1           0       -6.213355    0.701720   -0.143975
    115          1           0       -7.396628    3.190490   -1.507064
    116          1           0       -5.961508    2.288257   -1.794390
    117          1           0       -5.903643    3.518535   -0.566084
    118          1           0       -8.863140    1.765453   -0.965925
    119          1           0       -8.890137    1.809558    0.766638
    120          1           0       -8.015877   -0.796515   -0.449918
    121          1           0       -9.547594   -0.149450   -1.021900
    122          1           0       -9.157267    0.040300    2.019564
    123          1           0       -9.078326   -1.607235    1.494737
    124          1           0      -11.083406   -1.277893    0.022504
    125          1           0      -12.710713   -1.846365    1.944079
    126          1           0      -11.456125   -1.523381    3.123883
    127          1           0      -11.303241   -2.882676    1.981737
    128          1           0      -11.205370    1.388381    0.955713
    129          1           0      -12.345835    0.487033    1.910399
    130          1           0      -12.100804    0.052234   -1.138690
    131          1           0      -12.235678    1.680873   -0.591763
    132          1           0      -14.098969   -0.354346    0.740695
    133          1           0      -14.316735   -0.286941   -1.017906
    134          1           0      -14.247902    2.469490    0.090484
    135          1           0      -15.341276    2.310431    2.008476
    136          1           0      -15.425431    0.628718    2.006943
    137          1           0      -16.734294    1.529029    1.282345
    138          1           0      -16.052108    2.902920   -1.360961
    139          1           0      -16.813498    1.366318   -0.999786
    140          1           0      -15.282676    1.506102   -2.080450
 ---------------------------------------------------------------------

 SCF Done:  E(RZINDO/S) =  -473.887261893     A.U. after   19 cycles

 Excitation energies and oscillator strengths:

 Excited State   1:      Singlet-A      1.2811 eV  967.83 nm  f=0.5990  <S**2>=0.000
     175 ->178        -0.17480
     176 ->177         0.66716
 This state for optimization and/or second-order correction.
 Total Energy, E(CIS/TDA) =  -473.840184047
 Copying the excited state density for this state as the 1-particle RhoCI density.

 Excited State   2:      Singlet-A      1.9094 eV  649.33 nm  f=0.0850  <S**2>=0.000
     175 ->177         0.56870
     176 ->178         0.38536

 Excited State   3:      Singlet-A      2.8664 eV  432.55 nm  f=0.0016  <S**2>=0.000
     167 ->179        -0.11979
     168 ->177         0.31464
     168 ->178        -0.17640
     168 ->179        -0.38780
     168 ->180         0.24011
     168 ->184        -0.10992
     168 ->185        -0.23932
     168 ->193        -0.11185

 Excited State   4:      Singlet-A      2.9618 eV  418.61 nm  f=0.0099  <S**2>=0.000
     170 ->177         0.35329
     170 ->179         0.28989
     170 ->180         0.35794
     170 ->185         0.16117
     170 ->189        -0.16255
     170 ->201         0.14611
     171 ->177        -0.12465

 Excited State   5:      Singlet-A      2.9897 eV  414.70 nm  f=0.0663  <S**2>=0.000
     171 ->177         0.52715
     172 ->177        -0.21457
     173 ->177         0.26185
     176 ->178        -0.19337

 The electronic state is 1-A.
 Alpha  occ. eigenvalues --   -1.84069  -1.79463  -1.76992  -1.72293  -1.71694
 Alpha  occ. eigenvalues --   -1.68550  -1.65912  -1.61582  -1.59986  -1.58290
 Alpha  occ. eigenvalues --   -1.53338  -1.49388  -1.47914  -1.46649  -1.46118
 Alpha  occ. eigenvalues --   -1.45764  -1.44710  -1.40495  -1.38784  -1.36638
 Alpha  occ. eigenvalues --   -1.35445  -1.33548  -1.31549  -1.30905  -1.29412
 Alpha  occ. eigenvalues --   -1.27550  -1.27094  -1.22789  -1.20541  -1.18245
 Alpha  occ. eigenvalues --   -1.16986  -1.15500  -1.15126  -1.13490  -1.12579
 Alpha  occ. eigenvalues --   -1.12433  -1.10178  -1.08986  -1.05781  -1.04760
 Alpha  occ. eigenvalues --   -1.02655  -1.02241  -0.98918  -0.98176  -0.96278
 Alpha  occ. eigenvalues --   -0.95191  -0.94299  -0.94035  -0.93912  -0.92789
 Alpha  occ. eigenvalues --   -0.90960  -0.90842  -0.88916  -0.88395  -0.86977
 Alpha  occ. eigenvalues --   -0.86327  -0.84950  -0.84268  -0.83384  -0.81347
 Alpha  occ. eigenvalues --   -0.80716  -0.79274  -0.77470  -0.77054  -0.76430
 Alpha  occ. eigenvalues --   -0.75660  -0.74753  -0.74675  -0.74141  -0.72977
 Alpha  occ. eigenvalues --   -0.72715  -0.71951  -0.71806  -0.71480  -0.70702
 Alpha  occ. eigenvalues --   -0.70112  -0.69465  -0.69093  -0.68929  -0.68239
 Alpha  occ. eigenvalues --   -0.67154  -0.66763  -0.66411  -0.65903  -0.65506
 Alpha  occ. eigenvalues --   -0.64544  -0.64492  -0.64292  -0.63890  -0.63328
 Alpha  occ. eigenvalues --   -0.63163  -0.62686  -0.62296  -0.62237  -0.62136
 Alpha  occ. eigenvalues --   -0.61827  -0.61238  -0.61225  -0.60739  -0.59971
 Alpha  occ. eigenvalues --   -0.59432  -0.59304  -0.59242  -0.58561  -0.58116
 Alpha  occ. eigenvalues --   -0.57777  -0.57313  -0.57120  -0.56866  -0.56833
 Alpha  occ. eigenvalues --   -0.56409  -0.56000  -0.55761  -0.55457  -0.55119
 Alpha  occ. eigenvalues --   -0.54678  -0.54049  -0.53892  -0.53757  -0.53025
 Alpha  occ. eigenvalues --   -0.52700  -0.52691  -0.52520  -0.52111  -0.51854
 Alpha  occ. eigenvalues --   -0.51588  -0.51520  -0.50980  -0.50700  -0.50359
 Alpha  occ. eigenvalues --   -0.50332  -0.50072  -0.49857  -0.49720  -0.49208
 Alpha  occ. eigenvalues --   -0.48943  -0.48814  -0.48498  -0.48393  -0.48122
 Alpha  occ. eigenvalues --   -0.47803  -0.47408  -0.47314  -0.47130  -0.46922
 Alpha  occ. eigenvalues --   -0.46629  -0.46347  -0.46237  -0.45946  -0.45670
 Alpha  occ. eigenvalues --   -0.45364  -0.45338  -0.45042  -0.44842  -0.44312
 Alpha  occ. eigenvalues --   -0.43738  -0.42969  -0.42280  -0.42246  -0.41871
 Alpha  occ. eigenvalues --   -0.41796  -0.41586  -0.39926  -0.39898  -0.38562
 Alpha  occ. eigenvalues --   -0.38226  -0.37251  -0.36039  -0.35308  -0.34117
 Alpha  occ. eigenvalues --   -0.33613  -0.33250  -0.32364  -0.31660  -0.27489
 Alpha  occ. eigenvalues --   -0.22902
 Alpha virt. eigenvalues --   -0.09618  -0.02961  -0.01157   0.00928   0.01258
 Alpha virt. eigenvalues --    0.01995   0.02312   0.02548   0.03869   0.03965
 Alpha virt. eigenvalues --    0.05523   0.05825   0.06074   0.06881   0.07393

 Mulliken charges:
               1
     1  Mg   0.430165
     2  C   -0.039379
     3  C   -0.062988
     4  C   -0.081062
     5  C   -0.056546
     6  N   -0.290131
     7  C    0.106003
     8  C    0.010372
     9  C   -0.005335
    10  C    0.139683
    11  C   -0.046782
    12  C   -0.015396
    13  C    0.006759
    14  C    0.464702
    15  O   -0.526731
    16  O   -0.266731
    17  N   -0.348574
    18  C    0.133779
    19  C    0.046889
    20  C   -0.060164
    21  C    0.152551
    22  C   -0.040056
    23  C    0.328459
    24  O   -0.513568
    25  C   -0.033730
    26  N   -0.269606
    27  C    0.154639
    28  C    0.010323
    29  C   -0.015963
    30  C    0.093660
    31  C   -0.060243
    32  C   -0.027831
    33  C   -0.054179
    34  N   -0.294998
    35  C    0.057133
    36  C    0.027017
    37  C   -0.079424
    38  C    0.111316
    39  C   -0.036651
    40  C    0.332939
    41  O   -0.531053
    42  C    0.054319
    43  C    0.490642
    44  O   -0.520618
    45  O   -0.271122
    46  C    0.073060
    47  C    0.108213
    48  C   -0.104709
    49  C    0.003845
    50  C   -0.040586
    51  C   -0.014296
    52  C   -0.029913
    53  C   -0.042421
    54  C   -0.021507
    55  C   -0.053754
    56  C   -0.036750
    57  C   -0.046085
    58  C   -0.043060
    59  C   -0.004782
    60  C   -0.056165
    61  C   -0.049195
    62  C   -0.048287
    63  C   -0.020817
    64  C   -0.013855
    65  C   -0.064564
    66  C   -0.065355
    67  H    0.031999
    68  H    0.022640
    69  H    0.020444
    70  H    0.035802
    71  H    0.031985
    72  H    0.029299
    73  H    0.028340
    74  H    0.022836
    75  H    0.024859
    76  H    0.027211
    77  H    0.052098
    78  H    0.044668
    79  H    0.042510
    80  H    0.039977
    81  H    0.045018
    82  H    0.041977
    83  H    0.029740
    84  H    0.027721
    85  H    0.044012
    86  H    0.031934
    87  H    0.015924
    88  H    0.022297
    89  H    0.021595
    90  H    0.030266
    91  H    0.020456
    92  H    0.015275
    93  H    0.017316
    94  H    0.025702
    95  H    0.035740
    96  H    0.029962
    97  H    0.029886
    98  H    0.052532
    99  H    0.052702
   100  H    0.029420
   101  H    0.044915
   102  H    0.044278
   103  H    0.054403
   104  H    0.028529
   105  H    0.019666
   106  H    0.030117
   107  H    0.027389
   108  H    0.018579
   109  H    0.022783
   110  H    0.027506
   111  H    0.006532
   112  H    0.013432
   113  H    0.013240
   114  H    0.036909
   115  H    0.024254
   116  H    0.006188
   117  H    0.022111
   118  H    0.009126
   119  H    0.023738
   120  H    0.021618
   121  H    0.022592
   122  H    0.030085
   123  H    0.005776
   124  H    0.026819
   125  H    0.011721
   126  H    0.023161
   127  H    0.019280
   128  H    0.015019
   129  H    0.019032
   130  H    0.014798
   131  H    0.026411
   132  H    0.029830
   133  H    0.015104
   134  H    0.025217
   135  H    0.008721
   136  H    0.017593
   137  H    0.019287
   138  H    0.016094
   139  H    0.029305
   140  H    0.023193
 Sum of Mulliken charges =  -0.00000

 Dipole moment (field-independent basis, Debye):
    X=              3.4559    Y=              8.3847    Z=              1.3102  Tot=              9.1632
 N-N= 4.337132831271D+03 E-N= 0.000000000000D+00  KE=-9.347621799707D+03
 Leave Link  601 at Fri Apr 29 11:44:38 2022, MaxMem=  6710886400 cpu:               0.8 elap:               0.1
 (Enter /sw/apps/gaussian-16.0/g16/l9999.exe)
 1\1\GINC-BP1-COMPUTE139\SP\RZINDO CIS\STO-3G\C55H74Mg1N4O6\OF15641\29-
 Apr-2022\0\\#p ZINDO=(nstates=5)\\step_251_chromophore_5 ZINDO\\0,1\Mg
 ,0,24.105,-6.987,45.763\C,0,26.357,-4.6,44.672\C,0,21.601,-5.397,43.81
 5\C,0,21.973,-9.611,46.321\C,0,26.645,-8.786,47.26\N,0,24.01,-5.131,44
 .521\C,0,25.1,-4.376,44.142\C,0,24.786,-3.322,43.015\C,0,23.185,-3.322
 ,43.046\C,0,22.837,-4.677,43.88\C,0,22.425,-2.067,43.622\C,0,25.326,-3
 .652,41.668\C,0,26.324,-2.736,40.986\C,0,26.306,-2.744,39.449\O,0,26.5

 Normal termination of Gaussian 16 at Fri Apr 29 11:44:38 2022.
