 Gaussian 16, Revision A.03,
 Gaussian 16:  ES64L-G16RevA.03 25-Dec-2016

 ------------------------------
 #p blyp/Def2SVP td=(nstates=5)
 ------------------------------

 --------------------------------------------------
 step_201_chromophore_11 TDDFT with blyp functional
 --------------------------------------------------
 Symbolic Z-matrix:
 Charge =  0 Multiplicity = 1

                         Standard orientation:
 ---------------------------------------------------------------------
 Center     Atomic      Atomic             Coordinates (Angstroms)
 Number     Number       Type             X           Y           Z
 ---------------------------------------------------------------------
      1         12           0       -4.361943    1.300942    0.614773
      2          6           0       -5.475151   -1.919722    0.199775
      3          6           0       -1.970919    0.189785    2.922568
      4          6           0       -2.867078    4.294105    0.381923
      5          6           0       -6.781430    2.285642   -1.798153
      6          7           0       -3.708816   -0.633685    1.273733
      7          6           0       -4.377041   -1.754046    1.026917
      8          6           0       -3.782219   -2.883896    1.883722
      9          6           0       -2.931716   -2.164832    2.981543
     10          6           0       -2.803689   -0.763868    2.393247
     11          6           0       -3.503118   -2.222781    4.410266
     12          6           0       -2.867746   -3.922613    1.037851
     13          6           0       -1.820346   -3.343703    0.134346
     14          6           0       -0.686047   -4.241645   -0.101282
     15          8           0       -0.761999   -5.330095   -0.701240
     16          8           0        0.410253   -3.757998    0.549211
     17          7           0       -2.661076    2.163048    1.518843
     18          6           0       -1.906338    1.590312    2.588719
     19          6           0       -1.060237    2.638002    3.186050
     20          6           0       -1.264621    3.824900    2.386878
     21          6           0       -2.291540    3.433409    1.374468
     22          6           0       -0.106086    2.399020    4.281224
     23          6           0       -0.515062    5.152241    2.744707
     24          8           0        0.317513    5.196687    3.648233
     25          6           0       -0.834835    6.382299    1.984053
     26          7           0       -4.733528    2.993386   -0.665932
     27          6           0       -4.011473    4.115924   -0.489404
     28          6           0       -4.557882    5.231066   -1.377210
     29          6           0       -5.923322    4.698925   -1.833585
     30          6           0       -5.816140    3.226107   -1.438945
     31          6           0       -4.575668    6.675872   -0.630319
     32          6           0       -6.090388    4.914166   -3.384394
     33          6           0       -7.472372    5.452115   -3.749803
     34          7           0       -5.929777    0.406445   -0.575820
     35          6           0       -6.843240    0.947552   -1.464146
     36          6           0       -7.787218   -0.061055   -1.770131
     37          6           0       -7.228266   -1.232240   -1.146407
     38          6           0       -6.116550   -0.894713   -0.530773
     39          6           0       -9.083021    0.082391   -2.594884
     40          6           0       -7.451514   -2.668757   -0.927620
     41          8           0       -8.329801   -3.485793   -1.303130
     42          6           0       -6.277761   -3.161201   -0.157540
     43          6           0       -5.546940   -4.156460   -0.980672
     44          8           0       -4.772502   -3.777689   -1.849855
     45          8           0       -5.822792   -5.432640   -0.622911
     46          6           0       -5.347229   -6.547904   -1.490218
     47          6           0        1.518906   -4.630965    0.685164
     48          6           0        2.523788   -3.960897   -0.305245
     49          6           0        3.839331   -3.952926   -0.174786
     50          6           0        4.505219   -4.962030    0.714265
     51          6           0        4.679442   -3.065814   -1.107097
     52          6           0        4.357049   -1.593139   -1.373015
     53          6           0        5.677448   -0.807334   -1.701897
     54          6           0        6.009776    0.253298   -0.644019
     55          6           0        5.384183    1.643417   -0.854429
     56          6           0        7.604177    0.414603   -0.807434
     57          6           0        8.410409   -0.624573    0.016378
     58          6           0        9.306783   -0.165982    1.207988
     59          6           0       10.811655   -0.321405    1.022380
     60          6           0       11.615145   -0.053557    2.313461
     61          6           0       11.308668    0.704650   -0.127136
     62          6           0       12.480793    0.278747   -1.010086
     63          6           0       13.608465    1.378136   -0.978042
     64          6           0       14.623756    0.966272   -2.082025
     65          6           0       16.015221    1.046681   -1.566372
     66          6           0       14.453858    1.984714   -3.329612
     67          1           0       -1.275225   -0.074055    3.722271
     68          1           0       -2.498486    5.322184    0.369500
     69          1           0       -7.569768    2.749028   -2.396012
     70          1           0       -4.616062   -3.373557    2.386910
     71          1           0       -1.924137   -2.580973    2.994439
     72          1           0       -2.657718   -2.241705    5.098855
     73          1           0       -3.997327   -3.166330    4.640475
     74          1           0       -4.096493   -1.361071    4.716728
     75          1           0       -3.468894   -4.621171    0.457125
     76          1           0       -2.376805   -4.613043    1.724152
     77          1           0       -1.429399   -2.462803    0.643688
     78          1           0       -2.326665   -3.057336   -0.787335
     79          1           0       -0.406904    3.161831    5.000350
     80          1           0        0.945480    2.567807    4.049374
     81          1           0       -0.317341    1.453346    4.780642
     82          1           0       -0.521750    6.272062    0.946069
     83          1           0       -0.201562    7.145309    2.436531
     84          1           0       -1.887233    6.665230    1.973041
     85          1           0       -3.935222    5.381375   -2.259094
     86          1           0       -6.711692    5.262957   -1.334899
     87          1           0       -3.827979    7.404450   -0.945689
     88          1           0       -4.353035    6.514966    0.423560
     89          1           0       -5.557082    7.140966   -0.725190
     90          1           0       -6.027673    3.978256   -3.941590
     91          1           0       -5.483772    5.767840   -3.684326
     92          1           0       -7.650535    6.359383   -3.171794
     93          1           0       -8.241673    4.698371   -3.585726
     94          1           0       -7.386799    5.724697   -4.802155
     95          1           0       -9.091150   -0.486693   -3.525257
     96          1           0       -9.066981    1.120636   -2.928146
     97          1           0       -9.934843   -0.156510   -1.956937
     98          1           0       -6.525570   -3.604237    0.806968
     99          1           0       -4.772186   -6.134569   -2.318220
    100          1           0       -6.186820   -7.120331   -1.882992
    101          1           0       -4.624325   -7.260631   -1.093249
    102          1           0        1.289181   -5.640706    0.344204
    103          1           0        1.907977   -4.614692    1.703194
    104          1           0        2.057881   -3.199610   -0.931069
    105          1           0        4.347348   -4.689564    1.757577
    106          1           0        5.593434   -4.999578    0.654956
    107          1           0        4.058434   -5.920484    0.451612
    108          1           0        4.543793   -3.566990   -2.066348
    109          1           0        5.701689   -3.216521   -0.760840
    110          1           0        3.731435   -1.136087   -0.606084
    111          1           0        3.834435   -1.632662   -2.329178
    112          1           0        5.556684   -0.264547   -2.639027
    113          1           0        6.458177   -1.530814   -1.937388
    114          1           0        5.773669   -0.186346    0.325445
    115          1           0        4.573279    1.452285   -1.558586
    116          1           0        6.047822    2.401170   -1.268962
    117          1           0        5.054212    1.973080    0.130342
    118          1           0        7.888018    1.414672   -0.479277
    119          1           0        7.857727    0.246553   -1.853736
    120          1           0        9.114133   -1.236909   -0.548419
    121          1           0        7.672718   -1.367099    0.320108
    122          1           0        8.847014   -0.444388    2.156737
    123          1           0        9.288028    0.920189    1.293164
    124          1           0       11.128276   -1.236601    0.522195
    125          1           0       12.492278    0.581044    2.187177
    126          1           0       11.962879   -0.954930    2.818620
    127          1           0       10.967182    0.419664    3.051272
    128          1           0       11.497371    1.666492    0.349131
    129          1           0       10.536719    0.825035   -0.887702
    130          1           0       12.088505    0.123129   -2.014935
    131          1           0       12.903726   -0.664293   -0.662658
    132          1           0       14.017562    1.460737    0.028825
    133          1           0       13.255056    2.390403   -1.173194
    134          1           0       14.369933    0.010657   -2.541360
    135          1           0       16.048581    1.398604   -0.535633
    136          1           0       16.579383    1.823412   -2.083677
    137          1           0       16.494211    0.100989   -1.819074
    138          1           0       13.556324    1.756304   -3.903372
    139          1           0       15.250593    1.986644   -4.073612
    140          1           0       14.349045    3.002845   -2.955294
 ---------------------------------------------------------------------

 SCF Done:  E(RB-LYP) =  -3007.35973797     A.U. after   21 cycles

 Excitation energies and oscillator strengths:

 Excited State   1:      Singlet-A      1.6652 eV  744.55 nm  f=0.0062  <S**2>=0.000
     244 -> 247        0.68026
     245 -> 247       -0.16250
 This state for optimization and/or second-order correction.
 Total Energy, E(TD-HF/TD-DFT) =  -3007.29854247
 Copying the excited state density for this state as the 1-particle RhoCI density.

 Excited State   2:      Singlet-A      1.8128 eV  683.94 nm  f=0.3082  <S**2>=0.000
     245 -> 248        0.17939
     246 -> 247        0.68419
     246 <- 247       -0.15202

 Excited State   3:      Singlet-A      1.9690 eV  629.69 nm  f=0.0040  <S**2>=0.000
     242 -> 247        0.68447
     245 -> 247       -0.13130

 Excited State   4:      Singlet-A      1.9813 eV  625.77 nm  f=0.0351  <S**2>=0.000
     241 -> 247        0.13462
     242 -> 247       -0.17253
     243 -> 247        0.48745
     244 -> 247       -0.11739
     245 -> 247       -0.42197
     246 -> 248        0.12810

 Excited State   5:      Singlet-A      1.9951 eV  621.45 nm  f=0.0380  <S**2>=0.000
     241 -> 247       -0.16360
     243 -> 247        0.50121
     244 -> 247        0.11617
     245 -> 247        0.42204
     246 -> 248       -0.13624

 The electronic state is 1-A.
 Alpha  occ. eigenvalues --  -46.27739 -18.82653 -18.82230 -18.76323 -18.76244
 Alpha  occ. eigenvalues --  -18.76195 -18.75004 -14.03655 -14.03567 -14.01657
 Alpha  occ. eigenvalues --  -13.99787 -10.03959 -10.03525 -10.00543  -9.99183
 Alpha  occ. eigenvalues --   -9.97513  -9.97496  -9.97345  -9.97072  -9.96827
 Alpha  occ. eigenvalues --   -9.96676  -9.96588  -9.96331  -9.95084  -9.94439
 Alpha  occ. eigenvalues --   -9.94256  -9.94150  -9.94117  -9.94034  -9.93726
 Alpha  occ. eigenvalues --   -9.93632  -9.93621  -9.93375  -9.93248  -9.93236
 Alpha  occ. eigenvalues --   -9.93227  -9.93152  -9.93088  -9.93011  -9.92901
 Alpha  occ. eigenvalues --   -9.92893  -9.92639  -9.92271  -9.92143  -9.92027
 Alpha  occ. eigenvalues --   -9.92024  -9.91943  -9.91903  -9.91863  -9.91692
 Alpha  occ. eigenvalues --   -9.91636  -9.91439  -9.91262  -9.91052  -9.91027
 Alpha  occ. eigenvalues --   -9.91012  -9.90933  -9.90882  -9.90871  -9.90787
 Alpha  occ. eigenvalues --   -9.90773  -9.90664  -9.90408  -9.90292  -9.90124
 Alpha  occ. eigenvalues --   -9.90085  -2.92247  -1.72667  -1.72133  -1.71955
 Alpha  occ. eigenvalues --   -0.98414  -0.97581  -0.91802  -0.89892  -0.89212
 Alpha  occ. eigenvalues --   -0.89167  -0.87468  -0.86768  -0.85558  -0.84765
 Alpha  occ. eigenvalues --   -0.76287  -0.73331  -0.72943  -0.72717  -0.72430
 Alpha  occ. eigenvalues --   -0.72080  -0.71670  -0.71416  -0.70665  -0.70276
 Alpha  occ. eigenvalues --   -0.69380  -0.69247  -0.67897  -0.67628  -0.67232
 Alpha  occ. eigenvalues --   -0.66537  -0.66216  -0.65570  -0.65198  -0.64595
 Alpha  occ. eigenvalues --   -0.64072  -0.62489  -0.62059  -0.61770  -0.61239
 Alpha  occ. eigenvalues --   -0.60397  -0.60321  -0.59631  -0.59291  -0.58519
 Alpha  occ. eigenvalues --   -0.58244  -0.57806  -0.57449  -0.55271  -0.54265
 Alpha  occ. eigenvalues --   -0.53972  -0.53494  -0.52531  -0.52105  -0.51772
 Alpha  occ. eigenvalues --   -0.51470  -0.50812  -0.50666  -0.50468  -0.49850
 Alpha  occ. eigenvalues --   -0.49549  -0.49243  -0.49156  -0.48426  -0.46778
 Alpha  occ. eigenvalues --   -0.46134  -0.45956  -0.45718  -0.45646  -0.44970
 Alpha  occ. eigenvalues --   -0.44699  -0.44488  -0.43451  -0.42978  -0.42578
 Alpha  occ. eigenvalues --   -0.42306  -0.41802  -0.41321  -0.41124  -0.40930
 Alpha  occ. eigenvalues --   -0.40835  -0.40690  -0.40224  -0.40079  -0.39959
 Alpha  occ. eigenvalues --   -0.39886  -0.39553  -0.39421  -0.39214  -0.38951
 Alpha  occ. eigenvalues --   -0.38918  -0.38710  -0.38615  -0.38435  -0.38234
 Alpha  occ. eigenvalues --   -0.37967  -0.37578  -0.37518  -0.37140  -0.37123
 Alpha  occ. eigenvalues --   -0.37046  -0.36788  -0.36624  -0.36591  -0.36395
 Alpha  occ. eigenvalues --   -0.36322  -0.36094  -0.35751  -0.35632  -0.35519
 Alpha  occ. eigenvalues --   -0.35346  -0.35313  -0.35269  -0.34904  -0.34680
 Alpha  occ. eigenvalues --   -0.34637  -0.34300  -0.34212  -0.33871  -0.33811
 Alpha  occ. eigenvalues --   -0.33589  -0.33345  -0.33326  -0.33141  -0.33101
 Alpha  occ. eigenvalues --   -0.32832  -0.32649  -0.32592  -0.32395  -0.32136
 Alpha  occ. eigenvalues --   -0.31850  -0.31532  -0.31440  -0.31430  -0.31286
 Alpha  occ. eigenvalues --   -0.31207  -0.31132  -0.30895  -0.30637  -0.30490
 Alpha  occ. eigenvalues --   -0.30280  -0.30036  -0.29894  -0.29780  -0.29708
 Alpha  occ. eigenvalues --   -0.29506  -0.29490  -0.29328  -0.29150  -0.28983
 Alpha  occ. eigenvalues --   -0.28903  -0.28751  -0.28598  -0.28372  -0.28086
 Alpha  occ. eigenvalues --   -0.27747  -0.27201  -0.26810  -0.26682  -0.26549
 Alpha  occ. eigenvalues --   -0.26376  -0.26129  -0.25942  -0.25241  -0.25239
 Alpha  occ. eigenvalues --   -0.24578  -0.24549  -0.24186  -0.23403  -0.23327
 Alpha  occ. eigenvalues --   -0.23223  -0.22226  -0.21573  -0.21353  -0.20618
 Alpha  occ. eigenvalues --   -0.19749  -0.19421  -0.19409  -0.18201  -0.17637
 Alpha  occ. eigenvalues --   -0.16423
 Alpha virt. eigenvalues --   -0.12184  -0.07216  -0.05929  -0.04990  -0.03273
 Alpha virt. eigenvalues --   -0.02815  -0.02155  -0.01595  -0.01001  -0.00463
 Alpha virt. eigenvalues --    0.01183   0.01786   0.02062   0.02931   0.03206

 Mulliken charges:
               1
     1  Mg   0.676920
     2  C   -0.024204
     3  C   -0.044317
     4  C   -0.039643
     5  C   -0.082605
     6  N   -0.241643
     7  C   -0.065903
     8  C    0.032067
     9  C    0.012526
    10  C    0.058536
    11  C    0.137980
    12  C    0.063298
    13  C    0.174121
    14  C    0.060714
    15  O   -0.212437
    16  O   -0.248611
    17  N   -0.282704
    18  C    0.086644
    19  C   -0.147663
    20  C   -0.004103
    21  C    0.124756
    22  C    0.213606
    23  C   -0.066412
    24  O   -0.167137
    25  C    0.132632
    26  N   -0.184879
    27  C    0.006973
    28  C    0.017976
    29  C    0.040212
    30  C   -0.015088
    31  C    0.088785
    32  C    0.076791
    33  C    0.039892
    34  N   -0.237006
    35  C    0.168456
    36  C   -0.198018
    37  C    0.096419
    38  C    0.074333
    39  C    0.180016
    40  C   -0.062061
    41  O   -0.169444
    42  C    0.172191
    43  C    0.116382
    44  O   -0.186177
    45  O   -0.258108
    46  C    0.199479
    47  C    0.315155
    48  C   -0.131044
    49  C   -0.172495
    50  C    0.139600
    51  C    0.110165
    52  C    0.118352
    53  C    0.072177
    54  C   -0.101215
    55  C    0.142195
    56  C    0.099567
    57  C    0.068703
    58  C    0.110199
    59  C   -0.051628
    60  C    0.118129
    61  C    0.047246
    62  C    0.058913
    63  C    0.075049
    64  C   -0.091347
    65  C    0.155883
    66  C    0.060601
    67  H   -0.059301
    68  H   -0.089945
    69  H   -0.075975
    70  H   -0.037339
    71  H   -0.022722
    72  H   -0.019058
    73  H   -0.005193
    74  H   -0.002061
    75  H   -0.007352
    76  H   -0.028633
    77  H   -0.014957
    78  H    0.019695
    79  H    0.001756
    80  H    0.020274
    81  H   -0.031372
    82  H    0.018421
    83  H   -0.010286
    84  H    0.020213
    85  H   -0.007232
    86  H   -0.021178
    87  H   -0.006633
    88  H   -0.002593
    89  H   -0.010331
    90  H   -0.002146
    91  H   -0.016187
    92  H   -0.010537
    93  H   -0.001950
    94  H   -0.009025
    95  H    0.012591
    96  H   -0.032332
    97  H    0.020363
    98  H   -0.016367
    99  H    0.019770
   100  H    0.028364
   101  H    0.023648
   102  H    0.004746
   103  H   -0.005985
   104  H   -0.025622
   105  H   -0.002646
   106  H   -0.019393
   107  H    0.015353
   108  H   -0.005673
   109  H   -0.034848
   110  H   -0.014387
   111  H   -0.036863
   112  H   -0.046848
   113  H   -0.025871
   114  H   -0.032444
   115  H   -0.018645
   116  H   -0.007563
   117  H   -0.007989
   118  H   -0.030671
   119  H   -0.026844
   120  H   -0.042072
   121  H   -0.041820
   122  H   -0.038349
   123  H   -0.040700
   124  H   -0.041686
   125  H   -0.014919
   126  H   -0.018789
   127  H   -0.025120
   128  H   -0.029296
   129  H   -0.031941
   130  H   -0.025672
   131  H   -0.024515
   132  H   -0.025822
   133  H   -0.028790
   134  H   -0.022488
   135  H   -0.022856
   136  H   -0.036249
   137  H   -0.012436
   138  H   -0.024510
   139  H   -0.016024
   140  H   -0.015886
 Sum of Mulliken charges =  -0.00000

 Dipole moment (field-independent basis, Debye):
    X=              0.3942    Y=              3.3951    Z=              1.6629  Tot=              3.8010
 Quadrupole moment (field-independent basis, Debye-Ang):
   XX=           -415.8701   YY=           -392.5739   ZZ=           -401.7665
   XY=            -44.9624   XZ=            -12.1292   YZ=            -30.7602

 Normal termination of Gaussian 16 at Fri Apr 29 07:49:20 2022.
