 Gaussian 16, Revision A.03,
 Gaussian 16:  ES64L-G16RevA.03 25-Dec-2016

 -----------------------------------
 #p cam-b3lyp/Def2SVP td=(nstates=5)
 -----------------------------------

 -------------------------------------------------------
 step_201_chromophore_11 TDDFT with cam-b3lyp functional
 -------------------------------------------------------
 Symbolic Z-matrix:
 Charge =  0 Multiplicity = 1

                         Standard orientation:
 ---------------------------------------------------------------------
 Center     Atomic      Atomic             Coordinates (Angstroms)
 Number     Number       Type             X           Y           Z
 ---------------------------------------------------------------------
      1         12           0       -4.361943    1.300942    0.614773
      2          6           0       -5.475151   -1.919722    0.199775
      3          6           0       -1.970919    0.189785    2.922568
      4          6           0       -2.867078    4.294105    0.381923
      5          6           0       -6.781430    2.285642   -1.798153
      6          7           0       -3.708816   -0.633685    1.273733
      7          6           0       -4.377041   -1.754046    1.026917
      8          6           0       -3.782219   -2.883896    1.883722
      9          6           0       -2.931716   -2.164832    2.981543
     10          6           0       -2.803689   -0.763868    2.393247
     11          6           0       -3.503118   -2.222781    4.410266
     12          6           0       -2.867746   -3.922613    1.037851
     13          6           0       -1.820346   -3.343703    0.134346
     14          6           0       -0.686047   -4.241645   -0.101282
     15          8           0       -0.761999   -5.330095   -0.701240
     16          8           0        0.410253   -3.757998    0.549211
     17          7           0       -2.661076    2.163048    1.518843
     18          6           0       -1.906338    1.590312    2.588719
     19          6           0       -1.060237    2.638002    3.186050
     20          6           0       -1.264621    3.824900    2.386878
     21          6           0       -2.291540    3.433409    1.374468
     22          6           0       -0.106086    2.399020    4.281224
     23          6           0       -0.515062    5.152241    2.744707
     24          8           0        0.317513    5.196687    3.648233
     25          6           0       -0.834835    6.382299    1.984053
     26          7           0       -4.733528    2.993386   -0.665932
     27          6           0       -4.011473    4.115924   -0.489404
     28          6           0       -4.557882    5.231066   -1.377210
     29          6           0       -5.923322    4.698925   -1.833585
     30          6           0       -5.816140    3.226107   -1.438945
     31          6           0       -4.575668    6.675872   -0.630319
     32          6           0       -6.090388    4.914166   -3.384394
     33          6           0       -7.472372    5.452115   -3.749803
     34          7           0       -5.929777    0.406445   -0.575820
     35          6           0       -6.843240    0.947552   -1.464146
     36          6           0       -7.787218   -0.061055   -1.770131
     37          6           0       -7.228266   -1.232240   -1.146407
     38          6           0       -6.116550   -0.894713   -0.530773
     39          6           0       -9.083021    0.082391   -2.594884
     40          6           0       -7.451514   -2.668757   -0.927620
     41          8           0       -8.329801   -3.485793   -1.303130
     42          6           0       -6.277761   -3.161201   -0.157540
     43          6           0       -5.546940   -4.156460   -0.980672
     44          8           0       -4.772502   -3.777689   -1.849855
     45          8           0       -5.822792   -5.432640   -0.622911
     46          6           0       -5.347229   -6.547904   -1.490218
     47          6           0        1.518906   -4.630965    0.685164
     48          6           0        2.523788   -3.960897   -0.305245
     49          6           0        3.839331   -3.952926   -0.174786
     50          6           0        4.505219   -4.962030    0.714265
     51          6           0        4.679442   -3.065814   -1.107097
     52          6           0        4.357049   -1.593139   -1.373015
     53          6           0        5.677448   -0.807334   -1.701897
     54          6           0        6.009776    0.253298   -0.644019
     55          6           0        5.384183    1.643417   -0.854429
     56          6           0        7.604177    0.414603   -0.807434
     57          6           0        8.410409   -0.624573    0.016378
     58          6           0        9.306783   -0.165982    1.207988
     59          6           0       10.811655   -0.321405    1.022380
     60          6           0       11.615145   -0.053557    2.313461
     61          6           0       11.308668    0.704650   -0.127136
     62          6           0       12.480793    0.278747   -1.010086
     63          6           0       13.608465    1.378136   -0.978042
     64          6           0       14.623756    0.966272   -2.082025
     65          6           0       16.015221    1.046681   -1.566372
     66          6           0       14.453858    1.984714   -3.329612
     67          1           0       -1.275225   -0.074055    3.722271
     68          1           0       -2.498486    5.322184    0.369500
     69          1           0       -7.569768    2.749028   -2.396012
     70          1           0       -4.616062   -3.373557    2.386910
     71          1           0       -1.924137   -2.580973    2.994439
     72          1           0       -2.657718   -2.241705    5.098855
     73          1           0       -3.997327   -3.166330    4.640475
     74          1           0       -4.096493   -1.361071    4.716728
     75          1           0       -3.468894   -4.621171    0.457125
     76          1           0       -2.376805   -4.613043    1.724152
     77          1           0       -1.429399   -2.462803    0.643688
     78          1           0       -2.326665   -3.057336   -0.787335
     79          1           0       -0.406904    3.161831    5.000350
     80          1           0        0.945480    2.567807    4.049374
     81          1           0       -0.317341    1.453346    4.780642
     82          1           0       -0.521750    6.272062    0.946069
     83          1           0       -0.201562    7.145309    2.436531
     84          1           0       -1.887233    6.665230    1.973041
     85          1           0       -3.935222    5.381375   -2.259094
     86          1           0       -6.711692    5.262957   -1.334899
     87          1           0       -3.827979    7.404450   -0.945689
     88          1           0       -4.353035    6.514966    0.423560
     89          1           0       -5.557082    7.140966   -0.725190
     90          1           0       -6.027673    3.978256   -3.941590
     91          1           0       -5.483772    5.767840   -3.684326
     92          1           0       -7.650535    6.359383   -3.171794
     93          1           0       -8.241673    4.698371   -3.585726
     94          1           0       -7.386799    5.724697   -4.802155
     95          1           0       -9.091150   -0.486693   -3.525257
     96          1           0       -9.066981    1.120636   -2.928146
     97          1           0       -9.934843   -0.156510   -1.956937
     98          1           0       -6.525570   -3.604237    0.806968
     99          1           0       -4.772186   -6.134569   -2.318220
    100          1           0       -6.186820   -7.120331   -1.882992
    101          1           0       -4.624325   -7.260631   -1.093249
    102          1           0        1.289181   -5.640706    0.344204
    103          1           0        1.907977   -4.614692    1.703194
    104          1           0        2.057881   -3.199610   -0.931069
    105          1           0        4.347348   -4.689564    1.757577
    106          1           0        5.593434   -4.999578    0.654956
    107          1           0        4.058434   -5.920484    0.451612
    108          1           0        4.543793   -3.566990   -2.066348
    109          1           0        5.701689   -3.216521   -0.760840
    110          1           0        3.731435   -1.136087   -0.606084
    111          1           0        3.834435   -1.632662   -2.329178
    112          1           0        5.556684   -0.264547   -2.639027
    113          1           0        6.458177   -1.530814   -1.937388
    114          1           0        5.773669   -0.186346    0.325445
    115          1           0        4.573279    1.452285   -1.558586
    116          1           0        6.047822    2.401170   -1.268962
    117          1           0        5.054212    1.973080    0.130342
    118          1           0        7.888018    1.414672   -0.479277
    119          1           0        7.857727    0.246553   -1.853736
    120          1           0        9.114133   -1.236909   -0.548419
    121          1           0        7.672718   -1.367099    0.320108
    122          1           0        8.847014   -0.444388    2.156737
    123          1           0        9.288028    0.920189    1.293164
    124          1           0       11.128276   -1.236601    0.522195
    125          1           0       12.492278    0.581044    2.187177
    126          1           0       11.962879   -0.954930    2.818620
    127          1           0       10.967182    0.419664    3.051272
    128          1           0       11.497371    1.666492    0.349131
    129          1           0       10.536719    0.825035   -0.887702
    130          1           0       12.088505    0.123129   -2.014935
    131          1           0       12.903726   -0.664293   -0.662658
    132          1           0       14.017562    1.460737    0.028825
    133          1           0       13.255056    2.390403   -1.173194
    134          1           0       14.369933    0.010657   -2.541360
    135          1           0       16.048581    1.398604   -0.535633
    136          1           0       16.579383    1.823412   -2.083677
    137          1           0       16.494211    0.100989   -1.819074
    138          1           0       13.556324    1.756304   -3.903372
    139          1           0       15.250593    1.986644   -4.073612
    140          1           0       14.349045    3.002845   -2.955294
 ---------------------------------------------------------------------

 SCF Done:  E(RCAM-B3LYP) =  -3007.15507343     A.U. after   17 cycles

 Excitation energies and oscillator strengths:

 Excited State   1:      Singlet-A      1.7032 eV  727.94 nm  f=0.3971  <S**2>=0.000
     245 -> 248       -0.17013
     246 -> 247        0.68740
     245 <- 248       -0.10442
 This state for optimization and/or second-order correction.
 Total Energy, E(TD-HF/TD-DFT) =  -3007.09248163
 Copying the excited state density for this state as the 1-particle RhoCI density.

 Excited State   2:      Singlet-A      2.1732 eV  570.51 nm  f=0.1439  <S**2>=0.000
     245 -> 247        0.65257
     246 -> 248        0.24493

 Excited State   3:      Singlet-A      2.9870 eV  415.08 nm  f=0.0098  <S**2>=0.000
     244 -> 247        0.68202

 Excited State   4:      Singlet-A      3.2728 eV  378.83 nm  f=0.0087  <S**2>=0.000
     241 -> 247       -0.13555
     241 -> 249        0.12801
     242 -> 247        0.65597

 Excited State   5:      Singlet-A      3.3412 eV  371.07 nm  f=0.0020  <S**2>=0.000
     241 -> 247        0.57539
     241 -> 249       -0.20872
     241 -> 251       -0.18649
     242 -> 247        0.19612

 The electronic state is 1-A.
 Alpha  occ. eigenvalues --  -46.89340 -19.25501 -19.25049 -19.19630 -19.19251
 Alpha  occ. eigenvalues --  -19.19114 -19.18128 -14.42519 -14.42517 -14.40334
 Alpha  occ. eigenvalues --  -14.37942 -10.39248 -10.38800 -10.35949 -10.34431
 Alpha  occ. eigenvalues --  -10.32021 -10.31735 -10.31523 -10.31494 -10.31482
 Alpha  occ. eigenvalues --  -10.30999 -10.30966 -10.30951 -10.29052 -10.28920
 Alpha  occ. eigenvalues --  -10.28478 -10.28317 -10.28146 -10.27966 -10.27958
 Alpha  occ. eigenvalues --  -10.27951 -10.27901 -10.27790 -10.27491 -10.27349
 Alpha  occ. eigenvalues --  -10.27276 -10.27125 -10.27011 -10.26998 -10.26754
 Alpha  occ. eigenvalues --  -10.26618 -10.26413 -10.26288 -10.25805 -10.25804
 Alpha  occ. eigenvalues --  -10.25793 -10.25701 -10.25669 -10.25651 -10.25587
 Alpha  occ. eigenvalues --  -10.25417 -10.25105 -10.24903 -10.24727 -10.24722
 Alpha  occ. eigenvalues --  -10.24701 -10.24643 -10.24534 -10.24471 -10.24438
 Alpha  occ. eigenvalues --  -10.24381 -10.24317 -10.24306 -10.24013 -10.23970
 Alpha  occ. eigenvalues --  -10.23654  -3.17743  -1.92643  -1.92205  -1.92034
 Alpha  occ. eigenvalues --   -1.16807  -1.16000  -1.10360  -1.07856  -1.07322
 Alpha  occ. eigenvalues --   -1.07031  -1.05196  -1.04378  -1.03227  -1.02407
 Alpha  occ. eigenvalues --   -0.93357  -0.90175  -0.89662  -0.89475  -0.89199
 Alpha  occ. eigenvalues --   -0.88852  -0.88366  -0.88035  -0.87258  -0.86953
 Alpha  occ. eigenvalues --   -0.85918  -0.85573  -0.84085  -0.83955  -0.83491
 Alpha  occ. eigenvalues --   -0.82685  -0.82278  -0.81526  -0.80971  -0.80364
 Alpha  occ. eigenvalues --   -0.79871  -0.78088  -0.77606  -0.77470  -0.76681
 Alpha  occ. eigenvalues --   -0.75734  -0.75651  -0.74971  -0.74566  -0.73729
 Alpha  occ. eigenvalues --   -0.73328  -0.72800  -0.72409  -0.70077  -0.68804
 Alpha  occ. eigenvalues --   -0.68524  -0.68027  -0.67056  -0.66499  -0.65893
 Alpha  occ. eigenvalues --   -0.65384  -0.65034  -0.64887  -0.64542  -0.63936
 Alpha  occ. eigenvalues --   -0.63384  -0.63183  -0.62769  -0.62348  -0.60488
 Alpha  occ. eigenvalues --   -0.59639  -0.59479  -0.59251  -0.59246  -0.58464
 Alpha  occ. eigenvalues --   -0.58166  -0.57964  -0.56747  -0.56228  -0.55782
 Alpha  occ. eigenvalues --   -0.55486  -0.54722  -0.54069  -0.53973  -0.53751
 Alpha  occ. eigenvalues --   -0.53559  -0.53375  -0.53195  -0.52972  -0.52773
 Alpha  occ. eigenvalues --   -0.52663  -0.52277  -0.52072  -0.51689  -0.51534
 Alpha  occ. eigenvalues --   -0.51375  -0.51298  -0.50974  -0.50906  -0.50625
 Alpha  occ. eigenvalues --   -0.50284  -0.50076  -0.49979  -0.49806  -0.49403
 Alpha  occ. eigenvalues --   -0.49266  -0.49171  -0.48933  -0.48893  -0.48702
 Alpha  occ. eigenvalues --   -0.48580  -0.48407  -0.47957  -0.47751  -0.47643
 Alpha  occ. eigenvalues --   -0.47428  -0.47345  -0.47159  -0.47008  -0.46829
 Alpha  occ. eigenvalues --   -0.46565  -0.46293  -0.46028  -0.45820  -0.45562
 Alpha  occ. eigenvalues --   -0.45279  -0.45243  -0.45097  -0.44936  -0.44732
 Alpha  occ. eigenvalues --   -0.44508  -0.44200  -0.44067  -0.44022  -0.43890
 Alpha  occ. eigenvalues --   -0.43455  -0.43380  -0.42923  -0.42884  -0.42743
 Alpha  occ. eigenvalues --   -0.42691  -0.42577  -0.42361  -0.42261  -0.41988
 Alpha  occ. eigenvalues --   -0.41750  -0.41474  -0.41334  -0.41191  -0.40950
 Alpha  occ. eigenvalues --   -0.40899  -0.40689  -0.40540  -0.40395  -0.40262
 Alpha  occ. eigenvalues --   -0.40063  -0.39961  -0.39599  -0.39341  -0.39051
 Alpha  occ. eigenvalues --   -0.38721  -0.38039  -0.37749  -0.37664  -0.37397
 Alpha  occ. eigenvalues --   -0.37221  -0.37041  -0.36856  -0.36658  -0.35891
 Alpha  occ. eigenvalues --   -0.35225  -0.35155  -0.34395  -0.33991  -0.33883
 Alpha  occ. eigenvalues --   -0.33653  -0.33600  -0.33557  -0.31855  -0.31218
 Alpha  occ. eigenvalues --   -0.30461  -0.30056  -0.29131  -0.28846  -0.24357
 Alpha  occ. eigenvalues --   -0.21861
 Alpha virt. eigenvalues --   -0.09525  -0.01960   0.00524   0.01714   0.02056
 Alpha virt. eigenvalues --    0.04985   0.05628   0.05772   0.06438   0.06615
 Alpha virt. eigenvalues --    0.07961   0.08177   0.08827   0.09059   0.09299

 Mulliken charges:
               1
     1  Mg   0.808309
     2  C   -0.050924
     3  C   -0.055254
     4  C   -0.058727
     5  C   -0.082672
     6  N   -0.313015
     7  C   -0.023935
     8  C   -0.017987
     9  C   -0.043712
    10  C    0.070825
    11  C    0.079200
    12  C    0.015086
    13  C    0.098587
    14  C    0.148294
    15  O   -0.254542
    16  O   -0.312649
    17  N   -0.367746
    18  C    0.092093
    19  C   -0.151100
    20  C   -0.068806
    21  C    0.156746
    22  C    0.151307
    23  C    0.016243
    24  O   -0.206341
    25  C    0.044892
    26  N   -0.258130
    27  C    0.031869
    28  C   -0.037734
    29  C   -0.018412
    30  C    0.006261
    31  C    0.032872
    32  C    0.017600
    33  C   -0.013300
    34  N   -0.326721
    35  C    0.158799
    36  C   -0.188682
    37  C    0.010521
    38  C    0.117390
    39  C    0.138195
    40  C    0.037395
    41  O   -0.208709
    42  C    0.092542
    43  C    0.200087
    44  O   -0.224416
    45  O   -0.322794
    46  C    0.164368
    47  C    0.271153
    48  C   -0.140280
    49  C   -0.193979
    50  C    0.070269
    51  C    0.061290
    52  C    0.053459
    53  C    0.019835
    54  C   -0.151376
    55  C    0.080774
    56  C    0.043389
    57  C    0.015098
    58  C    0.056658
    59  C   -0.107188
    60  C    0.059327
    61  C   -0.001069
    62  C    0.006810
    63  C    0.025165
    64  C   -0.153689
    65  C    0.089185
    66  C    0.007408
    67  H   -0.022562
    68  H   -0.054304
    69  H   -0.043003
    70  H   -0.001285
    71  H    0.012872
    72  H    0.005668
    73  H    0.019916
    74  H    0.023857
    75  H    0.020611
    76  H    0.002947
    77  H    0.018774
    78  H    0.053186
    79  H    0.030342
    80  H    0.049331
    81  H   -0.004169
    82  H    0.045896
    83  H    0.027155
    84  H    0.045476
    85  H    0.027798
    86  H    0.012871
    87  H    0.017892
    88  H    0.019630
    89  H    0.014502
    90  H    0.027596
    91  H    0.011525
    92  H    0.010050
    93  H    0.018061
    94  H    0.016234
    95  H    0.038088
    96  H   -0.009867
    97  H    0.044439
    98  H    0.028367
    99  H    0.046757
   100  H    0.050002
   101  H    0.043700
   102  H    0.039498
   103  H    0.021612
   104  H    0.005713
   105  H    0.022049
   106  H    0.008027
   107  H    0.038641
   108  H    0.023103
   109  H   -0.009311
   110  H    0.014040
   111  H   -0.005535
   112  H   -0.016146
   113  H    0.002739
   114  H   -0.001746
   115  H    0.004799
   116  H    0.016738
   117  H    0.016119
   118  H   -0.003031
   119  H    0.001155
   120  H   -0.013293
   121  H   -0.014838
   122  H   -0.007052
   123  H   -0.013701
   124  H   -0.011410
   125  H    0.007504
   126  H    0.006643
   127  H   -0.000275
   128  H   -0.002355
   129  H   -0.004637
   130  H    0.001236
   131  H    0.003051
   132  H    0.000534
   133  H   -0.000970
   134  H    0.008719
   135  H    0.002439
   136  H   -0.009564
   137  H    0.012232
   138  H   -0.000812
   139  H    0.008336
   140  H    0.005982
 Sum of Mulliken charges =  -0.00000

 Dipole moment (field-independent basis, Debye):
    X=              0.6892    Y=              3.9698    Z=              2.0145  Tot=              4.5047
 Quadrupole moment (field-independent basis, Debye-Ang):
   XX=           -417.6117   YY=           -387.5768   ZZ=           -400.2506
   XY=            -46.4963   XZ=            -12.6094   YZ=            -31.7051

 Normal termination of Gaussian 16 at Fri Apr 29 06:38:19 2022.
