 Gaussian 16, Revision A.03,
 Gaussian 16:  ES64L-G16RevA.03 25-Dec-2016

 ---------------------------------
 #p PBE1PBE/Def2SVP td=(nstates=5)
 ---------------------------------

 -----------------------------------------------------
 step_201_chromophore_11 TDDFT with PBE1PBE functional
 -----------------------------------------------------
 Symbolic Z-matrix:
 Charge =  0 Multiplicity = 1

                         Standard orientation:
 ---------------------------------------------------------------------
 Center     Atomic      Atomic             Coordinates (Angstroms)
 Number     Number       Type             X           Y           Z
 ---------------------------------------------------------------------
      1         12           0       -4.361943    1.300942    0.614773
      2          6           0       -5.475151   -1.919722    0.199775
      3          6           0       -1.970919    0.189785    2.922568
      4          6           0       -2.867078    4.294105    0.381923
      5          6           0       -6.781430    2.285642   -1.798153
      6          7           0       -3.708816   -0.633685    1.273733
      7          6           0       -4.377041   -1.754046    1.026917
      8          6           0       -3.782219   -2.883896    1.883722
      9          6           0       -2.931716   -2.164832    2.981543
     10          6           0       -2.803689   -0.763868    2.393247
     11          6           0       -3.503118   -2.222781    4.410266
     12          6           0       -2.867746   -3.922613    1.037851
     13          6           0       -1.820346   -3.343703    0.134346
     14          6           0       -0.686047   -4.241645   -0.101282
     15          8           0       -0.761999   -5.330095   -0.701240
     16          8           0        0.410253   -3.757998    0.549211
     17          7           0       -2.661076    2.163048    1.518843
     18          6           0       -1.906338    1.590312    2.588719
     19          6           0       -1.060237    2.638002    3.186050
     20          6           0       -1.264621    3.824900    2.386878
     21          6           0       -2.291540    3.433409    1.374468
     22          6           0       -0.106086    2.399020    4.281224
     23          6           0       -0.515062    5.152241    2.744707
     24          8           0        0.317513    5.196687    3.648233
     25          6           0       -0.834835    6.382299    1.984053
     26          7           0       -4.733528    2.993386   -0.665932
     27          6           0       -4.011473    4.115924   -0.489404
     28          6           0       -4.557882    5.231066   -1.377210
     29          6           0       -5.923322    4.698925   -1.833585
     30          6           0       -5.816140    3.226107   -1.438945
     31          6           0       -4.575668    6.675872   -0.630319
     32          6           0       -6.090388    4.914166   -3.384394
     33          6           0       -7.472372    5.452115   -3.749803
     34          7           0       -5.929777    0.406445   -0.575820
     35          6           0       -6.843240    0.947552   -1.464146
     36          6           0       -7.787218   -0.061055   -1.770131
     37          6           0       -7.228266   -1.232240   -1.146407
     38          6           0       -6.116550   -0.894713   -0.530773
     39          6           0       -9.083021    0.082391   -2.594884
     40          6           0       -7.451514   -2.668757   -0.927620
     41          8           0       -8.329801   -3.485793   -1.303130
     42          6           0       -6.277761   -3.161201   -0.157540
     43          6           0       -5.546940   -4.156460   -0.980672
     44          8           0       -4.772502   -3.777689   -1.849855
     45          8           0       -5.822792   -5.432640   -0.622911
     46          6           0       -5.347229   -6.547904   -1.490218
     47          6           0        1.518906   -4.630965    0.685164
     48          6           0        2.523788   -3.960897   -0.305245
     49          6           0        3.839331   -3.952926   -0.174786
     50          6           0        4.505219   -4.962030    0.714265
     51          6           0        4.679442   -3.065814   -1.107097
     52          6           0        4.357049   -1.593139   -1.373015
     53          6           0        5.677448   -0.807334   -1.701897
     54          6           0        6.009776    0.253298   -0.644019
     55          6           0        5.384183    1.643417   -0.854429
     56          6           0        7.604177    0.414603   -0.807434
     57          6           0        8.410409   -0.624573    0.016378
     58          6           0        9.306783   -0.165982    1.207988
     59          6           0       10.811655   -0.321405    1.022380
     60          6           0       11.615145   -0.053557    2.313461
     61          6           0       11.308668    0.704650   -0.127136
     62          6           0       12.480793    0.278747   -1.010086
     63          6           0       13.608465    1.378136   -0.978042
     64          6           0       14.623756    0.966272   -2.082025
     65          6           0       16.015221    1.046681   -1.566372
     66          6           0       14.453858    1.984714   -3.329612
     67          1           0       -1.275225   -0.074055    3.722271
     68          1           0       -2.498486    5.322184    0.369500
     69          1           0       -7.569768    2.749028   -2.396012
     70          1           0       -4.616062   -3.373557    2.386910
     71          1           0       -1.924137   -2.580973    2.994439
     72          1           0       -2.657718   -2.241705    5.098855
     73          1           0       -3.997327   -3.166330    4.640475
     74          1           0       -4.096493   -1.361071    4.716728
     75          1           0       -3.468894   -4.621171    0.457125
     76          1           0       -2.376805   -4.613043    1.724152
     77          1           0       -1.429399   -2.462803    0.643688
     78          1           0       -2.326665   -3.057336   -0.787335
     79          1           0       -0.406904    3.161831    5.000350
     80          1           0        0.945480    2.567807    4.049374
     81          1           0       -0.317341    1.453346    4.780642
     82          1           0       -0.521750    6.272062    0.946069
     83          1           0       -0.201562    7.145309    2.436531
     84          1           0       -1.887233    6.665230    1.973041
     85          1           0       -3.935222    5.381375   -2.259094
     86          1           0       -6.711692    5.262957   -1.334899
     87          1           0       -3.827979    7.404450   -0.945689
     88          1           0       -4.353035    6.514966    0.423560
     89          1           0       -5.557082    7.140966   -0.725190
     90          1           0       -6.027673    3.978256   -3.941590
     91          1           0       -5.483772    5.767840   -3.684326
     92          1           0       -7.650535    6.359383   -3.171794
     93          1           0       -8.241673    4.698371   -3.585726
     94          1           0       -7.386799    5.724697   -4.802155
     95          1           0       -9.091150   -0.486693   -3.525257
     96          1           0       -9.066981    1.120636   -2.928146
     97          1           0       -9.934843   -0.156510   -1.956937
     98          1           0       -6.525570   -3.604237    0.806968
     99          1           0       -4.772186   -6.134569   -2.318220
    100          1           0       -6.186820   -7.120331   -1.882992
    101          1           0       -4.624325   -7.260631   -1.093249
    102          1           0        1.289181   -5.640706    0.344204
    103          1           0        1.907977   -4.614692    1.703194
    104          1           0        2.057881   -3.199610   -0.931069
    105          1           0        4.347348   -4.689564    1.757577
    106          1           0        5.593434   -4.999578    0.654956
    107          1           0        4.058434   -5.920484    0.451612
    108          1           0        4.543793   -3.566990   -2.066348
    109          1           0        5.701689   -3.216521   -0.760840
    110          1           0        3.731435   -1.136087   -0.606084
    111          1           0        3.834435   -1.632662   -2.329178
    112          1           0        5.556684   -0.264547   -2.639027
    113          1           0        6.458177   -1.530814   -1.937388
    114          1           0        5.773669   -0.186346    0.325445
    115          1           0        4.573279    1.452285   -1.558586
    116          1           0        6.047822    2.401170   -1.268962
    117          1           0        5.054212    1.973080    0.130342
    118          1           0        7.888018    1.414672   -0.479277
    119          1           0        7.857727    0.246553   -1.853736
    120          1           0        9.114133   -1.236909   -0.548419
    121          1           0        7.672718   -1.367099    0.320108
    122          1           0        8.847014   -0.444388    2.156737
    123          1           0        9.288028    0.920189    1.293164
    124          1           0       11.128276   -1.236601    0.522195
    125          1           0       12.492278    0.581044    2.187177
    126          1           0       11.962879   -0.954930    2.818620
    127          1           0       10.967182    0.419664    3.051272
    128          1           0       11.497371    1.666492    0.349131
    129          1           0       10.536719    0.825035   -0.887702
    130          1           0       12.088505    0.123129   -2.014935
    131          1           0       12.903726   -0.664293   -0.662658
    132          1           0       14.017562    1.460737    0.028825
    133          1           0       13.255056    2.390403   -1.173194
    134          1           0       14.369933    0.010657   -2.541360
    135          1           0       16.048581    1.398604   -0.535633
    136          1           0       16.579383    1.823412   -2.083677
    137          1           0       16.494211    0.100989   -1.819074
    138          1           0       13.556324    1.756304   -3.903372
    139          1           0       15.250593    1.986644   -4.073612
    140          1           0       14.349045    3.002845   -2.955294
 ---------------------------------------------------------------------

 SCF Done:  E(RPBE1PBE) =  -3005.34360963     A.U. after   15 cycles

 Excitation energies and oscillator strengths:

 Excited State   1:      Singlet-A      1.8564 eV  667.86 nm  f=0.3813  <S**2>=0.000
     245 -> 248       -0.16440
     246 -> 247        0.69419
     246 <- 247       -0.11174
 This state for optimization and/or second-order correction.
 Total Energy, E(TD-HF/TD-DFT) =  -3005.27538719
 Copying the excited state density for this state as the 1-particle RhoCI density.

 Excited State   2:      Singlet-A      2.1929 eV  565.38 nm  f=0.1277  <S**2>=0.000
     243 -> 247       -0.11506
     245 -> 247        0.65686
     246 -> 248        0.21950

 Excited State   3:      Singlet-A      2.6624 eV  465.68 nm  f=0.0120  <S**2>=0.000
     242 -> 247       -0.12516
     243 -> 247        0.67250

 Excited State   4:      Singlet-A      2.7862 eV  444.99 nm  f=0.0024  <S**2>=0.000
     242 -> 247        0.66761
     242 -> 249       -0.10723
     243 -> 247        0.14018

 Excited State   5:      Singlet-A      2.9560 eV  419.43 nm  f=0.0153  <S**2>=0.000
     241 -> 247        0.68972

 The electronic state is 1-A.
 Alpha  occ. eigenvalues --  -46.92719 -19.26187 -19.25765 -19.19759 -19.19538
 Alpha  occ. eigenvalues --  -19.19421 -19.18450 -14.42079 -14.41965 -14.39892
 Alpha  occ. eigenvalues --  -14.37697 -10.36304 -10.35818 -10.33004 -10.31640
 Alpha  occ. eigenvalues --  -10.29659 -10.29406 -10.29056 -10.28894 -10.28778
 Alpha  occ. eigenvalues --  -10.28749 -10.28709 -10.28595 -10.26879 -10.26477
 Alpha  occ. eigenvalues --  -10.26287 -10.26171 -10.25929 -10.25811 -10.25728
 Alpha  occ. eigenvalues --  -10.25576 -10.25536 -10.25444 -10.25230 -10.25158
 Alpha  occ. eigenvalues --  -10.24974 -10.24650 -10.24626 -10.24612 -10.24422
 Alpha  occ. eigenvalues --  -10.24077 -10.23783 -10.23657 -10.23493 -10.23335
 Alpha  occ. eigenvalues --  -10.23283 -10.23254 -10.23175 -10.23139 -10.23093
 Alpha  occ. eigenvalues --  -10.23028 -10.22647 -10.22449 -10.22306 -10.22305
 Alpha  occ. eigenvalues --  -10.22234 -10.22227 -10.22119 -10.22070 -10.22006
 Alpha  occ. eigenvalues --  -10.21801 -10.21749 -10.21740 -10.21583 -10.21533
 Alpha  occ. eigenvalues --  -10.21011  -3.14707  -1.87547  -1.87087  -1.86919
 Alpha  occ. eigenvalues --   -1.11651  -1.10800  -1.05003  -1.02662  -1.02139
 Alpha  occ. eigenvalues --   -1.01875  -0.99873  -0.99104  -0.97808  -0.96993
 Alpha  occ. eigenvalues --   -0.87819  -0.84313  -0.83941  -0.83649  -0.83346
 Alpha  occ. eigenvalues --   -0.83081  -0.82509  -0.82332  -0.81366  -0.81187
 Alpha  occ. eigenvalues --   -0.80167  -0.79954  -0.78407  -0.78122  -0.77627
 Alpha  occ. eigenvalues --   -0.76921  -0.76430  -0.75802  -0.75303  -0.74659
 Alpha  occ. eigenvalues --   -0.74010  -0.72426  -0.71893  -0.71718  -0.71003
 Alpha  occ. eigenvalues --   -0.70056  -0.69834  -0.69049  -0.68698  -0.67919
 Alpha  occ. eigenvalues --   -0.67699  -0.67176  -0.66828  -0.64376  -0.63236
 Alpha  occ. eigenvalues --   -0.62969  -0.62281  -0.61452  -0.60703  -0.60250
 Alpha  occ. eigenvalues --   -0.59957  -0.59355  -0.59195  -0.59097  -0.58055
 Alpha  occ. eigenvalues --   -0.57843  -0.57388  -0.57313  -0.56528  -0.55007
 Alpha  occ. eigenvalues --   -0.54260  -0.54057  -0.53755  -0.53626  -0.53028
 Alpha  occ. eigenvalues --   -0.52672  -0.52389  -0.51267  -0.50741  -0.50393
 Alpha  occ. eigenvalues --   -0.50029  -0.49244  -0.48573  -0.48444  -0.48184
 Alpha  occ. eigenvalues --   -0.48060  -0.47936  -0.47807  -0.47571  -0.47331
 Alpha  occ. eigenvalues --   -0.47212  -0.46597  -0.46517  -0.46196  -0.46049
 Alpha  occ. eigenvalues --   -0.45899  -0.45861  -0.45525  -0.45450  -0.45284
 Alpha  occ. eigenvalues --   -0.44823  -0.44587  -0.44534  -0.44326  -0.43925
 Alpha  occ. eigenvalues --   -0.43850  -0.43771  -0.43613  -0.43434  -0.43323
 Alpha  occ. eigenvalues --   -0.43213  -0.42972  -0.42622  -0.42376  -0.42262
 Alpha  occ. eigenvalues --   -0.42076  -0.42021  -0.41729  -0.41682  -0.41540
 Alpha  occ. eigenvalues --   -0.41248  -0.40984  -0.40628  -0.40444  -0.40346
 Alpha  occ. eigenvalues --   -0.40077  -0.39887  -0.39810  -0.39636  -0.39383
 Alpha  occ. eigenvalues --   -0.39225  -0.39002  -0.38854  -0.38777  -0.38691
 Alpha  occ. eigenvalues --   -0.38267  -0.38113  -0.37674  -0.37589  -0.37550
 Alpha  occ. eigenvalues --   -0.37490  -0.37318  -0.37198  -0.37004  -0.36797
 Alpha  occ. eigenvalues --   -0.36616  -0.36351  -0.36199  -0.36013  -0.35742
 Alpha  occ. eigenvalues --   -0.35649  -0.35478  -0.35385  -0.35253  -0.35166
 Alpha  occ. eigenvalues --   -0.34820  -0.34652  -0.34385  -0.34330  -0.33880
 Alpha  occ. eigenvalues --   -0.33625  -0.32826  -0.32738  -0.32526  -0.32331
 Alpha  occ. eigenvalues --   -0.32213  -0.32087  -0.31639  -0.31612  -0.30700
 Alpha  occ. eigenvalues --   -0.30222  -0.29997  -0.29743  -0.29476  -0.28693
 Alpha  occ. eigenvalues --   -0.28611  -0.28530  -0.28379  -0.26931  -0.26490
 Alpha  occ. eigenvalues --   -0.25609  -0.25331  -0.24545  -0.24368  -0.21329
 Alpha  occ. eigenvalues --   -0.19441
 Alpha virt. eigenvalues --   -0.11895  -0.05511  -0.03666  -0.02392  -0.01025
 Alpha virt. eigenvalues --    0.00356   0.01071   0.01271   0.02113   0.02498
 Alpha virt. eigenvalues --    0.04263   0.04527   0.04884   0.05745   0.05910

 Mulliken charges:
               1
     1  Mg   0.951107
     2  C   -0.061887
     3  C   -0.045183
     4  C   -0.050900
     5  C   -0.082253
     6  N   -0.417759
     7  C    0.054009
     8  C   -0.089334
     9  C   -0.118785
    10  C    0.090604
    11  C    0.023033
    12  C   -0.036595
    13  C    0.012767
    14  C    0.222019
    15  O   -0.288238
    16  O   -0.344239
    17  N   -0.480027
    18  C    0.113406
    19  C   -0.179818
    20  C   -0.102568
    21  C    0.180895
    22  C    0.089363
    23  C    0.062623
    24  O   -0.242536
    25  C   -0.030803
    26  N   -0.369296
    27  C    0.070594
    28  C   -0.109293
    29  C   -0.099225
    30  C    0.054654
    31  C   -0.028601
    32  C   -0.045520
    33  C   -0.085794
    34  N   -0.450153
    35  C    0.173779
    36  C   -0.193327
    37  C   -0.040073
    38  C    0.185202
    39  C    0.085546
    40  C    0.124832
    41  O   -0.253229
    42  C   -0.021173
    43  C    0.291485
    44  O   -0.257364
    45  O   -0.356734
    46  C    0.111348
    47  C    0.225201
    48  C   -0.146728
    49  C   -0.232990
    50  C    0.003163
    51  C    0.001719
    52  C   -0.015731
    53  C   -0.031828
    54  C   -0.235549
    55  C    0.020248
    56  C   -0.015798
    57  C   -0.046281
    58  C    0.004986
    59  C   -0.200276
    60  C    0.001663
    61  C   -0.053384
    62  C   -0.056658
    63  C   -0.025099
    64  C   -0.249202
    65  C    0.030190
    66  C   -0.053694
    67  H    0.008754
    68  H   -0.018377
    69  H   -0.006565
    70  H    0.036114
    71  H    0.048879
    72  H    0.033465
    73  H    0.047124
    74  H    0.051149
    75  H    0.058285
    76  H    0.037006
    77  H    0.056645
    78  H    0.086171
    79  H    0.059129
    80  H    0.075860
    81  H    0.023481
    82  H    0.072092
    83  H    0.054999
    84  H    0.071726
    85  H    0.064159
    86  H    0.049475
    87  H    0.045229
    88  H    0.048507
    89  H    0.041911
    90  H    0.059907
    91  H    0.045356
    92  H    0.038555
    93  H    0.045715
    94  H    0.045381
    95  H    0.065504
    96  H    0.019390
    97  H    0.071651
    98  H    0.065973
    99  H    0.066685
   100  H    0.071608
   101  H    0.064340
   102  H    0.066274
   103  H    0.048594
   104  H    0.035529
   105  H    0.049407
   106  H    0.034764
   107  H    0.065763
   108  H    0.056970
   109  H    0.023032
   110  H    0.044773
   111  H    0.028930
   112  H    0.017369
   113  H    0.034299
   114  H    0.035403
   115  H    0.032958
   116  H    0.042864
   117  H    0.044225
   118  H    0.028816
   119  H    0.033425
   120  H    0.019988
   121  H    0.020258
   122  H    0.024702
   123  H    0.020099
   124  H    0.026372
   125  H    0.034997
   126  H    0.034700
   127  H    0.026791
   128  H    0.029219
   129  H    0.032129
   130  H    0.033499
   131  H    0.035823
   132  H    0.032678
   133  H    0.030254
   134  H    0.044874
   135  H    0.029208
   136  H    0.018322
   137  H    0.039601
   138  H    0.027718
   139  H    0.036126
   140  H    0.033459
 Sum of Mulliken charges =  -0.00000

 Dipole moment (field-independent basis, Debye):
    X=              0.5220    Y=              3.9368    Z=              1.8948  Tot=              4.4001
 Quadrupole moment (field-independent basis, Debye-Ang):
   XX=           -412.9806   YY=           -383.9506   ZZ=           -396.8217
   XY=            -46.8403   XZ=            -11.5830   YZ=            -33.0007

 Normal termination of Gaussian 16 at Fri Apr 29 07:03:49 2022.
