 Gaussian 16, Revision A.03,
 Gaussian 16:  ES64L-G16RevA.03 25-Dec-2016

 --------------------------------
 #p wB97XD/Def2SVP td=(nstates=5)
 --------------------------------

 ----------------------------------------------------
 step_201_chromophore_11 TDDFT with wB97XD functional
 ----------------------------------------------------
 Symbolic Z-matrix:
 Charge =  0 Multiplicity = 1

                         Standard orientation:
 ---------------------------------------------------------------------
 Center     Atomic      Atomic             Coordinates (Angstroms)
 Number     Number       Type             X           Y           Z
 ---------------------------------------------------------------------
      1         12           0       -4.361943    1.300942    0.614773
      2          6           0       -5.475151   -1.919722    0.199775
      3          6           0       -1.970919    0.189785    2.922568
      4          6           0       -2.867078    4.294105    0.381923
      5          6           0       -6.781430    2.285642   -1.798153
      6          7           0       -3.708816   -0.633685    1.273733
      7          6           0       -4.377041   -1.754046    1.026917
      8          6           0       -3.782219   -2.883896    1.883722
      9          6           0       -2.931716   -2.164832    2.981543
     10          6           0       -2.803689   -0.763868    2.393247
     11          6           0       -3.503118   -2.222781    4.410266
     12          6           0       -2.867746   -3.922613    1.037851
     13          6           0       -1.820346   -3.343703    0.134346
     14          6           0       -0.686047   -4.241645   -0.101282
     15          8           0       -0.761999   -5.330095   -0.701240
     16          8           0        0.410253   -3.757998    0.549211
     17          7           0       -2.661076    2.163048    1.518843
     18          6           0       -1.906338    1.590312    2.588719
     19          6           0       -1.060237    2.638002    3.186050
     20          6           0       -1.264621    3.824900    2.386878
     21          6           0       -2.291540    3.433409    1.374468
     22          6           0       -0.106086    2.399020    4.281224
     23          6           0       -0.515062    5.152241    2.744707
     24          8           0        0.317513    5.196687    3.648233
     25          6           0       -0.834835    6.382299    1.984053
     26          7           0       -4.733528    2.993386   -0.665932
     27          6           0       -4.011473    4.115924   -0.489404
     28          6           0       -4.557882    5.231066   -1.377210
     29          6           0       -5.923322    4.698925   -1.833585
     30          6           0       -5.816140    3.226107   -1.438945
     31          6           0       -4.575668    6.675872   -0.630319
     32          6           0       -6.090388    4.914166   -3.384394
     33          6           0       -7.472372    5.452115   -3.749803
     34          7           0       -5.929777    0.406445   -0.575820
     35          6           0       -6.843240    0.947552   -1.464146
     36          6           0       -7.787218   -0.061055   -1.770131
     37          6           0       -7.228266   -1.232240   -1.146407
     38          6           0       -6.116550   -0.894713   -0.530773
     39          6           0       -9.083021    0.082391   -2.594884
     40          6           0       -7.451514   -2.668757   -0.927620
     41          8           0       -8.329801   -3.485793   -1.303130
     42          6           0       -6.277761   -3.161201   -0.157540
     43          6           0       -5.546940   -4.156460   -0.980672
     44          8           0       -4.772502   -3.777689   -1.849855
     45          8           0       -5.822792   -5.432640   -0.622911
     46          6           0       -5.347229   -6.547904   -1.490218
     47          6           0        1.518906   -4.630965    0.685164
     48          6           0        2.523788   -3.960897   -0.305245
     49          6           0        3.839331   -3.952926   -0.174786
     50          6           0        4.505219   -4.962030    0.714265
     51          6           0        4.679442   -3.065814   -1.107097
     52          6           0        4.357049   -1.593139   -1.373015
     53          6           0        5.677448   -0.807334   -1.701897
     54          6           0        6.009776    0.253298   -0.644019
     55          6           0        5.384183    1.643417   -0.854429
     56          6           0        7.604177    0.414603   -0.807434
     57          6           0        8.410409   -0.624573    0.016378
     58          6           0        9.306783   -0.165982    1.207988
     59          6           0       10.811655   -0.321405    1.022380
     60          6           0       11.615145   -0.053557    2.313461
     61          6           0       11.308668    0.704650   -0.127136
     62          6           0       12.480793    0.278747   -1.010086
     63          6           0       13.608465    1.378136   -0.978042
     64          6           0       14.623756    0.966272   -2.082025
     65          6           0       16.015221    1.046681   -1.566372
     66          6           0       14.453858    1.984714   -3.329612
     67          1           0       -1.275225   -0.074055    3.722271
     68          1           0       -2.498486    5.322184    0.369500
     69          1           0       -7.569768    2.749028   -2.396012
     70          1           0       -4.616062   -3.373557    2.386910
     71          1           0       -1.924137   -2.580973    2.994439
     72          1           0       -2.657718   -2.241705    5.098855
     73          1           0       -3.997327   -3.166330    4.640475
     74          1           0       -4.096493   -1.361071    4.716728
     75          1           0       -3.468894   -4.621171    0.457125
     76          1           0       -2.376805   -4.613043    1.724152
     77          1           0       -1.429399   -2.462803    0.643688
     78          1           0       -2.326665   -3.057336   -0.787335
     79          1           0       -0.406904    3.161831    5.000350
     80          1           0        0.945480    2.567807    4.049374
     81          1           0       -0.317341    1.453346    4.780642
     82          1           0       -0.521750    6.272062    0.946069
     83          1           0       -0.201562    7.145309    2.436531
     84          1           0       -1.887233    6.665230    1.973041
     85          1           0       -3.935222    5.381375   -2.259094
     86          1           0       -6.711692    5.262957   -1.334899
     87          1           0       -3.827979    7.404450   -0.945689
     88          1           0       -4.353035    6.514966    0.423560
     89          1           0       -5.557082    7.140966   -0.725190
     90          1           0       -6.027673    3.978256   -3.941590
     91          1           0       -5.483772    5.767840   -3.684326
     92          1           0       -7.650535    6.359383   -3.171794
     93          1           0       -8.241673    4.698371   -3.585726
     94          1           0       -7.386799    5.724697   -4.802155
     95          1           0       -9.091150   -0.486693   -3.525257
     96          1           0       -9.066981    1.120636   -2.928146
     97          1           0       -9.934843   -0.156510   -1.956937
     98          1           0       -6.525570   -3.604237    0.806968
     99          1           0       -4.772186   -6.134569   -2.318220
    100          1           0       -6.186820   -7.120331   -1.882992
    101          1           0       -4.624325   -7.260631   -1.093249
    102          1           0        1.289181   -5.640706    0.344204
    103          1           0        1.907977   -4.614692    1.703194
    104          1           0        2.057881   -3.199610   -0.931069
    105          1           0        4.347348   -4.689564    1.757577
    106          1           0        5.593434   -4.999578    0.654956
    107          1           0        4.058434   -5.920484    0.451612
    108          1           0        4.543793   -3.566990   -2.066348
    109          1           0        5.701689   -3.216521   -0.760840
    110          1           0        3.731435   -1.136087   -0.606084
    111          1           0        3.834435   -1.632662   -2.329178
    112          1           0        5.556684   -0.264547   -2.639027
    113          1           0        6.458177   -1.530814   -1.937388
    114          1           0        5.773669   -0.186346    0.325445
    115          1           0        4.573279    1.452285   -1.558586
    116          1           0        6.047822    2.401170   -1.268962
    117          1           0        5.054212    1.973080    0.130342
    118          1           0        7.888018    1.414672   -0.479277
    119          1           0        7.857727    0.246553   -1.853736
    120          1           0        9.114133   -1.236909   -0.548419
    121          1           0        7.672718   -1.367099    0.320108
    122          1           0        8.847014   -0.444388    2.156737
    123          1           0        9.288028    0.920189    1.293164
    124          1           0       11.128276   -1.236601    0.522195
    125          1           0       12.492278    0.581044    2.187177
    126          1           0       11.962879   -0.954930    2.818620
    127          1           0       10.967182    0.419664    3.051272
    128          1           0       11.497371    1.666492    0.349131
    129          1           0       10.536719    0.825035   -0.887702
    130          1           0       12.088505    0.123129   -2.014935
    131          1           0       12.903726   -0.664293   -0.662658
    132          1           0       14.017562    1.460737    0.028825
    133          1           0       13.255056    2.390403   -1.173194
    134          1           0       14.369933    0.010657   -2.541360
    135          1           0       16.048581    1.398604   -0.535633
    136          1           0       16.579383    1.823412   -2.083677
    137          1           0       16.494211    0.100989   -1.819074
    138          1           0       13.556324    1.756304   -3.903372
    139          1           0       15.250593    1.986644   -4.073612
    140          1           0       14.349045    3.002845   -2.955294
 ---------------------------------------------------------------------

 SCF Done:  E(RwB97XD) =  -3007.85288742     A.U. after   17 cycles

 Excitation energies and oscillator strengths:

 Excited State   1:      Singlet-A      1.6459 eV  753.31 nm  f=0.3959  <S**2>=0.000
     245 -> 248       -0.17569
     246 -> 247        0.68530
     245 <- 248       -0.11381
 This state for optimization and/or second-order correction.
 Total Energy, E(TD-HF/TD-DFT) =  -3007.79240329
 Copying the excited state density for this state as the 1-particle RhoCI density.

 Excited State   2:      Singlet-A      2.1168 eV  585.71 nm  f=0.1390  <S**2>=0.000
     245 -> 247        0.64958
     246 -> 248        0.24928

 Excited State   3:      Singlet-A      3.0088 eV  412.07 nm  f=0.0091  <S**2>=0.000
     244 -> 247        0.67357

 Excited State   4:      Singlet-A      3.3085 eV  374.75 nm  f=0.0066  <S**2>=0.000
     241 -> 249        0.14190
     242 -> 247        0.65899

 Excited State   5:      Singlet-A      3.3849 eV  366.29 nm  f=0.0015  <S**2>=0.000
     241 -> 247        0.59207
     241 -> 249       -0.19612
     241 -> 250       -0.17893
     242 -> 249        0.15602
     242 -> 250        0.11311
     246 -> 248        0.10235

 The electronic state is 1-A.
 Alpha  occ. eigenvalues --  -46.95695 -19.30717 -19.30291 -19.24681 -19.24185
 Alpha  occ. eigenvalues --  -19.24087 -19.23189 -14.47139 -14.47101 -14.44968
 Alpha  occ. eigenvalues --  -14.42527 -10.43094 -10.42619 -10.39949 -10.38437
 Alpha  occ. eigenvalues --  -10.36067 -10.35830 -10.35600 -10.35363 -10.35229
 Alpha  occ. eigenvalues --  -10.35120 -10.34949 -10.34940 -10.33097 -10.33017
 Alpha  occ. eigenvalues --  -10.32528 -10.32401 -10.32209 -10.32083 -10.32005
 Alpha  occ. eigenvalues --  -10.32003 -10.31995 -10.31957 -10.31515 -10.31463
 Alpha  occ. eigenvalues --  -10.31204 -10.31035 -10.31016 -10.30993 -10.30686
 Alpha  occ. eigenvalues --  -10.30500 -10.30304 -10.30138 -10.29785 -10.29749
 Alpha  occ. eigenvalues --  -10.29669 -10.29617 -10.29566 -10.29559 -10.29474
 Alpha  occ. eigenvalues --  -10.29362 -10.29029 -10.28829 -10.28667 -10.28660
 Alpha  occ. eigenvalues --  -10.28615 -10.28591 -10.28450 -10.28397 -10.28302
 Alpha  occ. eigenvalues --  -10.28248 -10.28197 -10.28159 -10.27949 -10.27893
 Alpha  occ. eigenvalues --  -10.27439  -3.21547  -1.95133  -1.94674  -1.94505
 Alpha  occ. eigenvalues --   -1.19012  -1.18163  -1.12601  -1.10042  -1.09520
 Alpha  occ. eigenvalues --   -1.09225  -1.07203  -1.06408  -1.05250  -1.04466
 Alpha  occ. eigenvalues --   -0.95352  -0.91977  -0.91516  -0.91290  -0.91014
 Alpha  occ. eigenvalues --   -0.90759  -0.90165  -0.89942  -0.89043  -0.88906
 Alpha  occ. eigenvalues --   -0.87853  -0.87489  -0.85991  -0.85856  -0.85325
 Alpha  occ. eigenvalues --   -0.84611  -0.84102  -0.83447  -0.82917  -0.82270
 Alpha  occ. eigenvalues --   -0.81691  -0.80038  -0.79517  -0.79424  -0.78608
 Alpha  occ. eigenvalues --   -0.77656  -0.77511  -0.76753  -0.76385  -0.75569
 Alpha  occ. eigenvalues --   -0.75266  -0.74750  -0.74382  -0.72004  -0.70740
 Alpha  occ. eigenvalues --   -0.70502  -0.69910  -0.69059  -0.68356  -0.67785
 Alpha  occ. eigenvalues --   -0.67387  -0.66915  -0.66849  -0.66549  -0.65741
 Alpha  occ. eigenvalues --   -0.65330  -0.64996  -0.64756  -0.64177  -0.62493
 Alpha  occ. eigenvalues --   -0.61622  -0.61469  -0.61196  -0.61140  -0.60443
 Alpha  occ. eigenvalues --   -0.60127  -0.59892  -0.58740  -0.58151  -0.57761
 Alpha  occ. eigenvalues --   -0.57436  -0.56636  -0.55955  -0.55870  -0.55624
 Alpha  occ. eigenvalues --   -0.55440  -0.55278  -0.55146  -0.54919  -0.54705
 Alpha  occ. eigenvalues --   -0.54577  -0.54238  -0.53936  -0.53604  -0.53443
 Alpha  occ. eigenvalues --   -0.53253  -0.53204  -0.52860  -0.52809  -0.52562
 Alpha  occ. eigenvalues --   -0.52167  -0.52046  -0.51897  -0.51771  -0.51266
 Alpha  occ. eigenvalues --   -0.51188  -0.51072  -0.50895  -0.50765  -0.50604
 Alpha  occ. eigenvalues --   -0.50484  -0.50281  -0.49892  -0.49720  -0.49532
 Alpha  occ. eigenvalues --   -0.49340  -0.49262  -0.49010  -0.48937  -0.48734
 Alpha  occ. eigenvalues --   -0.48469  -0.48221  -0.47912  -0.47739  -0.47529
 Alpha  occ. eigenvalues --   -0.47191  -0.47101  -0.46996  -0.46839  -0.46584
 Alpha  occ. eigenvalues --   -0.46395  -0.46123  -0.45957  -0.45945  -0.45807
 Alpha  occ. eigenvalues --   -0.45376  -0.45317  -0.44828  -0.44746  -0.44670
 Alpha  occ. eigenvalues --   -0.44576  -0.44471  -0.44327  -0.44272  -0.43873
 Alpha  occ. eigenvalues --   -0.43679  -0.43446  -0.43255  -0.43078  -0.42857
 Alpha  occ. eigenvalues --   -0.42759  -0.42542  -0.42435  -0.42289  -0.42165
 Alpha  occ. eigenvalues --   -0.41917  -0.41771  -0.41450  -0.41233  -0.40915
 Alpha  occ. eigenvalues --   -0.40635  -0.39867  -0.39693  -0.39547  -0.39359
 Alpha  occ. eigenvalues --   -0.39222  -0.39006  -0.38688  -0.38667  -0.37729
 Alpha  occ. eigenvalues --   -0.37163  -0.37013  -0.36444  -0.36208  -0.35797
 Alpha  occ. eigenvalues --   -0.35519  -0.35492  -0.35393  -0.33830  -0.33421
 Alpha  occ. eigenvalues --   -0.32452  -0.32256  -0.31158  -0.30984  -0.26278
 Alpha  occ. eigenvalues --   -0.23659
 Alpha virt. eigenvalues --   -0.07884  -0.00044   0.02571   0.04139   0.04816
 Alpha virt. eigenvalues --    0.07179   0.07934   0.08028   0.08880   0.09089
 Alpha virt. eigenvalues --    0.10774   0.11310   0.11620   0.12358   0.12544

 Mulliken charges:
               1
     1  Mg   0.943608
     2  C   -0.061780
     3  C   -0.063802
     4  C   -0.062773
     5  C   -0.089852
     6  N   -0.385504
     7  C    0.016211
     8  C   -0.061486
     9  C   -0.093962
    10  C    0.084533
    11  C    0.030791
    12  C   -0.023820
    13  C    0.038366
    14  C    0.208233
    15  O   -0.284869
    16  O   -0.342522
    17  N   -0.448240
    18  C    0.107727
    19  C   -0.168004
    20  C   -0.105380
    21  C    0.180015
    22  C    0.100506
    23  C    0.062319
    24  O   -0.236499
    25  C   -0.019215
    26  N   -0.333106
    27  C    0.058976
    28  C   -0.088355
    29  C   -0.071075
    30  C    0.036071
    31  C   -0.012804
    32  C   -0.030809
    33  C   -0.067787
    34  N   -0.412843
    35  C    0.166258
    36  C   -0.196895
    37  C   -0.036495
    38  C    0.159780
    39  C    0.100044
    40  C    0.108391
    41  O   -0.244210
    42  C    0.021507
    43  C    0.262452
    44  O   -0.251600
    45  O   -0.354611
    46  C    0.127604
    47  C    0.240609
    48  C   -0.155482
    49  C   -0.221174
    50  C    0.016633
    51  C    0.023467
    52  C   -0.001378
    53  C   -0.016575
    54  C   -0.205860
    55  C    0.030805
    56  C    0.004142
    57  C   -0.030147
    58  C    0.022044
    59  C   -0.165863
    60  C    0.011580
    61  C   -0.036519
    62  C   -0.038913
    63  C   -0.011245
    64  C   -0.218947
    65  C    0.039994
    66  C   -0.039533
    67  H    0.003115
    68  H   -0.035134
    69  H   -0.020855
    70  H    0.025380
    71  H    0.038847
    72  H    0.027724
    73  H    0.042154
    74  H    0.046025
    75  H    0.046700
    76  H    0.028391
    77  H    0.042806
    78  H    0.080383
    79  H    0.053638
    80  H    0.073783
    81  H    0.018818
    82  H    0.067685
    83  H    0.054077
    84  H    0.066272
    85  H    0.054077
    86  H    0.037555
    87  H    0.040180
    88  H    0.038570
    89  H    0.036614
    90  H    0.052420
    91  H    0.035641
    92  H    0.030688
    93  H    0.039377
    94  H    0.039918
    95  H    0.060741
    96  H    0.011649
    97  H    0.066759
    98  H    0.059318
    99  H    0.062840
   100  H    0.068085
   101  H    0.060345
   102  H    0.061736
   103  H    0.043527
   104  H    0.030425
   105  H    0.043217
   106  H    0.030845
   107  H    0.060082
   108  H    0.048492
   109  H    0.010614
   110  H    0.036903
   111  H    0.021424
   112  H    0.008247
   113  H    0.023347
   114  H    0.022766
   115  H    0.026027
   116  H    0.037785
   117  H    0.039187
   118  H    0.017902
   119  H    0.023851
   120  H    0.009966
   121  H    0.008290
   122  H    0.018759
   123  H    0.005717
   124  H    0.012305
   125  H    0.028177
   126  H    0.029670
   127  H    0.020724
   128  H    0.018565
   129  H    0.018964
   130  H    0.024885
   131  H    0.025902
   132  H    0.022136
   133  H    0.020737
   134  H    0.034017
   135  H    0.023410
   136  H    0.011979
   137  H    0.034927
   138  H    0.021227
   139  H    0.030395
   140  H    0.025553
 Sum of Mulliken charges =  -0.00000

 Dipole moment (field-independent basis, Debye):
    X=              0.7460    Y=              4.1003    Z=              2.1301  Tot=              4.6804
 Quadrupole moment (field-independent basis, Debye-Ang):
   XX=           -414.1297   YY=           -382.9140   ZZ=           -396.3927
   XY=            -46.6669   XZ=            -12.2909   YZ=            -32.3191

 Normal termination of Gaussian 16 at Fri Apr 29 07:32:43 2022.
