 Gaussian 16, Revision A.03,
 Gaussian 16:  ES64L-G16RevA.03 25-Dec-2016

 --------------------
 #p ZINDO=(nstates=5)
 --------------------

 -----------------------------
 step_201_chromophore_11 ZINDO
 -----------------------------
 Symbolic Z-matrix:
 Charge =  0 Multiplicity = 1

                         Standard orientation:
 ---------------------------------------------------------------------
 Center     Atomic      Atomic             Coordinates (Angstroms)
 Number     Number       Type             X           Y           Z
 ---------------------------------------------------------------------
      1         12           0       -4.361943    1.300942    0.614773
      2          6           0       -5.475151   -1.919722    0.199775
      3          6           0       -1.970919    0.189785    2.922568
      4          6           0       -2.867078    4.294105    0.381923
      5          6           0       -6.781430    2.285642   -1.798153
      6          7           0       -3.708816   -0.633685    1.273733
      7          6           0       -4.377041   -1.754046    1.026917
      8          6           0       -3.782219   -2.883896    1.883722
      9          6           0       -2.931716   -2.164832    2.981543
     10          6           0       -2.803689   -0.763868    2.393247
     11          6           0       -3.503118   -2.222781    4.410266
     12          6           0       -2.867746   -3.922613    1.037851
     13          6           0       -1.820346   -3.343703    0.134346
     14          6           0       -0.686047   -4.241645   -0.101282
     15          8           0       -0.761999   -5.330095   -0.701240
     16          8           0        0.410253   -3.757998    0.549211
     17          7           0       -2.661076    2.163048    1.518843
     18          6           0       -1.906338    1.590312    2.588719
     19          6           0       -1.060237    2.638002    3.186050
     20          6           0       -1.264621    3.824900    2.386878
     21          6           0       -2.291540    3.433409    1.374468
     22          6           0       -0.106086    2.399020    4.281224
     23          6           0       -0.515062    5.152241    2.744707
     24          8           0        0.317513    5.196687    3.648233
     25          6           0       -0.834835    6.382299    1.984053
     26          7           0       -4.733528    2.993386   -0.665932
     27          6           0       -4.011473    4.115924   -0.489404
     28          6           0       -4.557882    5.231066   -1.377210
     29          6           0       -5.923322    4.698925   -1.833585
     30          6           0       -5.816140    3.226107   -1.438945
     31          6           0       -4.575668    6.675872   -0.630319
     32          6           0       -6.090388    4.914166   -3.384394
     33          6           0       -7.472372    5.452115   -3.749803
     34          7           0       -5.929777    0.406445   -0.575820
     35          6           0       -6.843240    0.947552   -1.464146
     36          6           0       -7.787218   -0.061055   -1.770131
     37          6           0       -7.228266   -1.232240   -1.146407
     38          6           0       -6.116550   -0.894713   -0.530773
     39          6           0       -9.083021    0.082391   -2.594884
     40          6           0       -7.451514   -2.668757   -0.927620
     41          8           0       -8.329801   -3.485793   -1.303130
     42          6           0       -6.277761   -3.161201   -0.157540
     43          6           0       -5.546940   -4.156460   -0.980672
     44          8           0       -4.772502   -3.777689   -1.849855
     45          8           0       -5.822792   -5.432640   -0.622911
     46          6           0       -5.347229   -6.547904   -1.490218
     47          6           0        1.518906   -4.630965    0.685164
     48          6           0        2.523788   -3.960897   -0.305245
     49          6           0        3.839331   -3.952926   -0.174786
     50          6           0        4.505219   -4.962030    0.714265
     51          6           0        4.679442   -3.065814   -1.107097
     52          6           0        4.357049   -1.593139   -1.373015
     53          6           0        5.677448   -0.807334   -1.701897
     54          6           0        6.009776    0.253298   -0.644019
     55          6           0        5.384183    1.643417   -0.854429
     56          6           0        7.604177    0.414603   -0.807434
     57          6           0        8.410409   -0.624573    0.016378
     58          6           0        9.306783   -0.165982    1.207988
     59          6           0       10.811655   -0.321405    1.022380
     60          6           0       11.615145   -0.053557    2.313461
     61          6           0       11.308668    0.704650   -0.127136
     62          6           0       12.480793    0.278747   -1.010086
     63          6           0       13.608465    1.378136   -0.978042
     64          6           0       14.623756    0.966272   -2.082025
     65          6           0       16.015221    1.046681   -1.566372
     66          6           0       14.453858    1.984714   -3.329612
     67          1           0       -1.275225   -0.074055    3.722271
     68          1           0       -2.498486    5.322184    0.369500
     69          1           0       -7.569768    2.749028   -2.396012
     70          1           0       -4.616062   -3.373557    2.386910
     71          1           0       -1.924137   -2.580973    2.994439
     72          1           0       -2.657718   -2.241705    5.098855
     73          1           0       -3.997327   -3.166330    4.640475
     74          1           0       -4.096493   -1.361071    4.716728
     75          1           0       -3.468894   -4.621171    0.457125
     76          1           0       -2.376805   -4.613043    1.724152
     77          1           0       -1.429399   -2.462803    0.643688
     78          1           0       -2.326665   -3.057336   -0.787335
     79          1           0       -0.406904    3.161831    5.000350
     80          1           0        0.945480    2.567807    4.049374
     81          1           0       -0.317341    1.453346    4.780642
     82          1           0       -0.521750    6.272062    0.946069
     83          1           0       -0.201562    7.145309    2.436531
     84          1           0       -1.887233    6.665230    1.973041
     85          1           0       -3.935222    5.381375   -2.259094
     86          1           0       -6.711692    5.262957   -1.334899
     87          1           0       -3.827979    7.404450   -0.945689
     88          1           0       -4.353035    6.514966    0.423560
     89          1           0       -5.557082    7.140966   -0.725190
     90          1           0       -6.027673    3.978256   -3.941590
     91          1           0       -5.483772    5.767840   -3.684326
     92          1           0       -7.650535    6.359383   -3.171794
     93          1           0       -8.241673    4.698371   -3.585726
     94          1           0       -7.386799    5.724697   -4.802155
     95          1           0       -9.091150   -0.486693   -3.525257
     96          1           0       -9.066981    1.120636   -2.928146
     97          1           0       -9.934843   -0.156510   -1.956937
     98          1           0       -6.525570   -3.604237    0.806968
     99          1           0       -4.772186   -6.134569   -2.318220
    100          1           0       -6.186820   -7.120331   -1.882992
    101          1           0       -4.624325   -7.260631   -1.093249
    102          1           0        1.289181   -5.640706    0.344204
    103          1           0        1.907977   -4.614692    1.703194
    104          1           0        2.057881   -3.199610   -0.931069
    105          1           0        4.347348   -4.689564    1.757577
    106          1           0        5.593434   -4.999578    0.654956
    107          1           0        4.058434   -5.920484    0.451612
    108          1           0        4.543793   -3.566990   -2.066348
    109          1           0        5.701689   -3.216521   -0.760840
    110          1           0        3.731435   -1.136087   -0.606084
    111          1           0        3.834435   -1.632662   -2.329178
    112          1           0        5.556684   -0.264547   -2.639027
    113          1           0        6.458177   -1.530814   -1.937388
    114          1           0        5.773669   -0.186346    0.325445
    115          1           0        4.573279    1.452285   -1.558586
    116          1           0        6.047822    2.401170   -1.268962
    117          1           0        5.054212    1.973080    0.130342
    118          1           0        7.888018    1.414672   -0.479277
    119          1           0        7.857727    0.246553   -1.853736
    120          1           0        9.114133   -1.236909   -0.548419
    121          1           0        7.672718   -1.367099    0.320108
    122          1           0        8.847014   -0.444388    2.156737
    123          1           0        9.288028    0.920189    1.293164
    124          1           0       11.128276   -1.236601    0.522195
    125          1           0       12.492278    0.581044    2.187177
    126          1           0       11.962879   -0.954930    2.818620
    127          1           0       10.967182    0.419664    3.051272
    128          1           0       11.497371    1.666492    0.349131
    129          1           0       10.536719    0.825035   -0.887702
    130          1           0       12.088505    0.123129   -2.014935
    131          1           0       12.903726   -0.664293   -0.662658
    132          1           0       14.017562    1.460737    0.028825
    133          1           0       13.255056    2.390403   -1.173194
    134          1           0       14.369933    0.010657   -2.541360
    135          1           0       16.048581    1.398604   -0.535633
    136          1           0       16.579383    1.823412   -2.083677
    137          1           0       16.494211    0.100989   -1.819074
    138          1           0       13.556324    1.756304   -3.903372
    139          1           0       15.250593    1.986644   -4.073612
    140          1           0       14.349045    3.002845   -2.955294
 ---------------------------------------------------------------------

 SCF Done:  E(RZINDO/S) =  -474.355507747     A.U. after   19 cycles

 Excitation energies and oscillator strengths:

 Excited State   1:      Singlet-A      1.2644 eV  980.57 nm  f=0.6319  <S**2>=0.000
     175 ->178         0.17926
     176 ->177         0.66441
 This state for optimization and/or second-order correction.
 Total Energy, E(CIS/TDA) =  -474.309041392
 Copying the excited state density for this state as the 1-particle RhoCI density.

 Excited State   2:      Singlet-A      1.8850 eV  657.76 nm  f=0.1044  <S**2>=0.000
     175 ->177         0.58594
     176 ->178        -0.35976

 Excited State   3:      Singlet-A      2.9090 eV  426.21 nm  f=0.0046  <S**2>=0.000
     170 ->177         0.20802
     170 ->179        -0.22137
     170 ->180        -0.21649
     172 ->177        -0.15482
     174 ->177         0.50587

 Excited State   4:      Singlet-A      2.9801 eV  416.04 nm  f=0.0573  <S**2>=0.000
     170 ->177        -0.25206
     170 ->179         0.28136
     170 ->180         0.27406
     170 ->185        -0.12451
     170 ->188        -0.10772
     171 ->177         0.10310
     172 ->177        -0.18247
     174 ->177         0.33450
     176 ->178         0.17882

 Excited State   5:      Singlet-A      3.0423 eV  407.53 nm  f=0.9634  <S**2>=0.000
     174 ->177        -0.16805
     175 ->177         0.32229
     176 ->178         0.53254
     176 ->179         0.13714

 The electronic state is 1-A.
 Alpha  occ. eigenvalues --   -1.87604  -1.81555  -1.79714  -1.75454  -1.72159
 Alpha  occ. eigenvalues --   -1.71186  -1.64697  -1.60726  -1.59641  -1.58902
 Alpha  occ. eigenvalues --   -1.55063  -1.52193  -1.49525  -1.48229  -1.47740
 Alpha  occ. eigenvalues --   -1.43800  -1.41614  -1.40082  -1.39311  -1.37654
 Alpha  occ. eigenvalues --   -1.36553  -1.33605  -1.32288  -1.31839  -1.28160
 Alpha  occ. eigenvalues --   -1.27844  -1.27452  -1.23786  -1.20294  -1.18428
 Alpha  occ. eigenvalues --   -1.16905  -1.15128  -1.14581  -1.13394  -1.12562
 Alpha  occ. eigenvalues --   -1.12212  -1.10250  -1.09848  -1.05447  -1.04441
 Alpha  occ. eigenvalues --   -1.01979  -1.01209  -0.98455  -0.97434  -0.96458
 Alpha  occ. eigenvalues --   -0.95715  -0.94982  -0.93102  -0.92943  -0.92111
 Alpha  occ. eigenvalues --   -0.91772  -0.90662  -0.89962  -0.87956  -0.85928
 Alpha  occ. eigenvalues --   -0.85907  -0.84780  -0.84259  -0.81659  -0.80031
 Alpha  occ. eigenvalues --   -0.79604  -0.79219  -0.77985  -0.76718  -0.76688
 Alpha  occ. eigenvalues --   -0.76542  -0.74840  -0.74504  -0.73958  -0.73695
 Alpha  occ. eigenvalues --   -0.73347  -0.73027  -0.71467  -0.71156  -0.70915
 Alpha  occ. eigenvalues --   -0.70326  -0.70202  -0.68869  -0.68770  -0.67821
 Alpha  occ. eigenvalues --   -0.66889  -0.66495  -0.66315  -0.65989  -0.65826
 Alpha  occ. eigenvalues --   -0.65254  -0.64708  -0.64419  -0.64155  -0.63423
 Alpha  occ. eigenvalues --   -0.63225  -0.62680  -0.62500  -0.62226  -0.61983
 Alpha  occ. eigenvalues --   -0.61662  -0.61260  -0.60860  -0.60739  -0.59935
 Alpha  occ. eigenvalues --   -0.59701  -0.59377  -0.59084  -0.58372  -0.58117
 Alpha  occ. eigenvalues --   -0.57401  -0.57196  -0.56807  -0.56592  -0.56499
 Alpha  occ. eigenvalues --   -0.55950  -0.55547  -0.54967  -0.54448  -0.53926
 Alpha  occ. eigenvalues --   -0.53633  -0.53557  -0.53372  -0.53217  -0.52942
 Alpha  occ. eigenvalues --   -0.52614  -0.52287  -0.51663  -0.51334  -0.51206
 Alpha  occ. eigenvalues --   -0.50990  -0.50844  -0.50448  -0.50087  -0.49757
 Alpha  occ. eigenvalues --   -0.49599  -0.49449  -0.49268  -0.49069  -0.49016
 Alpha  occ. eigenvalues --   -0.48723  -0.48712  -0.48576  -0.48326  -0.48175
 Alpha  occ. eigenvalues --   -0.47841  -0.47392  -0.47020  -0.46834  -0.46587
 Alpha  occ. eigenvalues --   -0.46180  -0.45999  -0.45951  -0.45575  -0.45503
 Alpha  occ. eigenvalues --   -0.44981  -0.44809  -0.44590  -0.43959  -0.43929
 Alpha  occ. eigenvalues --   -0.43718  -0.42976  -0.42689  -0.42382  -0.41465
 Alpha  occ. eigenvalues --   -0.41392  -0.41015  -0.40303  -0.39376  -0.38079
 Alpha  occ. eigenvalues --   -0.37637  -0.37074  -0.36329  -0.35733  -0.34645
 Alpha  occ. eigenvalues --   -0.33608  -0.32648  -0.31821  -0.31583  -0.26862
 Alpha  occ. eigenvalues --   -0.22512
 Alpha virt. eigenvalues --   -0.09348  -0.02312  -0.00500   0.00882   0.01493
 Alpha virt. eigenvalues --    0.02095   0.02600   0.03377   0.04314   0.05576
 Alpha virt. eigenvalues --    0.06004   0.06241   0.07062   0.07647   0.07997

 Mulliken charges:
               1
     1  Mg   0.427818
     2  C   -0.053999
     3  C   -0.064781
     4  C   -0.097879
     5  C   -0.044689
     6  N   -0.295077
     7  C    0.134320
     8  C   -0.004413
     9  C    0.005667
    10  C    0.134405
    11  C   -0.047309
    12  C   -0.015675
    13  C    0.017172
    14  C    0.478497
    15  O   -0.534492
    16  O   -0.262589
    17  N   -0.321243
    18  C    0.100981
    19  C    0.046522
    20  C   -0.070321
    21  C    0.153203
    22  C   -0.032179
    23  C    0.335944
    24  O   -0.515641
    25  C   -0.028307
    26  N   -0.250541
    27  C    0.146644
    28  C   -0.000781
    29  C    0.000414
    30  C    0.102459
    31  C   -0.065426
    32  C   -0.042210
    33  C   -0.062117
    34  N   -0.349033
    35  C    0.090413
    36  C    0.011916
    37  C   -0.050847
    38  C    0.138943
    39  C   -0.040822
    40  C    0.333879
    41  O   -0.546444
    42  C    0.067222
    43  C    0.505979
    44  O   -0.537152
    45  O   -0.259805
    46  C    0.069251
    47  C    0.097510
    48  C   -0.099087
    49  C   -0.006577
    50  C   -0.042161
    51  C   -0.024853
    52  C   -0.035181
    53  C   -0.035110
    54  C   -0.015008
    55  C   -0.054743
    56  C   -0.039234
    57  C   -0.045696
    58  C   -0.032156
    59  C   -0.006519
    60  C   -0.055878
    61  C   -0.051383
    62  C   -0.036457
    63  C   -0.035715
    64  C   -0.012534
    65  C   -0.054490
    66  C   -0.067963
    67  H    0.033033
    68  H    0.025654
    69  H    0.023890
    70  H    0.025134
    71  H    0.029768
    72  H    0.010590
    73  H    0.023650
    74  H    0.029454
    75  H    0.033332
    76  H    0.016603
    77  H    0.025668
    78  H    0.057414
    79  H    0.037287
    80  H    0.052694
    81  H    0.020189
    82  H    0.038087
    83  H    0.035903
    84  H    0.041270
    85  H    0.037334
    86  H    0.039290
    87  H    0.022616
    88  H    0.019428
    89  H    0.021480
    90  H    0.036863
    91  H    0.026069
    92  H    0.017084
    93  H    0.023464
    94  H    0.015043
    95  H    0.038407
    96  H    0.014918
    97  H    0.040489
    98  H    0.047131
    99  H    0.046567
   100  H    0.042625
   101  H    0.042593
   102  H    0.060188
   103  H    0.040630
   104  H    0.031346
   105  H    0.026133
   106  H    0.018078
   107  H    0.033484
   108  H    0.028150
   109  H    0.016775
   110  H    0.031989
   111  H    0.015848
   112  H    0.011032
   113  H    0.024490
   114  H    0.027921
   115  H    0.020445
   116  H    0.026341
   117  H    0.020514
   118  H    0.017882
   119  H    0.023805
   120  H    0.014297
   121  H    0.011791
   122  H    0.022076
   123  H    0.009988
   124  H    0.023198
   125  H    0.021076
   126  H    0.013851
   127  H    0.015744
   128  H    0.019609
   129  H    0.013146
   130  H    0.022009
   131  H    0.020170
   132  H    0.021703
   133  H    0.022055
   134  H    0.027228
   135  H    0.024852
   136  H    0.010877
   137  H    0.021121
   138  H    0.009806
   139  H    0.017140
   140  H    0.017550
 Sum of Mulliken charges =  -0.00000

 Dipole moment (field-independent basis, Debye):
    X=              1.1114    Y=              6.7272    Z=              4.4561  Tot=              8.1454
 N-N= 4.393585550764D+03 E-N= 0.000000000000D+00  KE=-9.461657979049D+03
 Leave Link  601 at Fri Apr 29 07:49:32 2022, MaxMem=  6710886400 cpu:               1.6 elap:               0.1
 (Enter /sw/apps/gaussian-16.0/g16/l9999.exe)
 1\1\GINC-BP1-COMPUTE150\SP\RZINDO CIS\STO-3G\C55H74Mg1N4O6\OF15641\29-
 Apr-2022\0\\#p ZINDO=(nstates=5)\\step_201_chromophore_11 ZINDO\\0,1\M
 g,0,52.8,24.054,43.828\C,0,49.855,25.808,43.642\C,0,51.081,21.074,43.1
 63\C,0,55.756,22.569,43.276\C,0,54.433,27.157,44.42\N,0,50.781,23.587,
 43.272\C,0,49.78,24.455,43.357\C,0,48.454,23.702,43.159\C,0,48.804,22.
 191,43.359\C,0,50.324,22.216,43.24\C,0,48.261,21.547,44.648\C,0,47.783
 ,23.948,41.703\C,0,48.663,23.784,40.5\C,0,47.933,23.414,39.284\O,0,47.

 Normal termination of Gaussian 16 at Fri Apr 29 07:49:32 2022.
