 Gaussian 16, Revision A.03,
 Gaussian 16:  ES64L-G16RevA.03 25-Dec-2016

 ------------------------------
 #p blyp/Def2SVP td=(nstates=5)
 ------------------------------

 --------------------------------------------------
 step_301_chromophore_22 TDDFT with blyp functional
 --------------------------------------------------
 Symbolic Z-matrix:
 Charge =  0 Multiplicity = 1

                         Standard orientation:
 ---------------------------------------------------------------------
 Center     Atomic      Atomic             Coordinates (Angstroms)
 Number     Number       Type             X           Y           Z
 ---------------------------------------------------------------------
      1         12           0        6.355405    0.421333   -0.039859
      2          6           0        3.889910   -2.014936   -0.563954
      3          6           0        3.998501    2.785383   -1.092202
      4          6           0        8.746281    2.852377    0.209584
      5          6           0        8.767209   -1.969698    0.352276
      6          7           0        4.119392    0.324701   -0.832127
      7          6           0        3.332034   -0.775515   -0.823291
      8          6           0        1.851339   -0.383630   -1.215489
      9          6           0        1.999323    1.146183   -1.504884
     10          6           0        3.495294    1.482001   -1.170610
     11          6           0        1.441919    1.602006   -2.887848
     12          6           0        0.795911   -0.849902   -0.167933
     13          6           0       -0.539372   -0.051422    0.020660
     14          6           0       -1.758644   -0.960856    0.427417
     15          8           0       -1.903908   -1.427580    1.567459
     16          8           0       -2.650814   -1.233547   -0.558495
     17          7           0        6.412040    2.544462   -0.380536
     18          6           0        5.373178    3.323805   -0.765376
     19          6           0        5.784085    4.686057   -0.653564
     20          6           0        7.100566    4.750541   -0.216479
     21          6           0        7.495374    3.317649   -0.174735
     22          6           0        4.780927    5.805965   -1.014354
     23          6           0        7.940247    5.930611   -0.066880
     24          8           0        9.106986    5.880274    0.297379
     25          6           0        7.344517    7.357975    0.058778
     26          7           0        8.581180    0.416102    0.121928
     27          6           0        9.283644    1.572233    0.385071
     28          6           0       10.694500    1.184698    0.929034
     29          6           0       10.654871   -0.404769    0.989515
     30          6           0        9.266195   -0.717803    0.508647
     31          6           0       11.856814    1.993694    0.207816
     32          6           0       10.991752   -0.839817    2.380429
     33          6           0       11.713451   -2.201149    2.553518
     34          7           0        6.343801   -1.522704    0.025957
     35          6           0        7.417320   -2.416693    0.061541
     36          6           0        6.968303   -3.798354   -0.128373
     37          6           0        5.596610   -3.641660   -0.182518
     38          6           0        5.264749   -2.270884   -0.115242
     39          6           0        7.837419   -5.082969   -0.216789
     40          6           0        4.364492   -4.417270   -0.338125
     41          8           0        4.254211   -5.644059   -0.401975
     42          6           0        3.205244   -3.385660   -0.565584
     43          6           0        2.143631   -3.709362    0.477333
     44          8           0        2.256894   -3.544217    1.683861
     45          8           0        1.050589   -4.326374   -0.112545
     46          6           0        0.123046   -4.939670    0.845959
     47          6           0       -3.580995   -2.354475   -0.316144
     48          6           0       -4.754605   -1.961279   -1.115137
     49          6           0       -5.981726   -2.542453   -1.075092
     50          6           0       -6.186848   -3.885786   -0.349060
     51          6           0       -7.143602   -1.941908   -1.850098
     52          6           0       -8.104909   -1.253362   -0.894107
     53          6           0       -8.459619    0.223960   -1.285964
     54          6           0       -9.909119    0.572626   -0.906735
     55          6           0      -10.657925    1.046570   -2.176492
     56          6           0       -9.974077    1.685698    0.164292
     57          6           0      -10.856033    1.182006    1.397852
     58          6           0      -11.676890    2.212940    2.223810
     59          6           0      -13.156183    1.744369    2.631027
     60          6           0      -13.518416    2.071650    4.074148
     61          6           0      -14.191627    2.384590    1.698773
     62          6           0      -15.409788    1.365120    1.612474
     63          6           0      -16.112802    1.542949    0.237701
     64          6           0      -15.987769    0.201354   -0.630119
     65          6           0      -15.293435    0.484637   -2.014620
     66          6           0      -17.257764   -0.513472   -0.711979
     67          1           0        3.237936    3.495579   -1.422421
     68          1           0        9.445673    3.628727    0.527157
     69          1           0        9.466067   -2.800702    0.470443
     70          1           0        1.619717   -0.864286   -2.166054
     71          1           0        1.497422    1.715182   -0.722843
     72          1           0        1.404592    0.775342   -3.596409
     73          1           0        2.101687    2.390417   -3.248836
     74          1           0        0.505117    2.084331   -2.608669
     75          1           0        1.260963   -0.843558    0.817672
     76          1           0        0.546961   -1.854212   -0.511216
     77          1           0       -0.721486    0.451637   -0.929448
     78          1           0       -0.430416    0.774771    0.723386
     79          1           0        3.781440    5.521639   -1.342719
     80          1           0        5.188396    6.288430   -1.903444
     81          1           0        4.451090    6.527377   -0.267606
     82          1           0        6.803692    7.780430   -0.789220
     83          1           0        8.118776    8.051788    0.385337
     84          1           0        6.607160    7.336892    0.861549
     85          1           0       10.738360    1.611656    1.931016
     86          1           0       11.447308   -0.785203    0.344958
     87          1           0       12.364053    1.291561   -0.454593
     88          1           0       12.559948    2.363405    0.954108
     89          1           0       11.445740    2.912747   -0.210746
     90          1           0       10.078521   -1.090404    2.919275
     91          1           0       11.633796   -0.107915    2.869934
     92          1           0       12.322487   -2.185010    3.456982
     93          1           0       12.256588   -2.569548    1.684296
     94          1           0       10.883639   -2.886848    2.729656
     95          1           0        7.480864   -5.729581    0.584730
     96          1           0        8.864778   -4.844348    0.056710
     97          1           0        7.844671   -5.573268   -1.190674
     98          1           0        2.811455   -3.449283   -1.579218
     99          1           0       -0.551269   -5.581624    0.278326
    100          1           0       -0.551174   -4.254305    1.358592
    101          1           0        0.633037   -5.638355    1.509575
    102          1           0       -3.889507   -2.379042    0.729069
    103          1           0       -3.123096   -3.281832   -0.661511
    104          1           0       -4.727883   -0.955835   -1.534329
    105          1           0       -6.954950   -4.480925   -0.843307
    106          1           0       -6.653421   -3.714763    0.621118
    107          1           0       -5.287814   -4.490776   -0.229668
    108          1           0       -7.550816   -2.777026   -2.420628
    109          1           0       -6.870898   -1.212397   -2.612904
    110          1           0       -7.605825   -1.124204    0.066113
    111          1           0       -9.043766   -1.776320   -0.714420
    112          1           0       -8.215326    0.300610   -2.345473
    113          1           0       -7.806543    0.964228   -0.825892
    114          1           0      -10.472362   -0.303037   -0.583801
    115          1           0      -10.268372    0.565768   -3.074205
    116          1           0      -10.731483    2.130504   -2.252014
    117          1           0      -11.643650    0.594443   -2.066131
    118          1           0      -10.292684    2.656719   -0.214355
    119          1           0       -9.035287    1.831549    0.699769
    120          1           0      -10.024851    0.765891    1.966311
    121          1           0      -11.498718    0.390733    1.011029
    122          1           0      -11.767428    3.138507    1.656595
    123          1           0      -11.238855    2.471003    3.188238
    124          1           0      -13.244964    0.660420    2.569049
    125          1           0      -14.537943    2.448823    4.148141
    126          1           0      -12.935585    2.848405    4.569225
    127          1           0      -13.288719    1.185715    4.666938
    128          1           0      -13.663135    2.352496    0.746748
    129          1           0      -14.486397    3.420717    1.865143
    130          1           0      -16.127828    1.763563    2.329105
    131          1           0      -15.225297    0.327606    1.891478
    132          1           0      -15.682848    2.408459   -0.265654
    133          1           0      -17.189264    1.711495    0.265407
    134          1           0      -15.240532   -0.357998   -0.067073
    135          1           0      -15.023346    1.522833   -2.208971
    136          1           0      -15.930066    0.185168   -2.847539
    137          1           0      -14.363965   -0.072299   -2.135781
    138          1           0      -18.065755    0.212369   -0.618741
    139          1           0      -17.377310   -1.128916    0.180404
    140          1           0      -17.471573   -1.125341   -1.588040
 ---------------------------------------------------------------------

 SCF Done:  E(RB-LYP) =  -3007.36332512     A.U. after   21 cycles

 Excitation energies and oscillator strengths:

 Excited State   1:      Singlet-A      1.7915 eV  692.09 nm  f=0.0355  <S**2>=0.000
     244 -> 247        0.63284
     245 -> 247       -0.21286
     246 -> 247        0.21580
 This state for optimization and/or second-order correction.
 Total Energy, E(TD-HF/TD-DFT) =  -3007.29749037
 Copying the excited state density for this state as the 1-particle RhoCI density.

 Excited State   2:      Singlet-A      1.8511 eV  669.77 nm  f=0.2886  <S**2>=0.000
     244 -> 247       -0.23985
     245 -> 248       -0.17134
     246 -> 247        0.64574
     246 <- 247       -0.13712

 Excited State   3:      Singlet-A      1.8982 eV  653.18 nm  f=0.0347  <S**2>=0.000
     243 -> 247        0.53495
     244 -> 247        0.16781
     245 -> 247        0.40869

 Excited State   4:      Singlet-A      2.0191 eV  614.06 nm  f=0.0750  <S**2>=0.000
     243 -> 247       -0.45590
     244 -> 247        0.11147
     245 -> 247        0.48515
     246 -> 248        0.16130

 Excited State   5:      Singlet-A      2.1366 eV  580.28 nm  f=0.0000  <S**2>=0.000
     242 -> 247        0.70709

 The electronic state is 1-A.
 Alpha  occ. eigenvalues --  -46.28249 -18.82399 -18.82167 -18.76659 -18.76439
 Alpha  occ. eigenvalues --  -18.75979 -18.75335 -14.03034 -14.02870 -14.01773
 Alpha  occ. eigenvalues --  -14.01657 -10.04545 -10.04030  -9.99883  -9.99720
 Alpha  occ. eigenvalues --   -9.98081  -9.97083  -9.96867  -9.96772  -9.96529
 Alpha  occ. eigenvalues --   -9.96515  -9.96349  -9.96121  -9.96058  -9.95188
 Alpha  occ. eigenvalues --   -9.94739  -9.94405  -9.94390  -9.94201  -9.94198
 Alpha  occ. eigenvalues --   -9.94195  -9.94038  -9.93965  -9.93881  -9.93826
 Alpha  occ. eigenvalues --   -9.93511  -9.93177  -9.93029  -9.93002  -9.92909
 Alpha  occ. eigenvalues --   -9.92876  -9.92723  -9.92631  -9.92374  -9.92345
 Alpha  occ. eigenvalues --   -9.92072  -9.91980  -9.91917  -9.91709  -9.91633
 Alpha  occ. eigenvalues --   -9.91568  -9.91544  -9.91505  -9.91412  -9.91274
 Alpha  occ. eigenvalues --   -9.91205  -9.91201  -9.91185  -9.91145  -9.91074
 Alpha  occ. eigenvalues --   -9.90983  -9.90804  -9.90772  -9.90522  -9.90495
 Alpha  occ. eigenvalues --   -9.90353  -2.92802  -1.73215  -1.72689  -1.72529
 Alpha  occ. eigenvalues --   -0.98014  -0.97123  -0.91663  -0.90908  -0.89379
 Alpha  occ. eigenvalues --   -0.88925  -0.87115  -0.86781  -0.85506  -0.84756
 Alpha  occ. eigenvalues --   -0.75020  -0.73727  -0.72808  -0.72755  -0.72476
 Alpha  occ. eigenvalues --   -0.72048  -0.71502  -0.70848  -0.70779  -0.70671
 Alpha  occ. eigenvalues --   -0.69936  -0.69126  -0.68194  -0.67127  -0.67077
 Alpha  occ. eigenvalues --   -0.66388  -0.65471  -0.64972  -0.64761  -0.64134
 Alpha  occ. eigenvalues --   -0.63731  -0.62712  -0.62517  -0.62126  -0.60970
 Alpha  occ. eigenvalues --   -0.60556  -0.60300  -0.60175  -0.59453  -0.58554
 Alpha  occ. eigenvalues --   -0.58475  -0.57804  -0.56599  -0.55747  -0.54285
 Alpha  occ. eigenvalues --   -0.54075  -0.53344  -0.53303  -0.52250  -0.51381
 Alpha  occ. eigenvalues --   -0.51158  -0.51042  -0.50717  -0.50506  -0.50221
 Alpha  occ. eigenvalues --   -0.49919  -0.49744  -0.48619  -0.48261  -0.46992
 Alpha  occ. eigenvalues --   -0.46406  -0.46261  -0.45842  -0.45365  -0.44826
 Alpha  occ. eigenvalues --   -0.44413  -0.44069  -0.43153  -0.42372  -0.42126
 Alpha  occ. eigenvalues --   -0.42088  -0.41799  -0.41530  -0.41267  -0.41008
 Alpha  occ. eigenvalues --   -0.40720  -0.40511  -0.40423  -0.40208  -0.39801
 Alpha  occ. eigenvalues --   -0.39631  -0.39532  -0.39489  -0.39403  -0.39313
 Alpha  occ. eigenvalues --   -0.38884  -0.38623  -0.38511  -0.38372  -0.38192
 Alpha  occ. eigenvalues --   -0.37984  -0.37818  -0.37627  -0.37417  -0.37013
 Alpha  occ. eigenvalues --   -0.36959  -0.36905  -0.36696  -0.36637  -0.36420
 Alpha  occ. eigenvalues --   -0.36216  -0.36158  -0.36014  -0.35662  -0.35508
 Alpha  occ. eigenvalues --   -0.35318  -0.35071  -0.35064  -0.34988  -0.34787
 Alpha  occ. eigenvalues --   -0.34530  -0.34144  -0.34113  -0.33961  -0.33912
 Alpha  occ. eigenvalues --   -0.33817  -0.33677  -0.33486  -0.33375  -0.33255
 Alpha  occ. eigenvalues --   -0.33002  -0.32706  -0.32593  -0.32498  -0.32423
 Alpha  occ. eigenvalues --   -0.32210  -0.31902  -0.31844  -0.31760  -0.31582
 Alpha  occ. eigenvalues --   -0.31562  -0.31245  -0.30777  -0.30533  -0.30421
 Alpha  occ. eigenvalues --   -0.30336  -0.30258  -0.29882  -0.29749  -0.29659
 Alpha  occ. eigenvalues --   -0.29601  -0.29454  -0.29313  -0.29142  -0.29004
 Alpha  occ. eigenvalues --   -0.28960  -0.28694  -0.28499  -0.28096  -0.27931
 Alpha  occ. eigenvalues --   -0.27845  -0.27600  -0.27127  -0.27027  -0.26608
 Alpha  occ. eigenvalues --   -0.26296  -0.25842  -0.25381  -0.25035  -0.24883
 Alpha  occ. eigenvalues --   -0.24838  -0.24651  -0.24096  -0.23706  -0.23538
 Alpha  occ. eigenvalues --   -0.23474  -0.22698  -0.21820  -0.21717  -0.21498
 Alpha  occ. eigenvalues --   -0.21326  -0.19781  -0.18965  -0.18478  -0.17182
 Alpha  occ. eigenvalues --   -0.16350
 Alpha virt. eigenvalues --   -0.11930  -0.06967  -0.06124  -0.04921  -0.03375
 Alpha virt. eigenvalues --   -0.02661  -0.02607  -0.01592  -0.01231  -0.00005
 Alpha virt. eigenvalues --    0.01151   0.01518   0.01546   0.02404   0.02656

 Mulliken charges:
               1
     1  Mg   0.707202
     2  C   -0.028429
     3  C   -0.031040
     4  C   -0.053303
     5  C   -0.066578
     6  N   -0.178347
     7  C   -0.101455
     8  C    0.046955
     9  C   -0.048432
    10  C   -0.007559
    11  C    0.148973
    12  C    0.079386
    13  C    0.152186
    14  C    0.087805
    15  O   -0.218085
    16  O   -0.264415
    17  N   -0.237167
    18  C    0.102644
    19  C   -0.083892
    20  C    0.053511
    21  C    0.098445
    22  C    0.132962
    23  C   -0.069599
    24  O   -0.171000
    25  C    0.102864
    26  N   -0.231330
    27  C   -0.005213
    28  C   -0.005035
    29  C    0.094623
    30  C    0.057930
    31  C    0.120960
    32  C    0.063194
    33  C    0.060279
    34  N   -0.310757
    35  C    0.091295
    36  C   -0.170773
    37  C    0.062714
    38  C    0.100157
    39  C    0.180756
    40  C   -0.034402
    41  O   -0.142007
    42  C    0.109776
    43  C    0.132487
    44  O   -0.178234
    45  O   -0.281361
    46  C    0.213653
    47  C    0.334571
    48  C   -0.138376
    49  C   -0.164905
    50  C    0.139928
    51  C    0.166354
    52  C    0.063312
    53  C    0.099180
    54  C   -0.091688
    55  C    0.106950
    56  C    0.100728
    57  C    0.018793
    58  C    0.153074
    59  C   -0.099925
    60  C    0.104617
    61  C    0.081736
    62  C    0.066754
    63  C    0.089031
    64  C   -0.093335
    65  C    0.080653
    66  C    0.144651
    67  H   -0.065900
    68  H   -0.041893
    69  H   -0.069080
    70  H   -0.029274
    71  H   -0.020804
    72  H    0.004436
    73  H   -0.015301
    74  H    0.000240
    75  H    0.007209
    76  H    0.011073
    77  H   -0.031559
    78  H    0.000547
    79  H   -0.030275
    80  H    0.007531
    81  H    0.003761
    82  H   -0.007880
    83  H   -0.005184
    84  H    0.000580
    85  H   -0.017236
    86  H   -0.028454
    87  H   -0.003553
    88  H   -0.017497
    89  H    0.011187
    90  H   -0.016862
    91  H   -0.010034
    92  H   -0.008069
    93  H   -0.010719
    94  H   -0.012701
    95  H    0.014144
    96  H   -0.028695
    97  H    0.022330
    98  H   -0.008938
    99  H   -0.006883
   100  H    0.027193
   101  H    0.021176
   102  H    0.021585
   103  H    0.013335
   104  H   -0.030602
   105  H   -0.019901
   106  H   -0.002416
   107  H   -0.000152
   108  H   -0.028437
   109  H   -0.032170
   110  H   -0.019530
   111  H   -0.026249
   112  H   -0.042188
   113  H   -0.035050
   114  H   -0.023168
   115  H   -0.021477
   116  H   -0.005072
   117  H   -0.025169
   118  H   -0.027705
   119  H   -0.032494
   120  H   -0.023312
   121  H   -0.016345
   122  H   -0.036124
   123  H   -0.045898
   124  H   -0.033004
   125  H   -0.016589
   126  H   -0.027305
   127  H   -0.020150
   128  H   -0.032199
   129  H   -0.016414
   130  H   -0.034926
   131  H   -0.014340
   132  H   -0.031643
   133  H   -0.043765
   134  H   -0.034353
   135  H   -0.018149
   136  H   -0.029285
   137  H   -0.012242
   138  H   -0.026888
   139  H   -0.026117
   140  H   -0.013155
 Sum of Mulliken charges =  -0.00000

 Dipole moment (field-independent basis, Debye):
    X=             -2.2415    Y=              1.7766    Z=             -1.6305  Tot=              3.2923
 Quadrupole moment (field-independent basis, Debye-Ang):
   XX=           -379.4465   YY=           -419.0357   ZZ=           -412.2263
   XY=             -6.2915   XZ=              6.4941   YZ=              0.5456

 Normal termination of Gaussian 16 at Fri Apr 29 13:07:54 2022.
