 Gaussian 16, Revision A.03,
 Gaussian 16:  ES64L-G16RevA.03 25-Dec-2016

 -----------------------------------
 #p cam-b3lyp/Def2SVP td=(nstates=5)
 -----------------------------------

 -------------------------------------------------------
 step_301_chromophore_22 TDDFT with cam-b3lyp functional
 -------------------------------------------------------
 Symbolic Z-matrix:
 Charge =  0 Multiplicity = 1

                         Standard orientation:
 ---------------------------------------------------------------------
 Center     Atomic      Atomic             Coordinates (Angstroms)
 Number     Number       Type             X           Y           Z
 ---------------------------------------------------------------------
      1         12           0        6.355405    0.421333   -0.039859
      2          6           0        3.889910   -2.014936   -0.563954
      3          6           0        3.998501    2.785383   -1.092202
      4          6           0        8.746281    2.852377    0.209584
      5          6           0        8.767209   -1.969698    0.352276
      6          7           0        4.119392    0.324701   -0.832127
      7          6           0        3.332034   -0.775515   -0.823291
      8          6           0        1.851339   -0.383630   -1.215489
      9          6           0        1.999323    1.146183   -1.504884
     10          6           0        3.495294    1.482001   -1.170610
     11          6           0        1.441919    1.602006   -2.887848
     12          6           0        0.795911   -0.849902   -0.167933
     13          6           0       -0.539372   -0.051422    0.020660
     14          6           0       -1.758644   -0.960856    0.427417
     15          8           0       -1.903908   -1.427580    1.567459
     16          8           0       -2.650814   -1.233547   -0.558495
     17          7           0        6.412040    2.544462   -0.380536
     18          6           0        5.373178    3.323805   -0.765376
     19          6           0        5.784085    4.686057   -0.653564
     20          6           0        7.100566    4.750541   -0.216479
     21          6           0        7.495374    3.317649   -0.174735
     22          6           0        4.780927    5.805965   -1.014354
     23          6           0        7.940247    5.930611   -0.066880
     24          8           0        9.106986    5.880274    0.297379
     25          6           0        7.344517    7.357975    0.058778
     26          7           0        8.581180    0.416102    0.121928
     27          6           0        9.283644    1.572233    0.385071
     28          6           0       10.694500    1.184698    0.929034
     29          6           0       10.654871   -0.404769    0.989515
     30          6           0        9.266195   -0.717803    0.508647
     31          6           0       11.856814    1.993694    0.207816
     32          6           0       10.991752   -0.839817    2.380429
     33          6           0       11.713451   -2.201149    2.553518
     34          7           0        6.343801   -1.522704    0.025957
     35          6           0        7.417320   -2.416693    0.061541
     36          6           0        6.968303   -3.798354   -0.128373
     37          6           0        5.596610   -3.641660   -0.182518
     38          6           0        5.264749   -2.270884   -0.115242
     39          6           0        7.837419   -5.082969   -0.216789
     40          6           0        4.364492   -4.417270   -0.338125
     41          8           0        4.254211   -5.644059   -0.401975
     42          6           0        3.205244   -3.385660   -0.565584
     43          6           0        2.143631   -3.709362    0.477333
     44          8           0        2.256894   -3.544217    1.683861
     45          8           0        1.050589   -4.326374   -0.112545
     46          6           0        0.123046   -4.939670    0.845959
     47          6           0       -3.580995   -2.354475   -0.316144
     48          6           0       -4.754605   -1.961279   -1.115137
     49          6           0       -5.981726   -2.542453   -1.075092
     50          6           0       -6.186848   -3.885786   -0.349060
     51          6           0       -7.143602   -1.941908   -1.850098
     52          6           0       -8.104909   -1.253362   -0.894107
     53          6           0       -8.459619    0.223960   -1.285964
     54          6           0       -9.909119    0.572626   -0.906735
     55          6           0      -10.657925    1.046570   -2.176492
     56          6           0       -9.974077    1.685698    0.164292
     57          6           0      -10.856033    1.182006    1.397852
     58          6           0      -11.676890    2.212940    2.223810
     59          6           0      -13.156183    1.744369    2.631027
     60          6           0      -13.518416    2.071650    4.074148
     61          6           0      -14.191627    2.384590    1.698773
     62          6           0      -15.409788    1.365120    1.612474
     63          6           0      -16.112802    1.542949    0.237701
     64          6           0      -15.987769    0.201354   -0.630119
     65          6           0      -15.293435    0.484637   -2.014620
     66          6           0      -17.257764   -0.513472   -0.711979
     67          1           0        3.237936    3.495579   -1.422421
     68          1           0        9.445673    3.628727    0.527157
     69          1           0        9.466067   -2.800702    0.470443
     70          1           0        1.619717   -0.864286   -2.166054
     71          1           0        1.497422    1.715182   -0.722843
     72          1           0        1.404592    0.775342   -3.596409
     73          1           0        2.101687    2.390417   -3.248836
     74          1           0        0.505117    2.084331   -2.608669
     75          1           0        1.260963   -0.843558    0.817672
     76          1           0        0.546961   -1.854212   -0.511216
     77          1           0       -0.721486    0.451637   -0.929448
     78          1           0       -0.430416    0.774771    0.723386
     79          1           0        3.781440    5.521639   -1.342719
     80          1           0        5.188396    6.288430   -1.903444
     81          1           0        4.451090    6.527377   -0.267606
     82          1           0        6.803692    7.780430   -0.789220
     83          1           0        8.118776    8.051788    0.385337
     84          1           0        6.607160    7.336892    0.861549
     85          1           0       10.738360    1.611656    1.931016
     86          1           0       11.447308   -0.785203    0.344958
     87          1           0       12.364053    1.291561   -0.454593
     88          1           0       12.559948    2.363405    0.954108
     89          1           0       11.445740    2.912747   -0.210746
     90          1           0       10.078521   -1.090404    2.919275
     91          1           0       11.633796   -0.107915    2.869934
     92          1           0       12.322487   -2.185010    3.456982
     93          1           0       12.256588   -2.569548    1.684296
     94          1           0       10.883639   -2.886848    2.729656
     95          1           0        7.480864   -5.729581    0.584730
     96          1           0        8.864778   -4.844348    0.056710
     97          1           0        7.844671   -5.573268   -1.190674
     98          1           0        2.811455   -3.449283   -1.579218
     99          1           0       -0.551269   -5.581624    0.278326
    100          1           0       -0.551174   -4.254305    1.358592
    101          1           0        0.633037   -5.638355    1.509575
    102          1           0       -3.889507   -2.379042    0.729069
    103          1           0       -3.123096   -3.281832   -0.661511
    104          1           0       -4.727883   -0.955835   -1.534329
    105          1           0       -6.954950   -4.480925   -0.843307
    106          1           0       -6.653421   -3.714763    0.621118
    107          1           0       -5.287814   -4.490776   -0.229668
    108          1           0       -7.550816   -2.777026   -2.420628
    109          1           0       -6.870898   -1.212397   -2.612904
    110          1           0       -7.605825   -1.124204    0.066113
    111          1           0       -9.043766   -1.776320   -0.714420
    112          1           0       -8.215326    0.300610   -2.345473
    113          1           0       -7.806543    0.964228   -0.825892
    114          1           0      -10.472362   -0.303037   -0.583801
    115          1           0      -10.268372    0.565768   -3.074205
    116          1           0      -10.731483    2.130504   -2.252014
    117          1           0      -11.643650    0.594443   -2.066131
    118          1           0      -10.292684    2.656719   -0.214355
    119          1           0       -9.035287    1.831549    0.699769
    120          1           0      -10.024851    0.765891    1.966311
    121          1           0      -11.498718    0.390733    1.011029
    122          1           0      -11.767428    3.138507    1.656595
    123          1           0      -11.238855    2.471003    3.188238
    124          1           0      -13.244964    0.660420    2.569049
    125          1           0      -14.537943    2.448823    4.148141
    126          1           0      -12.935585    2.848405    4.569225
    127          1           0      -13.288719    1.185715    4.666938
    128          1           0      -13.663135    2.352496    0.746748
    129          1           0      -14.486397    3.420717    1.865143
    130          1           0      -16.127828    1.763563    2.329105
    131          1           0      -15.225297    0.327606    1.891478
    132          1           0      -15.682848    2.408459   -0.265654
    133          1           0      -17.189264    1.711495    0.265407
    134          1           0      -15.240532   -0.357998   -0.067073
    135          1           0      -15.023346    1.522833   -2.208971
    136          1           0      -15.930066    0.185168   -2.847539
    137          1           0      -14.363965   -0.072299   -2.135781
    138          1           0      -18.065755    0.212369   -0.618741
    139          1           0      -17.377310   -1.128916    0.180404
    140          1           0      -17.471573   -1.125341   -1.588040
 ---------------------------------------------------------------------

 SCF Done:  E(RCAM-B3LYP) =  -3007.14908900     A.U. after   19 cycles

 Excitation energies and oscillator strengths:

 Excited State   1:      Singlet-A      1.7354 eV  714.42 nm  f=0.3981  <S**2>=0.000
     245 -> 248       -0.17724
     246 -> 247        0.68303
     245 <- 248       -0.10441
 This state for optimization and/or second-order correction.
 Total Energy, E(TD-HF/TD-DFT) =  -3007.08531270
 Copying the excited state density for this state as the 1-particle RhoCI density.

 Excited State   2:      Singlet-A      2.1550 eV  575.33 nm  f=0.1737  <S**2>=0.000
     245 -> 247        0.66222
     246 -> 248        0.23203

 Excited State   3:      Singlet-A      3.4408 eV  360.34 nm  f=0.0031  <S**2>=0.000
     240 -> 247        0.23345
     240 -> 248        0.10411
     240 -> 249        0.13520
     242 -> 247        0.49279
     242 -> 248        0.17120
     242 -> 249        0.23374
     242 -> 250        0.15300
     243 -> 247        0.12563

 Excited State   4:      Singlet-A      3.5140 eV  352.83 nm  f=0.0020  <S**2>=0.000
     241 -> 247        0.12912
     241 -> 249       -0.15035
     241 -> 250        0.14402
     242 -> 247       -0.11513
     243 -> 247        0.56010
     243 -> 249       -0.21109
     243 -> 250        0.17082

 Excited State   5:      Singlet-A      3.5937 eV  345.01 nm  f=0.0860  <S**2>=0.000
     239 -> 247        0.12120
     240 -> 247        0.40190
     241 -> 247        0.36183
     242 -> 247       -0.16450
     243 -> 247       -0.18218
     246 -> 248       -0.31767

 The electronic state is 1-A.
 Alpha  occ. eigenvalues --  -46.89860 -19.25222 -19.25038 -19.19715 -19.19358
 Alpha  occ. eigenvalues --  -19.18983 -19.18791 -14.41839 -14.41712 -14.40389
 Alpha  occ. eigenvalues --  -14.39998 -10.39843 -10.39453 -10.35122 -10.35045
 Alpha  occ. eigenvalues --  -10.32080 -10.31352 -10.31232 -10.31179 -10.31161
 Alpha  occ. eigenvalues --  -10.30978 -10.30646 -10.30374 -10.30293 -10.29335
 Alpha  occ. eigenvalues --  -10.29051 -10.28811 -10.28685 -10.28456 -10.28343
 Alpha  occ. eigenvalues --  -10.28258 -10.28254 -10.28046 -10.27989 -10.27656
 Alpha  occ. eigenvalues --  -10.27463 -10.27316 -10.27286 -10.27046 -10.26948
 Alpha  occ. eigenvalues --  -10.26780 -10.26649 -10.26305 -10.26207 -10.26114
 Alpha  occ. eigenvalues --  -10.25974 -10.25809 -10.25765 -10.25615 -10.25315
 Alpha  occ. eigenvalues --  -10.25310 -10.25302 -10.25169 -10.25108 -10.24992
 Alpha  occ. eigenvalues --  -10.24988 -10.24943 -10.24908 -10.24903 -10.24849
 Alpha  occ. eigenvalues --  -10.24644 -10.24500 -10.24350 -10.24126 -10.24021
 Alpha  occ. eigenvalues --  -10.23922  -3.18312  -1.93200  -1.92744  -1.92646
 Alpha  occ. eigenvalues --   -1.16394  -1.15581  -1.10306  -1.09104  -1.07240
 Alpha  occ. eigenvalues --   -1.06729  -1.04779  -1.04459  -1.03074  -1.02351
 Alpha  occ. eigenvalues --   -0.92004  -0.90589  -0.89535  -0.89510  -0.89224
 Alpha  occ. eigenvalues --   -0.88736  -0.88209  -0.87582  -0.87417  -0.87275
 Alpha  occ. eigenvalues --   -0.86357  -0.85412  -0.84477  -0.83238  -0.83208
 Alpha  occ. eigenvalues --   -0.82425  -0.81458  -0.80831  -0.80639  -0.79932
 Alpha  occ. eigenvalues --   -0.79758  -0.78525  -0.78131  -0.77633  -0.76318
 Alpha  occ. eigenvalues --   -0.75909  -0.75678  -0.75447  -0.74739  -0.73738
 Alpha  occ. eigenvalues --   -0.73548  -0.72802  -0.71483  -0.70590  -0.68878
 Alpha  occ. eigenvalues --   -0.68789  -0.67863  -0.67807  -0.66581  -0.65414
 Alpha  occ. eigenvalues --   -0.65248  -0.65057  -0.64880  -0.64473  -0.64295
 Alpha  occ. eigenvalues --   -0.63767  -0.63743  -0.62506  -0.61850  -0.60734
 Alpha  occ. eigenvalues --   -0.59953  -0.59715  -0.59328  -0.58668  -0.58174
 Alpha  occ. eigenvalues --   -0.57788  -0.57452  -0.56464  -0.55663  -0.55387
 Alpha  occ. eigenvalues --   -0.55071  -0.54671  -0.54303  -0.54075  -0.53879
 Alpha  occ. eigenvalues --   -0.53744  -0.53429  -0.53365  -0.53162  -0.52766
 Alpha  occ. eigenvalues --   -0.52521  -0.52131  -0.51989  -0.51854  -0.51841
 Alpha  occ. eigenvalues --   -0.51513  -0.51077  -0.50972  -0.50843  -0.50501
 Alpha  occ. eigenvalues --   -0.50271  -0.50094  -0.49890  -0.49547  -0.49534
 Alpha  occ. eigenvalues --   -0.49392  -0.49198  -0.49048  -0.48856  -0.48807
 Alpha  occ. eigenvalues --   -0.48527  -0.48387  -0.48307  -0.48097  -0.47836
 Alpha  occ. eigenvalues --   -0.47453  -0.47236  -0.46935  -0.46911  -0.46855
 Alpha  occ. eigenvalues --   -0.46542  -0.46170  -0.45983  -0.45784  -0.45678
 Alpha  occ. eigenvalues --   -0.45596  -0.45439  -0.45178  -0.45098  -0.44981
 Alpha  occ. eigenvalues --   -0.44612  -0.44285  -0.44237  -0.44028  -0.44011
 Alpha  occ. eigenvalues --   -0.43711  -0.43586  -0.43480  -0.43255  -0.43178
 Alpha  occ. eigenvalues --   -0.42951  -0.42893  -0.42385  -0.42272  -0.42011
 Alpha  occ. eigenvalues --   -0.41838  -0.41636  -0.41597  -0.40989  -0.40893
 Alpha  occ. eigenvalues --   -0.40792  -0.40587  -0.40435  -0.40329  -0.40194
 Alpha  occ. eigenvalues --   -0.39994  -0.39701  -0.39527  -0.39191  -0.38803
 Alpha  occ. eigenvalues --   -0.38706  -0.38493  -0.38334  -0.37944  -0.37444
 Alpha  occ. eigenvalues --   -0.36952  -0.36707  -0.36536  -0.36448  -0.35897
 Alpha  occ. eigenvalues --   -0.35365  -0.35244  -0.34607  -0.34517  -0.34289
 Alpha  occ. eigenvalues --   -0.33885  -0.33584  -0.32649  -0.31964  -0.31127
 Alpha  occ. eigenvalues --   -0.31049  -0.30987  -0.30639  -0.29429  -0.23811
 Alpha  occ. eigenvalues --   -0.21777
 Alpha virt. eigenvalues --   -0.09164  -0.01563   0.00356   0.02005   0.02361
 Alpha virt. eigenvalues --    0.04502   0.05220   0.05819   0.06036   0.06443
 Alpha virt. eigenvalues --    0.07502   0.07914   0.08374   0.08848   0.09132

 Mulliken charges:
               1
     1  Mg   0.838207
     2  C   -0.056273
     3  C   -0.050858
     4  C   -0.074602
     5  C   -0.070375
     6  N   -0.250656
     7  C   -0.063367
     8  C    0.008312
     9  C   -0.105921
    10  C    0.022194
    11  C    0.090265
    12  C    0.022559
    13  C    0.086753
    14  C    0.166531
    15  O   -0.260000
    16  O   -0.330214
    17  N   -0.324303
    18  C    0.117466
    19  C   -0.099709
    20  C   -0.007375
    21  C    0.124101
    22  C    0.078609
    23  C    0.002537
    24  O   -0.210810
    25  C    0.027598
    26  N   -0.299104
    27  C    0.020433
    28  C   -0.054849
    29  C    0.035005
    30  C    0.070022
    31  C    0.065201
    32  C    0.007493
    33  C    0.000078
    34  N   -0.404251
    35  C    0.092647
    36  C   -0.172695
    37  C   -0.017606
    38  C    0.147156
    39  C    0.137974
    40  C    0.059284
    41  O   -0.181608
    42  C    0.037215
    43  C    0.212285
    44  O   -0.213260
    45  O   -0.344165
    46  C    0.175424
    47  C    0.299289
    48  C   -0.151332
    49  C   -0.190751
    50  C    0.077581
    51  C    0.104282
    52  C    0.008893
    53  C    0.048946
    54  C   -0.152768
    55  C    0.055664
    56  C    0.050490
    57  C   -0.028467
    58  C    0.097980
    59  C   -0.156014
    60  C    0.046638
    61  C    0.030197
    62  C    0.008512
    63  C    0.040800
    64  C   -0.154226
    65  C    0.027284
    66  C    0.080021
    67  H   -0.034996
    68  H   -0.001050
    69  H   -0.035053
    70  H    0.005783
    71  H    0.012499
    72  H    0.029322
    73  H    0.010441
    74  H    0.022814
    75  H    0.039063
    76  H    0.038322
    77  H    0.002188
    78  H    0.032500
    79  H    0.000970
    80  H    0.033050
    81  H    0.030517
    82  H    0.020603
    83  H    0.030337
    84  H    0.027748
    85  H    0.017284
    86  H    0.005954
    87  H    0.020167
    88  H    0.007545
    89  H    0.034635
    90  H    0.013046
    91  H    0.017373
    92  H    0.017418
    93  H    0.011781
    94  H    0.009268
    95  H    0.039169
    96  H   -0.005558
    97  H    0.046819
    98  H    0.035183
    99  H    0.016661
   100  H    0.047185
   101  H    0.044952
   102  H    0.053765
   103  H    0.037684
   104  H    0.003884
   105  H    0.006144
   106  H    0.022338
   107  H    0.023564
   108  H    0.001741
   109  H   -0.000247
   110  H    0.008630
   111  H    0.001521
   112  H   -0.014231
   113  H   -0.006116
   114  H    0.007348
   115  H    0.003418
   116  H    0.017274
   117  H   -0.004874
   118  H   -0.001158
   119  H   -0.003606
   120  H    0.003510
   121  H    0.006479
   122  H   -0.007962
   123  H   -0.014814
   124  H   -0.001009
   125  H    0.007334
   126  H   -0.002433
   127  H    0.004669
   128  H   -0.007058
   129  H    0.012253
   130  H   -0.005619
   131  H    0.011909
   132  H   -0.003243
   133  H   -0.014689
   134  H   -0.003573
   135  H    0.004548
   136  H   -0.004679
   137  H    0.008630
   138  H   -0.003250
   139  H   -0.000870
   140  H    0.012478
 Sum of Mulliken charges =  -0.00000

 Dipole moment (field-independent basis, Debye):
    X=             -2.1673    Y=              2.8107    Z=             -1.7375  Tot=              3.9518
 Quadrupole moment (field-independent basis, Debye-Ang):
   XX=           -377.2178   YY=           -413.1351   ZZ=           -412.6697
   XY=             -0.8161   XZ=              7.3677   YZ=              0.1267

 Normal termination of Gaussian 16 at Fri Apr 29 12:19:23 2022.
