 Gaussian 16, Revision A.03,
 Gaussian 16:  ES64L-G16RevA.03 25-Dec-2016

 ---------------------------------
 #p PBE1PBE/Def2SVP td=(nstates=5)
 ---------------------------------

 -----------------------------------------------------
 step_301_chromophore_22 TDDFT with PBE1PBE functional
 -----------------------------------------------------
 Symbolic Z-matrix:
 Charge =  0 Multiplicity = 1

                         Standard orientation:
 ---------------------------------------------------------------------
 Center     Atomic      Atomic             Coordinates (Angstroms)
 Number     Number       Type             X           Y           Z
 ---------------------------------------------------------------------
      1         12           0        6.355405    0.421333   -0.039859
      2          6           0        3.889910   -2.014936   -0.563954
      3          6           0        3.998501    2.785383   -1.092202
      4          6           0        8.746281    2.852377    0.209584
      5          6           0        8.767209   -1.969698    0.352276
      6          7           0        4.119392    0.324701   -0.832127
      7          6           0        3.332034   -0.775515   -0.823291
      8          6           0        1.851339   -0.383630   -1.215489
      9          6           0        1.999323    1.146183   -1.504884
     10          6           0        3.495294    1.482001   -1.170610
     11          6           0        1.441919    1.602006   -2.887848
     12          6           0        0.795911   -0.849902   -0.167933
     13          6           0       -0.539372   -0.051422    0.020660
     14          6           0       -1.758644   -0.960856    0.427417
     15          8           0       -1.903908   -1.427580    1.567459
     16          8           0       -2.650814   -1.233547   -0.558495
     17          7           0        6.412040    2.544462   -0.380536
     18          6           0        5.373178    3.323805   -0.765376
     19          6           0        5.784085    4.686057   -0.653564
     20          6           0        7.100566    4.750541   -0.216479
     21          6           0        7.495374    3.317649   -0.174735
     22          6           0        4.780927    5.805965   -1.014354
     23          6           0        7.940247    5.930611   -0.066880
     24          8           0        9.106986    5.880274    0.297379
     25          6           0        7.344517    7.357975    0.058778
     26          7           0        8.581180    0.416102    0.121928
     27          6           0        9.283644    1.572233    0.385071
     28          6           0       10.694500    1.184698    0.929034
     29          6           0       10.654871   -0.404769    0.989515
     30          6           0        9.266195   -0.717803    0.508647
     31          6           0       11.856814    1.993694    0.207816
     32          6           0       10.991752   -0.839817    2.380429
     33          6           0       11.713451   -2.201149    2.553518
     34          7           0        6.343801   -1.522704    0.025957
     35          6           0        7.417320   -2.416693    0.061541
     36          6           0        6.968303   -3.798354   -0.128373
     37          6           0        5.596610   -3.641660   -0.182518
     38          6           0        5.264749   -2.270884   -0.115242
     39          6           0        7.837419   -5.082969   -0.216789
     40          6           0        4.364492   -4.417270   -0.338125
     41          8           0        4.254211   -5.644059   -0.401975
     42          6           0        3.205244   -3.385660   -0.565584
     43          6           0        2.143631   -3.709362    0.477333
     44          8           0        2.256894   -3.544217    1.683861
     45          8           0        1.050589   -4.326374   -0.112545
     46          6           0        0.123046   -4.939670    0.845959
     47          6           0       -3.580995   -2.354475   -0.316144
     48          6           0       -4.754605   -1.961279   -1.115137
     49          6           0       -5.981726   -2.542453   -1.075092
     50          6           0       -6.186848   -3.885786   -0.349060
     51          6           0       -7.143602   -1.941908   -1.850098
     52          6           0       -8.104909   -1.253362   -0.894107
     53          6           0       -8.459619    0.223960   -1.285964
     54          6           0       -9.909119    0.572626   -0.906735
     55          6           0      -10.657925    1.046570   -2.176492
     56          6           0       -9.974077    1.685698    0.164292
     57          6           0      -10.856033    1.182006    1.397852
     58          6           0      -11.676890    2.212940    2.223810
     59          6           0      -13.156183    1.744369    2.631027
     60          6           0      -13.518416    2.071650    4.074148
     61          6           0      -14.191627    2.384590    1.698773
     62          6           0      -15.409788    1.365120    1.612474
     63          6           0      -16.112802    1.542949    0.237701
     64          6           0      -15.987769    0.201354   -0.630119
     65          6           0      -15.293435    0.484637   -2.014620
     66          6           0      -17.257764   -0.513472   -0.711979
     67          1           0        3.237936    3.495579   -1.422421
     68          1           0        9.445673    3.628727    0.527157
     69          1           0        9.466067   -2.800702    0.470443
     70          1           0        1.619717   -0.864286   -2.166054
     71          1           0        1.497422    1.715182   -0.722843
     72          1           0        1.404592    0.775342   -3.596409
     73          1           0        2.101687    2.390417   -3.248836
     74          1           0        0.505117    2.084331   -2.608669
     75          1           0        1.260963   -0.843558    0.817672
     76          1           0        0.546961   -1.854212   -0.511216
     77          1           0       -0.721486    0.451637   -0.929448
     78          1           0       -0.430416    0.774771    0.723386
     79          1           0        3.781440    5.521639   -1.342719
     80          1           0        5.188396    6.288430   -1.903444
     81          1           0        4.451090    6.527377   -0.267606
     82          1           0        6.803692    7.780430   -0.789220
     83          1           0        8.118776    8.051788    0.385337
     84          1           0        6.607160    7.336892    0.861549
     85          1           0       10.738360    1.611656    1.931016
     86          1           0       11.447308   -0.785203    0.344958
     87          1           0       12.364053    1.291561   -0.454593
     88          1           0       12.559948    2.363405    0.954108
     89          1           0       11.445740    2.912747   -0.210746
     90          1           0       10.078521   -1.090404    2.919275
     91          1           0       11.633796   -0.107915    2.869934
     92          1           0       12.322487   -2.185010    3.456982
     93          1           0       12.256588   -2.569548    1.684296
     94          1           0       10.883639   -2.886848    2.729656
     95          1           0        7.480864   -5.729581    0.584730
     96          1           0        8.864778   -4.844348    0.056710
     97          1           0        7.844671   -5.573268   -1.190674
     98          1           0        2.811455   -3.449283   -1.579218
     99          1           0       -0.551269   -5.581624    0.278326
    100          1           0       -0.551174   -4.254305    1.358592
    101          1           0        0.633037   -5.638355    1.509575
    102          1           0       -3.889507   -2.379042    0.729069
    103          1           0       -3.123096   -3.281832   -0.661511
    104          1           0       -4.727883   -0.955835   -1.534329
    105          1           0       -6.954950   -4.480925   -0.843307
    106          1           0       -6.653421   -3.714763    0.621118
    107          1           0       -5.287814   -4.490776   -0.229668
    108          1           0       -7.550816   -2.777026   -2.420628
    109          1           0       -6.870898   -1.212397   -2.612904
    110          1           0       -7.605825   -1.124204    0.066113
    111          1           0       -9.043766   -1.776320   -0.714420
    112          1           0       -8.215326    0.300610   -2.345473
    113          1           0       -7.806543    0.964228   -0.825892
    114          1           0      -10.472362   -0.303037   -0.583801
    115          1           0      -10.268372    0.565768   -3.074205
    116          1           0      -10.731483    2.130504   -2.252014
    117          1           0      -11.643650    0.594443   -2.066131
    118          1           0      -10.292684    2.656719   -0.214355
    119          1           0       -9.035287    1.831549    0.699769
    120          1           0      -10.024851    0.765891    1.966311
    121          1           0      -11.498718    0.390733    1.011029
    122          1           0      -11.767428    3.138507    1.656595
    123          1           0      -11.238855    2.471003    3.188238
    124          1           0      -13.244964    0.660420    2.569049
    125          1           0      -14.537943    2.448823    4.148141
    126          1           0      -12.935585    2.848405    4.569225
    127          1           0      -13.288719    1.185715    4.666938
    128          1           0      -13.663135    2.352496    0.746748
    129          1           0      -14.486397    3.420717    1.865143
    130          1           0      -16.127828    1.763563    2.329105
    131          1           0      -15.225297    0.327606    1.891478
    132          1           0      -15.682848    2.408459   -0.265654
    133          1           0      -17.189264    1.711495    0.265407
    134          1           0      -15.240532   -0.357998   -0.067073
    135          1           0      -15.023346    1.522833   -2.208971
    136          1           0      -15.930066    0.185168   -2.847539
    137          1           0      -14.363965   -0.072299   -2.135781
    138          1           0      -18.065755    0.212369   -0.618741
    139          1           0      -17.377310   -1.128916    0.180404
    140          1           0      -17.471573   -1.125341   -1.588040
 ---------------------------------------------------------------------

 SCF Done:  E(RPBE1PBE) =  -3005.33665301     A.U. after   15 cycles

 Excitation energies and oscillator strengths:

 Excited State   1:      Singlet-A      1.8918 eV  655.36 nm  f=0.3862  <S**2>=0.000
     245 -> 248       -0.16896
     246 -> 247        0.68862
     246 <- 247       -0.10278
 This state for optimization and/or second-order correction.
 Total Energy, E(TD-HF/TD-DFT) =  -3005.26712902
 Copying the excited state density for this state as the 1-particle RhoCI density.

 Excited State   2:      Singlet-A      2.1714 eV  570.99 nm  f=0.1594  <S**2>=0.000
     245 -> 247        0.66894
     246 -> 248        0.20988

 Excited State   3:      Singlet-A      2.9161 eV  425.17 nm  f=0.0002  <S**2>=0.000
     243 -> 247        0.67079
     243 -> 248        0.12479
     243 -> 249        0.12127
     243 -> 250        0.10134

 Excited State   4:      Singlet-A      2.9930 eV  414.25 nm  f=0.0004  <S**2>=0.000
     242 -> 247        0.67192
     242 -> 249       -0.15016

 Excited State   5:      Singlet-A      3.2807 eV  377.92 nm  f=0.0000  <S**2>=0.000
     244 -> 247        0.70686

 The electronic state is 1-A.
 Alpha  occ. eigenvalues --  -46.93265 -19.25961 -19.25745 -19.19982 -19.19703
 Alpha  occ. eigenvalues --  -19.19371 -19.18867 -14.41316 -14.41307 -14.39928
 Alpha  occ. eigenvalues --  -14.39728 -10.36949 -10.36546 -10.32354 -10.32100
 Alpha  occ. eigenvalues --  -10.29505 -10.29059 -10.28994 -10.28809 -10.28694
 Alpha  occ. eigenvalues --  -10.28356 -10.28251 -10.28179 -10.28121 -10.27187
 Alpha  occ. eigenvalues --  -10.26648 -10.26528 -10.26398 -10.26288 -10.26138
 Alpha  occ. eigenvalues --  -10.26052 -10.25973 -10.25821 -10.25778 -10.25490
 Alpha  occ. eigenvalues --  -10.25097 -10.24801 -10.24753 -10.24637 -10.24596
 Alpha  occ. eigenvalues --  -10.24241 -10.24196 -10.23753 -10.23707 -10.23622
 Alpha  occ. eigenvalues --  -10.23585 -10.23372 -10.23329 -10.23018 -10.22991
 Alpha  occ. eigenvalues --  -10.22968 -10.22903 -10.22782 -10.22745 -10.22680
 Alpha  occ. eigenvalues --  -10.22555 -10.22539 -10.22516 -10.22488 -10.22429
 Alpha  occ. eigenvalues --  -10.22260 -10.22105 -10.21782 -10.21529 -10.21379
 Alpha  occ. eigenvalues --  -10.21308  -3.15301  -1.88128  -1.87650  -1.87557
 Alpha  occ. eigenvalues --   -1.11262  -1.10390  -1.04897  -1.03985  -1.02114
 Alpha  occ. eigenvalues --   -1.01629  -0.99467  -0.99166  -0.97732  -0.96949
 Alpha  occ. eigenvalues --   -0.86446  -0.84743  -0.83812  -0.83652  -0.83413
 Alpha  occ. eigenvalues --   -0.82888  -0.82484  -0.81814  -0.81632  -0.81528
 Alpha  occ. eigenvalues --   -0.80777  -0.79654  -0.78726  -0.77564  -0.77472
 Alpha  occ. eigenvalues --   -0.76618  -0.75719  -0.75030  -0.74913  -0.74097
 Alpha  occ. eigenvalues --   -0.73935  -0.72734  -0.72403  -0.71956  -0.70691
 Alpha  occ. eigenvalues --   -0.70085  -0.69819  -0.69766  -0.68887  -0.68052
 Alpha  occ. eigenvalues --   -0.67907  -0.67129  -0.65872  -0.64947  -0.63331
 Alpha  occ. eigenvalues --   -0.63199  -0.62326  -0.62057  -0.60826  -0.59951
 Alpha  occ. eigenvalues --   -0.59663  -0.59541  -0.59125  -0.59064  -0.58421
 Alpha  occ. eigenvalues --   -0.58246  -0.57917  -0.56715  -0.56504  -0.55215
 Alpha  occ. eigenvalues --   -0.54527  -0.54259  -0.53921  -0.53255  -0.52769
 Alpha  occ. eigenvalues --   -0.52265  -0.51936  -0.51010  -0.50195  -0.49955
 Alpha  occ. eigenvalues --   -0.49621  -0.49223  -0.48787  -0.48576  -0.48394
 Alpha  occ. eigenvalues --   -0.48291  -0.47922  -0.47840  -0.47741  -0.47411
 Alpha  occ. eigenvalues --   -0.46827  -0.46743  -0.46563  -0.46422  -0.46372
 Alpha  occ. eigenvalues --   -0.46093  -0.45620  -0.45516  -0.45446  -0.45136
 Alpha  occ. eigenvalues --   -0.44938  -0.44657  -0.44508  -0.44196  -0.44093
 Alpha  occ. eigenvalues --   -0.43841  -0.43772  -0.43686  -0.43478  -0.43401
 Alpha  occ. eigenvalues --   -0.43185  -0.43058  -0.42935  -0.42699  -0.42386
 Alpha  occ. eigenvalues --   -0.42101  -0.41872  -0.41586  -0.41521  -0.41492
 Alpha  occ. eigenvalues --   -0.41211  -0.40861  -0.40695  -0.40432  -0.40424
 Alpha  occ. eigenvalues --   -0.40191  -0.40180  -0.39938  -0.39769  -0.39689
 Alpha  occ. eigenvalues --   -0.39457  -0.39145  -0.38972  -0.38937  -0.38875
 Alpha  occ. eigenvalues --   -0.38469  -0.38389  -0.38251  -0.38117  -0.37925
 Alpha  occ. eigenvalues --   -0.37673  -0.37654  -0.37259  -0.37146  -0.36716
 Alpha  occ. eigenvalues --   -0.36683  -0.36419  -0.36334  -0.35925  -0.35705
 Alpha  occ. eigenvalues --   -0.35652  -0.35401  -0.35204  -0.35174  -0.35089
 Alpha  occ. eigenvalues --   -0.34759  -0.34590  -0.34324  -0.34159  -0.33622
 Alpha  occ. eigenvalues --   -0.33509  -0.33507  -0.33350  -0.32718  -0.32251
 Alpha  occ. eigenvalues --   -0.31991  -0.31741  -0.31449  -0.31318  -0.30935
 Alpha  occ. eigenvalues --   -0.30320  -0.30137  -0.29776  -0.29465  -0.29204
 Alpha  occ. eigenvalues --   -0.28872  -0.28446  -0.28288  -0.27507  -0.26771
 Alpha  occ. eigenvalues --   -0.26530  -0.25775  -0.25614  -0.24742  -0.20823
 Alpha  occ. eigenvalues --   -0.19363
 Alpha virt. eigenvalues --   -0.11583  -0.05179  -0.03850  -0.02399  -0.00417
 Alpha virt. eigenvalues --   -0.00138   0.00522   0.01434   0.01660   0.02848
 Alpha virt. eigenvalues --    0.03837   0.04317   0.04546   0.05377   0.05634

 Mulliken charges:
               1
     1  Mg   0.982688
     2  C   -0.074714
     3  C   -0.049313
     4  C   -0.071425
     5  C   -0.063391
     6  N   -0.351923
     7  C    0.005518
     8  C   -0.055516
     9  C   -0.183416
    10  C    0.065343
    11  C    0.029011
    12  C   -0.029832
    13  C    0.008701
    14  C    0.232231
    15  O   -0.291069
    16  O   -0.362429
    17  N   -0.440263
    18  C    0.150684
    19  C   -0.143099
    20  C   -0.051469
    21  C    0.152408
    22  C    0.027986
    23  C    0.053501
    24  O   -0.247357
    25  C   -0.046794
    26  N   -0.397294
    27  C    0.060817
    28  C   -0.121436
    29  C   -0.048142
    30  C    0.103223
    31  C    0.004601
    32  C   -0.051996
    33  C   -0.070742
    34  N   -0.535004
    35  C    0.110205
    36  C   -0.183360
    37  C   -0.076157
    38  C    0.217401
    39  C    0.084081
    40  C    0.151958
    41  O   -0.225153
    42  C   -0.060021
    43  C    0.293005
    44  O   -0.247731
    45  O   -0.375308
    46  C    0.118944
    47  C    0.257939
    48  C   -0.153968
    49  C   -0.245893
    50  C    0.018131
    51  C    0.042195
    52  C   -0.054038
    53  C    0.000064
    54  C   -0.243658
    55  C   -0.005026
    56  C    0.002646
    57  C   -0.092561
    58  C    0.042139
    59  C   -0.241807
    60  C   -0.007652
    61  C   -0.029773
    62  C   -0.056086
    63  C   -0.007208
    64  C   -0.249103
    65  C   -0.031550
    66  C    0.018230
    67  H   -0.001719
    68  H    0.030825
    69  H    0.000344
    70  H    0.043378
    71  H    0.051686
    72  H    0.055561
    73  H    0.038783
    74  H    0.049325
    75  H    0.071297
    76  H    0.075255
    77  H    0.038014
    78  H    0.063285
    79  H    0.026634
    80  H    0.060414
    81  H    0.055403
    82  H    0.045843
    83  H    0.057088
    84  H    0.054754
    85  H    0.055199
    86  H    0.043174
    87  H    0.047759
    88  H    0.035048
    89  H    0.061901
    90  H    0.046698
    91  H    0.050206
    92  H    0.045892
    93  H    0.038536
    94  H    0.036617
    95  H    0.066825
    96  H    0.022687
    97  H    0.073598
    98  H    0.072151
    99  H    0.039230
   100  H    0.069903
   101  H    0.066929
   102  H    0.079787
   103  H    0.063588
   104  H    0.034131
   105  H    0.033364
   106  H    0.049959
   107  H    0.049557
   108  H    0.034688
   109  H    0.030769
   110  H    0.043551
   111  H    0.033339
   112  H    0.017245
   113  H    0.025884
   114  H    0.042578
   115  H    0.031526
   116  H    0.043479
   117  H    0.027160
   118  H    0.029076
   119  H    0.029031
   120  H    0.037336
   121  H    0.038282
   122  H    0.024460
   123  H    0.018581
   124  H    0.036138
   125  H    0.034459
   126  H    0.024597
   127  H    0.032339
   128  H    0.030504
   129  H    0.042957
   130  H    0.029276
   131  H    0.040165
   132  H    0.027860
   133  H    0.017443
   134  H    0.035496
   135  H    0.030797
   136  H    0.022890
   137  H    0.036910
   138  H    0.023849
   139  H    0.028056
   140  H    0.039394
 Sum of Mulliken charges =  -0.00000

 Dipole moment (field-independent basis, Debye):
    X=             -2.2219    Y=              2.4005    Z=             -1.6585  Tot=              3.6674
 Quadrupole moment (field-independent basis, Debye-Ang):
   XX=           -372.0828   YY=           -410.7387   ZZ=           -410.2413
   XY=             -4.0982   XZ=              8.5369   YZ=              0.0762

 Normal termination of Gaussian 16 at Fri Apr 29 12:33:45 2022.
