 Gaussian 16, Revision A.03,
 Gaussian 16:  ES64L-G16RevA.03 25-Dec-2016

 --------------------------------
 #p wB97XD/Def2SVP td=(nstates=5)
 --------------------------------

 ----------------------------------------------------
 step_301_chromophore_22 TDDFT with wB97XD functional
 ----------------------------------------------------
 Symbolic Z-matrix:
 Charge =  0 Multiplicity = 1

                         Standard orientation:
 ---------------------------------------------------------------------
 Center     Atomic      Atomic             Coordinates (Angstroms)
 Number     Number       Type             X           Y           Z
 ---------------------------------------------------------------------
      1         12           0        6.355405    0.421333   -0.039859
      2          6           0        3.889910   -2.014936   -0.563954
      3          6           0        3.998501    2.785383   -1.092202
      4          6           0        8.746281    2.852377    0.209584
      5          6           0        8.767209   -1.969698    0.352276
      6          7           0        4.119392    0.324701   -0.832127
      7          6           0        3.332034   -0.775515   -0.823291
      8          6           0        1.851339   -0.383630   -1.215489
      9          6           0        1.999323    1.146183   -1.504884
     10          6           0        3.495294    1.482001   -1.170610
     11          6           0        1.441919    1.602006   -2.887848
     12          6           0        0.795911   -0.849902   -0.167933
     13          6           0       -0.539372   -0.051422    0.020660
     14          6           0       -1.758644   -0.960856    0.427417
     15          8           0       -1.903908   -1.427580    1.567459
     16          8           0       -2.650814   -1.233547   -0.558495
     17          7           0        6.412040    2.544462   -0.380536
     18          6           0        5.373178    3.323805   -0.765376
     19          6           0        5.784085    4.686057   -0.653564
     20          6           0        7.100566    4.750541   -0.216479
     21          6           0        7.495374    3.317649   -0.174735
     22          6           0        4.780927    5.805965   -1.014354
     23          6           0        7.940247    5.930611   -0.066880
     24          8           0        9.106986    5.880274    0.297379
     25          6           0        7.344517    7.357975    0.058778
     26          7           0        8.581180    0.416102    0.121928
     27          6           0        9.283644    1.572233    0.385071
     28          6           0       10.694500    1.184698    0.929034
     29          6           0       10.654871   -0.404769    0.989515
     30          6           0        9.266195   -0.717803    0.508647
     31          6           0       11.856814    1.993694    0.207816
     32          6           0       10.991752   -0.839817    2.380429
     33          6           0       11.713451   -2.201149    2.553518
     34          7           0        6.343801   -1.522704    0.025957
     35          6           0        7.417320   -2.416693    0.061541
     36          6           0        6.968303   -3.798354   -0.128373
     37          6           0        5.596610   -3.641660   -0.182518
     38          6           0        5.264749   -2.270884   -0.115242
     39          6           0        7.837419   -5.082969   -0.216789
     40          6           0        4.364492   -4.417270   -0.338125
     41          8           0        4.254211   -5.644059   -0.401975
     42          6           0        3.205244   -3.385660   -0.565584
     43          6           0        2.143631   -3.709362    0.477333
     44          8           0        2.256894   -3.544217    1.683861
     45          8           0        1.050589   -4.326374   -0.112545
     46          6           0        0.123046   -4.939670    0.845959
     47          6           0       -3.580995   -2.354475   -0.316144
     48          6           0       -4.754605   -1.961279   -1.115137
     49          6           0       -5.981726   -2.542453   -1.075092
     50          6           0       -6.186848   -3.885786   -0.349060
     51          6           0       -7.143602   -1.941908   -1.850098
     52          6           0       -8.104909   -1.253362   -0.894107
     53          6           0       -8.459619    0.223960   -1.285964
     54          6           0       -9.909119    0.572626   -0.906735
     55          6           0      -10.657925    1.046570   -2.176492
     56          6           0       -9.974077    1.685698    0.164292
     57          6           0      -10.856033    1.182006    1.397852
     58          6           0      -11.676890    2.212940    2.223810
     59          6           0      -13.156183    1.744369    2.631027
     60          6           0      -13.518416    2.071650    4.074148
     61          6           0      -14.191627    2.384590    1.698773
     62          6           0      -15.409788    1.365120    1.612474
     63          6           0      -16.112802    1.542949    0.237701
     64          6           0      -15.987769    0.201354   -0.630119
     65          6           0      -15.293435    0.484637   -2.014620
     66          6           0      -17.257764   -0.513472   -0.711979
     67          1           0        3.237936    3.495579   -1.422421
     68          1           0        9.445673    3.628727    0.527157
     69          1           0        9.466067   -2.800702    0.470443
     70          1           0        1.619717   -0.864286   -2.166054
     71          1           0        1.497422    1.715182   -0.722843
     72          1           0        1.404592    0.775342   -3.596409
     73          1           0        2.101687    2.390417   -3.248836
     74          1           0        0.505117    2.084331   -2.608669
     75          1           0        1.260963   -0.843558    0.817672
     76          1           0        0.546961   -1.854212   -0.511216
     77          1           0       -0.721486    0.451637   -0.929448
     78          1           0       -0.430416    0.774771    0.723386
     79          1           0        3.781440    5.521639   -1.342719
     80          1           0        5.188396    6.288430   -1.903444
     81          1           0        4.451090    6.527377   -0.267606
     82          1           0        6.803692    7.780430   -0.789220
     83          1           0        8.118776    8.051788    0.385337
     84          1           0        6.607160    7.336892    0.861549
     85          1           0       10.738360    1.611656    1.931016
     86          1           0       11.447308   -0.785203    0.344958
     87          1           0       12.364053    1.291561   -0.454593
     88          1           0       12.559948    2.363405    0.954108
     89          1           0       11.445740    2.912747   -0.210746
     90          1           0       10.078521   -1.090404    2.919275
     91          1           0       11.633796   -0.107915    2.869934
     92          1           0       12.322487   -2.185010    3.456982
     93          1           0       12.256588   -2.569548    1.684296
     94          1           0       10.883639   -2.886848    2.729656
     95          1           0        7.480864   -5.729581    0.584730
     96          1           0        8.864778   -4.844348    0.056710
     97          1           0        7.844671   -5.573268   -1.190674
     98          1           0        2.811455   -3.449283   -1.579218
     99          1           0       -0.551269   -5.581624    0.278326
    100          1           0       -0.551174   -4.254305    1.358592
    101          1           0        0.633037   -5.638355    1.509575
    102          1           0       -3.889507   -2.379042    0.729069
    103          1           0       -3.123096   -3.281832   -0.661511
    104          1           0       -4.727883   -0.955835   -1.534329
    105          1           0       -6.954950   -4.480925   -0.843307
    106          1           0       -6.653421   -3.714763    0.621118
    107          1           0       -5.287814   -4.490776   -0.229668
    108          1           0       -7.550816   -2.777026   -2.420628
    109          1           0       -6.870898   -1.212397   -2.612904
    110          1           0       -7.605825   -1.124204    0.066113
    111          1           0       -9.043766   -1.776320   -0.714420
    112          1           0       -8.215326    0.300610   -2.345473
    113          1           0       -7.806543    0.964228   -0.825892
    114          1           0      -10.472362   -0.303037   -0.583801
    115          1           0      -10.268372    0.565768   -3.074205
    116          1           0      -10.731483    2.130504   -2.252014
    117          1           0      -11.643650    0.594443   -2.066131
    118          1           0      -10.292684    2.656719   -0.214355
    119          1           0       -9.035287    1.831549    0.699769
    120          1           0      -10.024851    0.765891    1.966311
    121          1           0      -11.498718    0.390733    1.011029
    122          1           0      -11.767428    3.138507    1.656595
    123          1           0      -11.238855    2.471003    3.188238
    124          1           0      -13.244964    0.660420    2.569049
    125          1           0      -14.537943    2.448823    4.148141
    126          1           0      -12.935585    2.848405    4.569225
    127          1           0      -13.288719    1.185715    4.666938
    128          1           0      -13.663135    2.352496    0.746748
    129          1           0      -14.486397    3.420717    1.865143
    130          1           0      -16.127828    1.763563    2.329105
    131          1           0      -15.225297    0.327606    1.891478
    132          1           0      -15.682848    2.408459   -0.265654
    133          1           0      -17.189264    1.711495    0.265407
    134          1           0      -15.240532   -0.357998   -0.067073
    135          1           0      -15.023346    1.522833   -2.208971
    136          1           0      -15.930066    0.185168   -2.847539
    137          1           0      -14.363965   -0.072299   -2.135781
    138          1           0      -18.065755    0.212369   -0.618741
    139          1           0      -17.377310   -1.128916    0.180404
    140          1           0      -17.471573   -1.125341   -1.588040
 ---------------------------------------------------------------------

 SCF Done:  E(RwB97XD) =  -3007.84406996     A.U. after   19 cycles

 Excitation energies and oscillator strengths:

 Excited State   1:      Singlet-A      1.6798 eV  738.09 nm  f=0.3960  <S**2>=0.000
     245 -> 248       -0.18288
     246 -> 247        0.68097
     245 <- 248       -0.11375
 This state for optimization and/or second-order correction.
 Total Energy, E(TD-HF/TD-DFT) =  -3007.78233856
 Copying the excited state density for this state as the 1-particle RhoCI density.

 Excited State   2:      Singlet-A      2.1036 eV  589.40 nm  f=0.1694  <S**2>=0.000
     245 -> 247        0.65985
     246 -> 248        0.23670

 Excited State   3:      Singlet-A      3.4526 eV  359.10 nm  f=0.0037  <S**2>=0.000
     242 -> 247        0.53560
     242 -> 248        0.19984
     242 -> 249        0.29122
     242 -> 250        0.19974

 Excited State   4:      Singlet-A      3.5572 eV  348.54 nm  f=0.0011  <S**2>=0.000
     241 -> 249        0.10317
     241 -> 250       -0.10991
     243 -> 247        0.56762
     243 -> 249       -0.25486
     243 -> 250        0.20482

 Excited State   5:      Singlet-A      3.6103 eV  343.41 nm  f=0.1108  <S**2>=0.000
     239 -> 247        0.13695
     240 -> 247        0.45663
     241 -> 247       -0.32638
     246 -> 248       -0.34602

 The electronic state is 1-A.
 Alpha  occ. eigenvalues --  -46.96189 -19.30481 -19.30251 -19.24637 -19.24322
 Alpha  occ. eigenvalues --  -19.24016 -19.23855 -14.46475 -14.46280 -14.45005
 Alpha  occ. eigenvalues --  -14.44574 -10.43688 -10.43312 -10.39124 -10.39048
 Alpha  occ. eigenvalues --  -10.35975 -10.35422 -10.35291 -10.35253 -10.35242
 Alpha  occ. eigenvalues --  -10.34741 -10.34709 -10.34382 -10.34274 -10.33311
 Alpha  occ. eigenvalues --  -10.33261 -10.32868 -10.32706 -10.32443 -10.32393
 Alpha  occ. eigenvalues --  -10.32354 -10.32307 -10.32150 -10.32066 -10.31692
 Alpha  occ. eigenvalues --  -10.31450 -10.31421 -10.31310 -10.31069 -10.30983
 Alpha  occ. eigenvalues --  -10.30653 -10.30510 -10.30307 -10.30148 -10.29995
 Alpha  occ. eigenvalues --  -10.29894 -10.29709 -10.29701 -10.29613 -10.29284
 Alpha  occ. eigenvalues --  -10.29251 -10.29137 -10.29091 -10.29036 -10.28986
 Alpha  occ. eigenvalues --  -10.28922 -10.28881 -10.28847 -10.28843 -10.28779
 Alpha  occ. eigenvalues --  -10.28588 -10.28431 -10.28181 -10.27936 -10.27810
 Alpha  occ. eigenvalues --  -10.27739  -3.22111  -1.95684  -1.95206  -1.95104
 Alpha  occ. eigenvalues --   -1.18599  -1.17730  -1.12556  -1.11315  -1.09424
 Alpha  occ. eigenvalues --   -1.08938  -1.06847  -1.06500  -1.05073  -1.04374
 Alpha  occ. eigenvalues --   -0.93953  -0.92397  -0.91404  -0.91305  -0.91044
 Alpha  occ. eigenvalues --   -0.90529  -0.90152  -0.89580  -0.89224  -0.89168
 Alpha  occ. eigenvalues --   -0.88302  -0.87295  -0.86371  -0.85161  -0.85088
 Alpha  occ. eigenvalues --   -0.84268  -0.83382  -0.82702  -0.82572  -0.81797
 Alpha  occ. eigenvalues --   -0.81668  -0.80486  -0.80026  -0.79551  -0.78254
 Alpha  occ. eigenvalues --   -0.77750  -0.77453  -0.77395  -0.76559  -0.75595
 Alpha  occ. eigenvalues --   -0.75526  -0.74728  -0.73443  -0.72556  -0.70909
 Alpha  occ. eigenvalues --   -0.70736  -0.69862  -0.69684  -0.68448  -0.67376
 Alpha  occ. eigenvalues --   -0.67178  -0.67044  -0.66742  -0.66476  -0.66096
 Alpha  occ. eigenvalues --   -0.65718  -0.65565  -0.64336  -0.63841  -0.62779
 Alpha  occ. eigenvalues --   -0.61895  -0.61693  -0.61315  -0.60622  -0.60135
 Alpha  occ. eigenvalues --   -0.59712  -0.59357  -0.58485  -0.57592  -0.57344
 Alpha  occ. eigenvalues --   -0.56999  -0.56604  -0.56190  -0.55986  -0.55795
 Alpha  occ. eigenvalues --   -0.55650  -0.55325  -0.55257  -0.55087  -0.54711
 Alpha  occ. eigenvalues --   -0.54504  -0.54050  -0.53894  -0.53758  -0.53732
 Alpha  occ. eigenvalues --   -0.53429  -0.52970  -0.52863  -0.52775  -0.52408
 Alpha  occ. eigenvalues --   -0.52190  -0.51988  -0.51811  -0.51489  -0.51406
 Alpha  occ. eigenvalues --   -0.51368  -0.51140  -0.50958  -0.50760  -0.50744
 Alpha  occ. eigenvalues --   -0.50455  -0.50306  -0.50224  -0.50020  -0.49785
 Alpha  occ. eigenvalues --   -0.49375  -0.49155  -0.48854  -0.48776  -0.48736
 Alpha  occ. eigenvalues --   -0.48435  -0.48097  -0.47907  -0.47647  -0.47614
 Alpha  occ. eigenvalues --   -0.47421  -0.47383  -0.47103  -0.46970  -0.46858
 Alpha  occ. eigenvalues --   -0.46568  -0.46207  -0.46130  -0.45961  -0.45942
 Alpha  occ. eigenvalues --   -0.45596  -0.45518  -0.45423  -0.45192  -0.45067
 Alpha  occ. eigenvalues --   -0.44873  -0.44786  -0.44354  -0.44259  -0.44042
 Alpha  occ. eigenvalues --   -0.43730  -0.43522  -0.43473  -0.42903  -0.42774
 Alpha  occ. eigenvalues --   -0.42716  -0.42447  -0.42262  -0.42245  -0.42087
 Alpha  occ. eigenvalues --   -0.41837  -0.41584  -0.41394  -0.41090  -0.40662
 Alpha  occ. eigenvalues --   -0.40552  -0.40398  -0.40257  -0.39780  -0.39293
 Alpha  occ. eigenvalues --   -0.39071  -0.38781  -0.38460  -0.38366  -0.37823
 Alpha  occ. eigenvalues --   -0.37223  -0.37103  -0.36602  -0.36363  -0.36244
 Alpha  occ. eigenvalues --   -0.35735  -0.35499  -0.34923  -0.34167  -0.33314
 Alpha  occ. eigenvalues --   -0.33148  -0.32977  -0.32655  -0.31469  -0.25734
 Alpha  occ. eigenvalues --   -0.23598
 Alpha virt. eigenvalues --   -0.07527   0.00346   0.02412   0.04107   0.05501
 Alpha virt. eigenvalues --    0.06737   0.07400   0.08164   0.08423   0.09195
 Alpha virt. eigenvalues --    0.10392   0.11033   0.11337   0.12197   0.12377

 Mulliken charges:
               1
     1  Mg   0.975520
     2  C   -0.073276
     3  C   -0.065212
     4  C   -0.086426
     5  C   -0.075496
     6  N   -0.317301
     7  C   -0.025604
     8  C   -0.034174
     9  C   -0.156381
    10  C    0.051878
    11  C    0.041890
    12  C   -0.015409
    13  C    0.027057
    14  C    0.222026
    15  O   -0.289125
    16  O   -0.361118
    17  N   -0.408003
    18  C    0.141157
    19  C   -0.127202
    20  C   -0.044765
    21  C    0.145662
    22  C    0.035917
    23  C    0.046861
    24  O   -0.241282
    25  C   -0.032145
    26  N   -0.365290
    27  C    0.048991
    28  C   -0.100871
    29  C   -0.019506
    30  C    0.089992
    31  C    0.018450
    32  C   -0.038895
    33  C   -0.055158
    34  N   -0.499644
    35  C    0.102856
    36  C   -0.185104
    37  C   -0.066975
    38  C    0.190662
    39  C    0.098463
    40  C    0.132111
    41  O   -0.217059
    42  C   -0.024555
    43  C    0.269306
    44  O   -0.241197
    45  O   -0.373813
    46  C    0.133466
    47  C    0.268819
    48  C   -0.164525
    49  C   -0.225493
    50  C    0.029088
    51  C    0.058416
    52  C   -0.037031
    53  C    0.014647
    54  C   -0.210364
    55  C    0.009335
    56  C    0.013035
    57  C   -0.070972
    58  C    0.057841
    59  C   -0.211128
    60  C    0.000201
    61  C   -0.010279
    62  C   -0.039635
    63  C    0.007381
    64  C   -0.217855
    65  C   -0.018175
    66  C    0.030057
    67  H   -0.012167
    68  H    0.024569
    69  H   -0.010543
    70  H    0.032463
    71  H    0.038614
    72  H    0.051218
    73  H    0.032013
    74  H    0.043642
    75  H    0.064815
    76  H    0.060398
    77  H    0.028436
    78  H    0.058857
    79  H    0.024457
    80  H    0.055147
    81  H    0.052260
    82  H    0.041455
    83  H    0.056410
    84  H    0.048718
    85  H    0.043463
    86  H    0.032051
    87  H    0.042218
    88  H    0.029817
    89  H    0.054952
    90  H    0.037916
    91  H    0.041417
    92  H    0.041321
    93  H    0.032714
    94  H    0.029364
    95  H    0.061571
    96  H    0.015772
    97  H    0.069201
    98  H    0.065907
    99  H    0.035072
   100  H    0.067060
   101  H    0.062967
   102  H    0.074984
   103  H    0.059766
   104  H    0.030182
   105  H    0.028116
   106  H    0.044282
   107  H    0.044868
   108  H    0.027514
   109  H    0.022774
   110  H    0.032063
   111  H    0.025520
   112  H    0.005928
   113  H    0.017482
   114  H    0.027236
   115  H    0.025059
   116  H    0.037584
   117  H    0.018910
   118  H    0.020199
   119  H    0.019935
   120  H    0.028653
   121  H    0.025443
   122  H    0.014730
   123  H    0.010600
   124  H    0.022451
   125  H    0.028044
   126  H    0.018448
   127  H    0.027374
   128  H    0.013306
   129  H    0.037296
   130  H    0.019972
   131  H    0.031689
   132  H    0.017886
   133  H    0.008365
   134  H    0.021545
   135  H    0.024257
   136  H    0.016618
   137  H    0.030094
   138  H    0.016127
   139  H    0.021865
   140  H    0.034649
 Sum of Mulliken charges =  -0.00000

 Dipole moment (field-independent basis, Debye):
    X=             -2.1766    Y=              2.9639    Z=             -1.7114  Tot=              4.0560
 Quadrupole moment (field-independent basis, Debye-Ang):
   XX=           -371.9269   YY=           -408.3075   ZZ=           -409.9614
   XY=             -0.1463   XZ=              8.2213   YZ=             -0.0064

 Normal termination of Gaussian 16 at Fri Apr 29 12:57:08 2022.
