 Gaussian 16, Revision A.03,
 Gaussian 16:  ES64L-G16RevA.03 25-Dec-2016

 --------------------
 #p ZINDO=(nstates=5)
 --------------------

 -----------------------------
 step_301_chromophore_22 ZINDO
 -----------------------------
 Symbolic Z-matrix:
 Charge =  0 Multiplicity = 1

                         Standard orientation:
 ---------------------------------------------------------------------
 Center     Atomic      Atomic             Coordinates (Angstroms)
 Number     Number       Type             X           Y           Z
 ---------------------------------------------------------------------
      1         12           0        6.355405    0.421333   -0.039859
      2          6           0        3.889910   -2.014936   -0.563954
      3          6           0        3.998501    2.785383   -1.092202
      4          6           0        8.746281    2.852377    0.209584
      5          6           0        8.767209   -1.969698    0.352276
      6          7           0        4.119392    0.324701   -0.832127
      7          6           0        3.332034   -0.775515   -0.823291
      8          6           0        1.851339   -0.383630   -1.215489
      9          6           0        1.999323    1.146183   -1.504884
     10          6           0        3.495294    1.482001   -1.170610
     11          6           0        1.441919    1.602006   -2.887848
     12          6           0        0.795911   -0.849902   -0.167933
     13          6           0       -0.539372   -0.051422    0.020660
     14          6           0       -1.758644   -0.960856    0.427417
     15          8           0       -1.903908   -1.427580    1.567459
     16          8           0       -2.650814   -1.233547   -0.558495
     17          7           0        6.412040    2.544462   -0.380536
     18          6           0        5.373178    3.323805   -0.765376
     19          6           0        5.784085    4.686057   -0.653564
     20          6           0        7.100566    4.750541   -0.216479
     21          6           0        7.495374    3.317649   -0.174735
     22          6           0        4.780927    5.805965   -1.014354
     23          6           0        7.940247    5.930611   -0.066880
     24          8           0        9.106986    5.880274    0.297379
     25          6           0        7.344517    7.357975    0.058778
     26          7           0        8.581180    0.416102    0.121928
     27          6           0        9.283644    1.572233    0.385071
     28          6           0       10.694500    1.184698    0.929034
     29          6           0       10.654871   -0.404769    0.989515
     30          6           0        9.266195   -0.717803    0.508647
     31          6           0       11.856814    1.993694    0.207816
     32          6           0       10.991752   -0.839817    2.380429
     33          6           0       11.713451   -2.201149    2.553518
     34          7           0        6.343801   -1.522704    0.025957
     35          6           0        7.417320   -2.416693    0.061541
     36          6           0        6.968303   -3.798354   -0.128373
     37          6           0        5.596610   -3.641660   -0.182518
     38          6           0        5.264749   -2.270884   -0.115242
     39          6           0        7.837419   -5.082969   -0.216789
     40          6           0        4.364492   -4.417270   -0.338125
     41          8           0        4.254211   -5.644059   -0.401975
     42          6           0        3.205244   -3.385660   -0.565584
     43          6           0        2.143631   -3.709362    0.477333
     44          8           0        2.256894   -3.544217    1.683861
     45          8           0        1.050589   -4.326374   -0.112545
     46          6           0        0.123046   -4.939670    0.845959
     47          6           0       -3.580995   -2.354475   -0.316144
     48          6           0       -4.754605   -1.961279   -1.115137
     49          6           0       -5.981726   -2.542453   -1.075092
     50          6           0       -6.186848   -3.885786   -0.349060
     51          6           0       -7.143602   -1.941908   -1.850098
     52          6           0       -8.104909   -1.253362   -0.894107
     53          6           0       -8.459619    0.223960   -1.285964
     54          6           0       -9.909119    0.572626   -0.906735
     55          6           0      -10.657925    1.046570   -2.176492
     56          6           0       -9.974077    1.685698    0.164292
     57          6           0      -10.856033    1.182006    1.397852
     58          6           0      -11.676890    2.212940    2.223810
     59          6           0      -13.156183    1.744369    2.631027
     60          6           0      -13.518416    2.071650    4.074148
     61          6           0      -14.191627    2.384590    1.698773
     62          6           0      -15.409788    1.365120    1.612474
     63          6           0      -16.112802    1.542949    0.237701
     64          6           0      -15.987769    0.201354   -0.630119
     65          6           0      -15.293435    0.484637   -2.014620
     66          6           0      -17.257764   -0.513472   -0.711979
     67          1           0        3.237936    3.495579   -1.422421
     68          1           0        9.445673    3.628727    0.527157
     69          1           0        9.466067   -2.800702    0.470443
     70          1           0        1.619717   -0.864286   -2.166054
     71          1           0        1.497422    1.715182   -0.722843
     72          1           0        1.404592    0.775342   -3.596409
     73          1           0        2.101687    2.390417   -3.248836
     74          1           0        0.505117    2.084331   -2.608669
     75          1           0        1.260963   -0.843558    0.817672
     76          1           0        0.546961   -1.854212   -0.511216
     77          1           0       -0.721486    0.451637   -0.929448
     78          1           0       -0.430416    0.774771    0.723386
     79          1           0        3.781440    5.521639   -1.342719
     80          1           0        5.188396    6.288430   -1.903444
     81          1           0        4.451090    6.527377   -0.267606
     82          1           0        6.803692    7.780430   -0.789220
     83          1           0        8.118776    8.051788    0.385337
     84          1           0        6.607160    7.336892    0.861549
     85          1           0       10.738360    1.611656    1.931016
     86          1           0       11.447308   -0.785203    0.344958
     87          1           0       12.364053    1.291561   -0.454593
     88          1           0       12.559948    2.363405    0.954108
     89          1           0       11.445740    2.912747   -0.210746
     90          1           0       10.078521   -1.090404    2.919275
     91          1           0       11.633796   -0.107915    2.869934
     92          1           0       12.322487   -2.185010    3.456982
     93          1           0       12.256588   -2.569548    1.684296
     94          1           0       10.883639   -2.886848    2.729656
     95          1           0        7.480864   -5.729581    0.584730
     96          1           0        8.864778   -4.844348    0.056710
     97          1           0        7.844671   -5.573268   -1.190674
     98          1           0        2.811455   -3.449283   -1.579218
     99          1           0       -0.551269   -5.581624    0.278326
    100          1           0       -0.551174   -4.254305    1.358592
    101          1           0        0.633037   -5.638355    1.509575
    102          1           0       -3.889507   -2.379042    0.729069
    103          1           0       -3.123096   -3.281832   -0.661511
    104          1           0       -4.727883   -0.955835   -1.534329
    105          1           0       -6.954950   -4.480925   -0.843307
    106          1           0       -6.653421   -3.714763    0.621118
    107          1           0       -5.287814   -4.490776   -0.229668
    108          1           0       -7.550816   -2.777026   -2.420628
    109          1           0       -6.870898   -1.212397   -2.612904
    110          1           0       -7.605825   -1.124204    0.066113
    111          1           0       -9.043766   -1.776320   -0.714420
    112          1           0       -8.215326    0.300610   -2.345473
    113          1           0       -7.806543    0.964228   -0.825892
    114          1           0      -10.472362   -0.303037   -0.583801
    115          1           0      -10.268372    0.565768   -3.074205
    116          1           0      -10.731483    2.130504   -2.252014
    117          1           0      -11.643650    0.594443   -2.066131
    118          1           0      -10.292684    2.656719   -0.214355
    119          1           0       -9.035287    1.831549    0.699769
    120          1           0      -10.024851    0.765891    1.966311
    121          1           0      -11.498718    0.390733    1.011029
    122          1           0      -11.767428    3.138507    1.656595
    123          1           0      -11.238855    2.471003    3.188238
    124          1           0      -13.244964    0.660420    2.569049
    125          1           0      -14.537943    2.448823    4.148141
    126          1           0      -12.935585    2.848405    4.569225
    127          1           0      -13.288719    1.185715    4.666938
    128          1           0      -13.663135    2.352496    0.746748
    129          1           0      -14.486397    3.420717    1.865143
    130          1           0      -16.127828    1.763563    2.329105
    131          1           0      -15.225297    0.327606    1.891478
    132          1           0      -15.682848    2.408459   -0.265654
    133          1           0      -17.189264    1.711495    0.265407
    134          1           0      -15.240532   -0.357998   -0.067073
    135          1           0      -15.023346    1.522833   -2.208971
    136          1           0      -15.930066    0.185168   -2.847539
    137          1           0      -14.363965   -0.072299   -2.135781
    138          1           0      -18.065755    0.212369   -0.618741
    139          1           0      -17.377310   -1.128916    0.180404
    140          1           0      -17.471573   -1.125341   -1.588040
 ---------------------------------------------------------------------

 SCF Done:  E(RZINDO/S) =  -474.078637220     A.U. after   20 cycles

 Excitation energies and oscillator strengths:

 Excited State   1:      Singlet-A      1.2698 eV  976.41 nm  f=0.6154  <S**2>=0.000
     175 ->178         0.18261
     176 ->177         0.66325
 This state for optimization and/or second-order correction.
 Total Energy, E(CIS/TDA) =  -474.031973206
 Copying the excited state density for this state as the 1-particle RhoCI density.

 Excited State   2:      Singlet-A      1.8706 eV  662.82 nm  f=0.1372  <S**2>=0.000
     175 ->177         0.59905
     176 ->178        -0.33611

 Excited State   3:      Singlet-A      2.7448 eV  451.70 nm  f=0.0007  <S**2>=0.000
     168 ->177         0.33779
     168 ->178        -0.23972
     168 ->179        -0.37722
     168 ->180         0.26425
     168 ->185        -0.19621

 Excited State   4:      Singlet-A      3.0005 eV  413.21 nm  f=0.0152  <S**2>=0.000
     169 ->177         0.28062
     169 ->179         0.33595
     169 ->180         0.36038
     169 ->185         0.16978
     169 ->187        -0.11849

 Excited State   5:      Singlet-A      3.0576 eV  405.50 nm  f=0.8896  <S**2>=0.000
     175 ->177         0.29622
     176 ->178         0.58030
     176 ->179         0.13097

 The electronic state is 1-A.
 Alpha  occ. eigenvalues --   -1.84216  -1.81415  -1.77743  -1.72920  -1.70923
 Alpha  occ. eigenvalues --   -1.70651  -1.64452  -1.61365  -1.60091  -1.57232
 Alpha  occ. eigenvalues --   -1.54603  -1.51898  -1.48585  -1.47321  -1.46892
 Alpha  occ. eigenvalues --   -1.43662  -1.42518  -1.39735  -1.38155  -1.37706
 Alpha  occ. eigenvalues --   -1.35584  -1.32270  -1.32226  -1.30516  -1.28089
 Alpha  occ. eigenvalues --   -1.27678  -1.24944  -1.21072  -1.20053  -1.18421
 Alpha  occ. eigenvalues --   -1.17063  -1.16937  -1.15095  -1.14642  -1.13115
 Alpha  occ. eigenvalues --   -1.12827  -1.11549  -1.09620  -1.04746  -1.04136
 Alpha  occ. eigenvalues --   -1.01793  -1.01112  -0.99112  -0.97327  -0.96349
 Alpha  occ. eigenvalues --   -0.95752  -0.94693  -0.93488  -0.92728  -0.92472
 Alpha  occ. eigenvalues --   -0.90547  -0.90302  -0.89297  -0.87816  -0.86753
 Alpha  occ. eigenvalues --   -0.86592  -0.85320  -0.84022  -0.82121  -0.80853
 Alpha  occ. eigenvalues --   -0.80351  -0.79171  -0.77234  -0.77008  -0.76672
 Alpha  occ. eigenvalues --   -0.76037  -0.74974  -0.74415  -0.73751  -0.73319
 Alpha  occ. eigenvalues --   -0.72762  -0.72474  -0.71481  -0.70787  -0.70152
 Alpha  occ. eigenvalues --   -0.69633  -0.68977  -0.68328  -0.68054  -0.67373
 Alpha  occ. eigenvalues --   -0.67160  -0.66888  -0.66601  -0.66229  -0.66002
 Alpha  occ. eigenvalues --   -0.65558  -0.64839  -0.64562  -0.64030  -0.63499
 Alpha  occ. eigenvalues --   -0.62937  -0.62718  -0.62413  -0.62158  -0.61775
 Alpha  occ. eigenvalues --   -0.61328  -0.60824  -0.60544  -0.59807  -0.59631
 Alpha  occ. eigenvalues --   -0.59464  -0.59114  -0.58788  -0.58574  -0.58499
 Alpha  occ. eigenvalues --   -0.58133  -0.57917  -0.57237  -0.56951  -0.56715
 Alpha  occ. eigenvalues --   -0.56381  -0.55622  -0.55538  -0.55477  -0.54964
 Alpha  occ. eigenvalues --   -0.54818  -0.54132  -0.53424  -0.53146  -0.52791
 Alpha  occ. eigenvalues --   -0.52724  -0.52359  -0.51694  -0.51359  -0.51318
 Alpha  occ. eigenvalues --   -0.50643  -0.50438  -0.50070  -0.49773  -0.49637
 Alpha  occ. eigenvalues --   -0.49617  -0.49329  -0.49232  -0.49159  -0.48931
 Alpha  occ. eigenvalues --   -0.48798  -0.48485  -0.48402  -0.47894  -0.47805
 Alpha  occ. eigenvalues --   -0.47597  -0.47571  -0.46878  -0.46586  -0.46482
 Alpha  occ. eigenvalues --   -0.46122  -0.45964  -0.45808  -0.45680  -0.45539
 Alpha  occ. eigenvalues --   -0.44916  -0.44706  -0.44525  -0.44406  -0.44177
 Alpha  occ. eigenvalues --   -0.43678  -0.42628  -0.42535  -0.42494  -0.42281
 Alpha  occ. eigenvalues --   -0.41614  -0.41484  -0.41292  -0.38989  -0.38401
 Alpha  occ. eigenvalues --   -0.38255  -0.37371  -0.35525  -0.34866  -0.34340
 Alpha  occ. eigenvalues --   -0.34213  -0.33232  -0.32933  -0.31623  -0.26416
 Alpha  occ. eigenvalues --   -0.22356
 Alpha virt. eigenvalues --   -0.09063  -0.01859  -0.00674   0.00953   0.01909
 Alpha virt. eigenvalues --    0.01944   0.03060   0.03074   0.04687   0.04738
 Alpha virt. eigenvalues --    0.06492   0.06717   0.06945   0.07429   0.07871

 Mulliken charges:
               1
     1  Mg   0.439286
     2  C   -0.047561
     3  C   -0.101836
     4  C   -0.054911
     5  C   -0.055498
     6  N   -0.300862
     7  C    0.110866
     8  C    0.003060
     9  C   -0.003286
    10  C    0.139030
    11  C   -0.053193
    12  C   -0.018379
    13  C    0.007370
    14  C    0.462165
    15  O   -0.526990
    16  O   -0.269473
    17  N   -0.304837
    18  C    0.116861
    19  C    0.029406
    20  C   -0.030303
    21  C    0.147973
    22  C   -0.056089
    23  C    0.325121
    24  O   -0.518768
    25  C   -0.032754
    26  N   -0.287072
    27  C    0.144714
    28  C   -0.010571
    29  C    0.019688
    30  C    0.115424
    31  C   -0.055508
    32  C   -0.030261
    33  C   -0.066928
    34  N   -0.292880
    35  C    0.068005
    36  C    0.018985
    37  C   -0.042773
    38  C    0.112367
    39  C   -0.036094
    40  C    0.331846
    41  O   -0.521382
    42  C    0.056488
    43  C    0.489714
    44  O   -0.513566
    45  O   -0.270152
    46  C    0.075736
    47  C    0.113420
    48  C   -0.101373
    49  C   -0.010095
    50  C   -0.044884
    51  C   -0.014001
    52  C   -0.032775
    53  C   -0.039786
    54  C   -0.010056
    55  C   -0.064181
    56  C   -0.042258
    57  C   -0.049150
    58  C   -0.040270
    59  C   -0.016646
    60  C   -0.059929
    61  C   -0.034780
    62  C   -0.043073
    63  C   -0.046735
    64  C   -0.008108
    65  C   -0.063095
    66  C   -0.044425
    67  H    0.023852
    68  H    0.041157
    69  H    0.023098
    70  H    0.026698
    71  H    0.025935
    72  H    0.035541
    73  H    0.020931
    74  H    0.024923
    75  H    0.040260
    76  H    0.032398
    77  H    0.023008
    78  H    0.043902
    79  H    0.018731
    80  H    0.025860
    81  H    0.034302
    82  H    0.031431
    83  H    0.037511
    84  H    0.029866
    85  H    0.030338
    86  H    0.033228
    87  H    0.028043
    88  H    0.017633
    89  H    0.037274
    90  H    0.027416
    91  H    0.023133
    92  H    0.021439
    93  H    0.023064
    94  H    0.014110
    95  H    0.037026
    96  H    0.016947
    97  H    0.042281
    98  H    0.050645
    99  H    0.017130
   100  H    0.052838
   101  H    0.050963
   102  H    0.065173
   103  H    0.052071
   104  H    0.030329
   105  H    0.017455
   106  H    0.029459
   107  H    0.030128
   108  H    0.019953
   109  H    0.024423
   110  H    0.019424
   111  H    0.025804
   112  H    0.016911
   113  H    0.019205
   114  H    0.029727
   115  H    0.017118
   116  H    0.028587
   117  H    0.008868
   118  H    0.025800
   119  H    0.016414
   120  H    0.020890
   121  H    0.023019
   122  H    0.020187
   123  H    0.019742
   124  H    0.025236
   125  H    0.020928
   126  H    0.013698
   127  H    0.014741
   128  H    0.007398
   129  H    0.037008
   130  H    0.007674
   131  H    0.038966
   132  H    0.021277
   133  H    0.018778
   134  H    0.017048
   135  H    0.018453
   136  H    0.013891
   137  H    0.014674
   138  H    0.014941
   139  H    0.010640
   140  H    0.021074
 Sum of Mulliken charges =  -0.00000

 Dipole moment (field-independent basis, Debye):
    X=             -3.0035    Y=              5.7887    Z=             -3.6312  Tot=              7.4643
 N-N= 4.177859856286D+03 E-N= 0.000000000000D+00  KE=-9.030028834303D+03
 Leave Link  601 at Fri Apr 29 13:07:59 2022, MaxMem=  6710886400 cpu:               0.8 elap:               0.1
 (Enter /sw/apps/gaussian-16.0/g16/l9999.exe)
 1\1\GINC-BP1-COMPUTE140\SP\RZINDO CIS\STO-3G\C55H74Mg1N4O6\OF15641\29-
 Apr-2022\0\\#p ZINDO=(nstates=5)\\step_301_chromophore_22 ZINDO\\0,1\M
 g,0,8.598,47.738,25.087\C,0,6.492,47.786,27.889\C,0,11.161,48.822,27.2
 1\C,0,10.684,47.955,22.387\C,0,5.94,47.31,22.98\N,0,8.742,48.317,27.38
 5\C,0,7.768,48.124,28.304\C,0,8.325,48.424,29.753\C,0,9.786,48.884,29.
 437\C,0,9.939,48.719,27.884\C,0,10.186,50.253,30.067\C,0,8.109,47.245,
 30.749\C,0,9.1,47.025,31.943\C,0,8.411,46.42,33.223\O,0,8.076,45.229,3

 Normal termination of Gaussian 16 at Fri Apr 29 13:08:00 2022.
