 Gaussian 16, Revision A.03,
 Gaussian 16:  ES64L-G16RevA.03 25-Dec-2016

 ------------------------------
 #p blyp/Def2SVP td=(nstates=5)
 ------------------------------

 --------------------------------------------------
 step_451_chromophore_10 TDDFT with blyp functional
 --------------------------------------------------
 Symbolic Z-matrix:
 Charge =  0 Multiplicity = 1

                         Standard orientation:
 ---------------------------------------------------------------------
 Center     Atomic      Atomic             Coordinates (Angstroms)
 Number     Number       Type             X           Y           Z
 ---------------------------------------------------------------------
      1         12           0        5.941304    0.451053    0.188801
      2          6           0        3.464334   -1.981829    0.255270
      3          6           0        3.401114    2.725544   -0.779264
      4          6           0        8.195970    2.656648   -0.430989
      5          6           0        8.344717   -2.074988    0.601222
      6          7           0        3.722676    0.337666   -0.242011
      7          6           0        2.880723   -0.781049   -0.029430
      8          6           0        1.393676   -0.426075   -0.266081
      9          6           0        1.436080    1.074515   -0.702365
     10          6           0        2.977710    1.416894   -0.667084
     11          6           0        0.823328    1.206338   -2.183730
     12          6           0        0.381789   -0.784038    0.867091
     13          6           0       -0.746329   -1.633306    0.476793
     14          6           0       -2.113113   -1.223700    1.004754
     15          8           0       -2.416185   -0.865501    2.176014
     16          8           0       -3.074530   -1.370067    0.019884
     17          7           0        5.750735    2.463890   -0.298425
     18          6           0        4.700561    3.281092   -0.672234
     19          6           0        5.218986    4.681362   -0.798226
     20          6           0        6.573106    4.662976   -0.506323
     21          6           0        6.868738    3.230000   -0.402464
     22          6           0        4.321965    5.889557   -1.129870
     23          6           0        7.575561    5.847793   -0.166036
     24          8           0        8.749305    5.696607    0.177145
     25          6           0        6.987018    7.219190   -0.069613
     26          7           0        8.011434    0.302758    0.084826
     27          6           0        8.714559    1.382633   -0.246213
     28          6           0       10.254311    1.045496   -0.284662
     29          6           0       10.281360   -0.417277    0.355021
     30          6           0        8.774733   -0.783149    0.420342
     31          6           0       10.780962    1.009011   -1.736896
     32          6           0       11.058831   -0.521127    1.639368
     33          6           0       10.227194   -0.475507    2.983055
     34          7           0        5.994122   -1.666527    0.415545
     35          6           0        7.024054   -2.485829    0.602432
     36          6           0        6.466378   -3.836676    0.789496
     37          6           0        5.082399   -3.698205    0.713487
     38          6           0        4.823493   -2.343863    0.416770
     39          6           0        7.345843   -5.021085    1.176817
     40          6           0        3.827804   -4.450885    0.718429
     41          8           0        3.541758   -5.650285    0.855626
     42          6           0        2.779049   -3.306718    0.395462
     43          6           0        2.065493   -3.612104   -0.893642
     44          8           0        2.572231   -3.504922   -1.992016
     45          8           0        0.882698   -4.228930   -0.616793
     46          6           0        0.180478   -4.785976   -1.717942
     47          6           0       -4.345116   -0.872793    0.516568
     48          6           0       -5.510419   -1.309636   -0.391184
     49          6           0       -5.948183   -2.508562   -0.784106
     50          6           0       -5.311525   -3.803001   -0.225399
     51          6           0       -7.043810   -2.660155   -1.837296
     52          6           0       -8.455117   -2.161487   -1.521090
     53          6           0       -8.774674   -0.813291   -2.148022
     54          6           0       -9.630995    0.177030   -1.328095
     55          6           0      -10.313409    1.194309   -2.233095
     56          6           0       -8.825194    0.931543   -0.213681
     57          6           0       -9.445464    0.776746    1.171079
     58          6           0       -9.791504    2.139479    1.840343
     59          6           0      -11.196036    2.652452    1.473990
     60          6           0      -11.126191    4.201824    1.293113
     61          6           0      -12.242914    2.268904    2.488863
     62          6           0      -13.615494    2.215480    1.863540
     63          6           0      -13.756508    0.776718    1.278827
     64          6           0      -14.499421    0.694227   -0.073555
     65          6           0      -15.967215    0.304347    0.048482
     66          6           0      -13.790862   -0.167248   -1.144835
     67          1           0        2.531500    3.331718   -1.044566
     68          1           0        8.932087    3.379014   -0.789959
     69          1           0        8.990641   -2.952749    0.548045
     70          1           0        1.312380   -1.072834   -1.139708
     71          1           0        0.816005    1.715345   -0.074283
     72          1           0        0.258554    0.310292   -2.443063
     73          1           0        1.620729    1.439714   -2.888836
     74          1           0        0.109773    2.014465   -2.343924
     75          1           0        0.107520    0.141182    1.373160
     76          1           0        0.891422   -1.271030    1.698962
     77          1           0       -0.519300   -2.662977    0.752888
     78          1           0       -0.877673   -1.600634   -0.604572
     79          1           0        3.372997    5.359545   -1.207684
     80          1           0        4.610593    6.389134   -2.054846
     81          1           0        4.253674    6.620628   -0.324037
     82          1           0        6.174758    7.013077    0.626722
     83          1           0        6.628637    7.595731   -1.027555
     84          1           0        7.742170    7.950774    0.217239
     85          1           0       10.818182    1.827980    0.222693
     86          1           0       10.639612   -1.143367   -0.374297
     87          1           0       11.703410    0.429188   -1.774034
     88          1           0       10.945992    2.016801   -2.118607
     89          1           0       10.111997    0.532274   -2.452530
     90          1           0       11.819793    0.256519    1.564736
     91          1           0       11.470068   -1.529279    1.673806
     92          1           0       10.318725    0.594209    3.170093
     93          1           0       10.616891   -1.007589    3.850718
     94          1           0        9.177774   -0.744152    2.857046
     95          1           0        7.891242   -4.912297    2.114292
     96          1           0        8.053845   -5.172708    0.362512
     97          1           0        6.834797   -5.983622    1.149261
     98          1           0        1.973391   -3.335635    1.128942
     99          1           0        0.695605   -4.636731   -2.666601
    100          1           0       -0.832536   -4.384513   -1.742921
    101          1           0        0.070625   -5.869717   -1.672860
    102          1           0       -4.255463    0.210283    0.435120
    103          1           0       -4.677671   -1.172252    1.510241
    104          1           0       -5.982983   -0.471461   -0.904226
    105          1           0       -5.300192   -3.801779    0.864783
    106          1           0       -4.274773   -3.810949   -0.561880
    107          1           0       -5.778550   -4.657388   -0.714892
    108          1           0       -7.204309   -3.715440   -2.054401
    109          1           0       -6.668079   -2.263993   -2.780825
    110          1           0       -8.610187   -2.145504   -0.441730
    111          1           0       -9.233013   -2.799923   -1.941513
    112          1           0       -9.297648   -1.058975   -3.073232
    113          1           0       -7.879705   -0.246189   -2.403972
    114          1           0      -10.441618   -0.485831   -1.027684
    115          1           0      -11.184260    0.779646   -2.740744
    116          1           0       -9.476984    1.464680   -2.877923
    117          1           0      -10.679052    2.073833   -1.703431
    118          1           0       -8.598709    1.980978   -0.406567
    119          1           0       -7.818577    0.514381   -0.180600
    120          1           0       -8.764189    0.344428    1.904112
    121          1           0      -10.333040    0.152105    1.076376
    122          1           0       -8.985675    2.782325    1.483786
    123          1           0       -9.795480    2.086371    2.929187
    124          1           0      -11.431237    2.176019    0.521297
    125          1           0      -10.110183    4.461935    0.995316
    126          1           0      -11.319264    4.745283    2.218128
    127          1           0      -11.787733    4.488992    0.476348
    128          1           0      -12.247802    3.009744    3.287650
    129          1           0      -11.956969    1.333768    2.971193
    130          1           0      -13.739098    2.892417    1.018472
    131          1           0      -14.323852    2.415365    2.666904
    132          1           0      -14.364052    0.298707    2.048734
    133          1           0      -12.852164    0.191648    1.442235
    134          1           0      -14.403542    1.678015   -0.534025
    135          1           0      -16.540814    1.230745    0.058480
    136          1           0      -16.126430   -0.201810    1.000552
    137          1           0      -16.357224   -0.342461   -0.737814
    138          1           0      -14.307983   -1.076278   -1.449098
    139          1           0      -12.883530   -0.543184   -0.670494
    140          1           0      -13.661428    0.416341   -2.057278
 ---------------------------------------------------------------------

 SCF Done:  E(RB-LYP) =  -3007.36042237     A.U. after   21 cycles

 Excitation energies and oscillator strengths:

 Excited State   1:      Singlet-A      1.8201 eV  681.19 nm  f=0.3195  <S**2>=0.000
     245 -> 248        0.15203
     245 -> 249       -0.11778
     246 -> 247        0.69158
     246 <- 247       -0.15255
 This state for optimization and/or second-order correction.
 Total Energy, E(TD-HF/TD-DFT) =  -3007.29353444
 Copying the excited state density for this state as the 1-particle RhoCI density.

 Excited State   2:      Singlet-A      1.9984 eV  620.41 nm  f=0.0734  <S**2>=0.000
     243 -> 247        0.14444
     245 -> 247        0.64439
     246 -> 248       -0.18465
     246 -> 249        0.12871

 Excited State   3:      Singlet-A      2.1260 eV  583.19 nm  f=0.0001  <S**2>=0.000
     244 -> 247        0.70554

 Excited State   4:      Singlet-A      2.1921 eV  565.61 nm  f=0.0039  <S**2>=0.000
     243 -> 247        0.68956
     245 -> 247       -0.11836

 Excited State   5:      Singlet-A      2.3382 eV  530.26 nm  f=0.0001  <S**2>=0.000
     242 -> 247        0.70707

 The electronic state is 1-A.
 Alpha  occ. eigenvalues --  -46.27481 -18.83036 -18.83019 -18.77123 -18.77053
 Alpha  occ. eigenvalues --  -18.76670 -18.76388 -14.03241 -14.03078 -14.01682
 Alpha  occ. eigenvalues --  -14.00476 -10.04553 -10.04044 -10.01236 -10.00377
 Alpha  occ. eigenvalues --   -9.97853  -9.97366  -9.96599  -9.96587  -9.96584
 Alpha  occ. eigenvalues --   -9.96417  -9.96402  -9.96395  -9.94937  -9.94750
 Alpha  occ. eigenvalues --   -9.94736  -9.94595  -9.94530  -9.94032  -9.93573
 Alpha  occ. eigenvalues --   -9.93564  -9.93543  -9.93477  -9.93463  -9.93324
 Alpha  occ. eigenvalues --   -9.93311  -9.93251  -9.93048  -9.92984  -9.92654
 Alpha  occ. eigenvalues --   -9.92590  -9.92572  -9.92345  -9.92303  -9.92254
 Alpha  occ. eigenvalues --   -9.92115  -9.92044  -9.91924  -9.91764  -9.91543
 Alpha  occ. eigenvalues --   -9.91518  -9.91478  -9.91244  -9.91181  -9.91015
 Alpha  occ. eigenvalues --   -9.90991  -9.90927  -9.90730  -9.90721  -9.90648
 Alpha  occ. eigenvalues --   -9.90616  -9.90541  -9.90453  -9.90429  -9.90428
 Alpha  occ. eigenvalues --   -9.90327  -2.92063  -1.72490  -1.71960  -1.71758
 Alpha  occ. eigenvalues --   -0.99224  -0.98081  -0.91872  -0.91096  -0.90585
 Alpha  occ. eigenvalues --   -0.88709  -0.86968  -0.86172  -0.85699  -0.84051
 Alpha  occ. eigenvalues --   -0.76100  -0.73810  -0.73634  -0.73200  -0.72424
 Alpha  occ. eigenvalues --   -0.71899  -0.71357  -0.70992  -0.70896  -0.70842
 Alpha  occ. eigenvalues --   -0.69510  -0.69292  -0.68304  -0.67891  -0.67157
 Alpha  occ. eigenvalues --   -0.66725  -0.66271  -0.65875  -0.65207  -0.64867
 Alpha  occ. eigenvalues --   -0.64275  -0.62932  -0.62272  -0.61647  -0.60639
 Alpha  occ. eigenvalues --   -0.60173  -0.60042  -0.59837  -0.59140  -0.58813
 Alpha  occ. eigenvalues --   -0.58570  -0.57830  -0.56725  -0.55796  -0.55151
 Alpha  occ. eigenvalues --   -0.54213  -0.53575  -0.52786  -0.52332  -0.51522
 Alpha  occ. eigenvalues --   -0.51462  -0.51039  -0.50878  -0.50784  -0.49977
 Alpha  occ. eigenvalues --   -0.49794  -0.49350  -0.48869  -0.48614  -0.46716
 Alpha  occ. eigenvalues --   -0.46107  -0.45806  -0.45333  -0.45174  -0.44394
 Alpha  occ. eigenvalues --   -0.43971  -0.43925  -0.43615  -0.43030  -0.42608
 Alpha  occ. eigenvalues --   -0.42218  -0.41857  -0.41712  -0.41517  -0.41169
 Alpha  occ. eigenvalues --   -0.41059  -0.41040  -0.40816  -0.40724  -0.40565
 Alpha  occ. eigenvalues --   -0.40196  -0.39924  -0.39713  -0.39571  -0.39483
 Alpha  occ. eigenvalues --   -0.39398  -0.38790  -0.38688  -0.38314  -0.38066
 Alpha  occ. eigenvalues --   -0.37862  -0.37650  -0.37590  -0.37245  -0.37064
 Alpha  occ. eigenvalues --   -0.37035  -0.36945  -0.36795  -0.36672  -0.36530
 Alpha  occ. eigenvalues --   -0.36380  -0.36220  -0.36203  -0.35975  -0.35710
 Alpha  occ. eigenvalues --   -0.35635  -0.35362  -0.35051  -0.34949  -0.34856
 Alpha  occ. eigenvalues --   -0.34635  -0.34533  -0.34338  -0.34042  -0.33731
 Alpha  occ. eigenvalues --   -0.33630  -0.33532  -0.33503  -0.33127  -0.33099
 Alpha  occ. eigenvalues --   -0.33049  -0.32906  -0.32729  -0.32422  -0.32325
 Alpha  occ. eigenvalues --   -0.31976  -0.31943  -0.31868  -0.31752  -0.31522
 Alpha  occ. eigenvalues --   -0.31379  -0.31134  -0.31077  -0.30940  -0.30641
 Alpha  occ. eigenvalues --   -0.30604  -0.30513  -0.30065  -0.30049  -0.29876
 Alpha  occ. eigenvalues --   -0.29784  -0.29725  -0.29310  -0.29198  -0.29037
 Alpha  occ. eigenvalues --   -0.28694  -0.28163  -0.28025  -0.27932  -0.27251
 Alpha  occ. eigenvalues --   -0.26964  -0.26898  -0.26600  -0.26549  -0.26333
 Alpha  occ. eigenvalues --   -0.26138  -0.25778  -0.25594  -0.25543  -0.25480
 Alpha  occ. eigenvalues --   -0.25200  -0.24408  -0.24339  -0.23806  -0.23782
 Alpha  occ. eigenvalues --   -0.23262  -0.22650  -0.22338  -0.22133  -0.21481
 Alpha  occ. eigenvalues --   -0.20701  -0.20208  -0.19540  -0.19320  -0.17347
 Alpha  occ. eigenvalues --   -0.15887
 Alpha virt. eigenvalues --   -0.11616  -0.06964  -0.06436  -0.05225  -0.04018
 Alpha virt. eigenvalues --   -0.02895  -0.02619  -0.02378  -0.01566   0.00062
 Alpha virt. eigenvalues --    0.01221   0.01485   0.02191   0.02605   0.02771

 Mulliken charges:
               1
     1  Mg   0.692930
     2  C    0.095882
     3  C   -0.053249
     4  C   -0.015900
     5  C   -0.064638
     6  N   -0.231144
     7  C   -0.160290
     8  C    0.091987
     9  C   -0.051480
    10  C    0.031351
    11  C    0.087033
    12  C    0.155051
    13  C    0.135665
    14  C    0.081068
    15  O   -0.229404
    16  O   -0.258091
    17  N   -0.283572
    18  C    0.148826
    19  C   -0.153481
    20  C    0.005360
    21  C    0.078690
    22  C    0.159744
    23  C   -0.039953
    24  O   -0.159463
    25  C    0.132426
    26  N   -0.240653
    27  C    0.041774
    28  C    0.001239
    29  C    0.053269
    30  C    0.034417
    31  C    0.106499
    32  C    0.105150
    33  C    0.039967
    34  N   -0.211316
    35  C    0.044601
    36  C   -0.170691
    37  C    0.077765
    38  C    0.059980
    39  C    0.159993
    40  C    0.022067
    41  O   -0.134213
    42  C   -0.003194
    43  C    0.077676
    44  O   -0.169743
    45  O   -0.243556
    46  C    0.193988
    47  C    0.321643
    48  C   -0.131378
    49  C   -0.170658
    50  C    0.147691
    51  C    0.152816
    52  C    0.109636
    53  C    0.040879
    54  C   -0.073697
    55  C    0.096420
    56  C    0.153302
    57  C    0.067647
    58  C    0.087601
    59  C   -0.102615
    60  C    0.118462
    61  C    0.114140
    62  C    0.100914
    63  C    0.079237
    64  C   -0.086573
    65  C    0.123000
    66  C    0.082165
    67  H   -0.061828
    68  H   -0.047707
    69  H   -0.057840
    70  H   -0.004305
    71  H   -0.010044
    72  H    0.000259
    73  H    0.001035
    74  H   -0.017090
    75  H   -0.023753
    76  H   -0.024088
    77  H    0.032663
    78  H   -0.008060
    79  H   -0.017948
    80  H    0.014566
    81  H    0.003887
    82  H    0.023195
    83  H    0.006577
    84  H   -0.001391
    85  H   -0.015951
    86  H   -0.031227
    87  H   -0.008846
    88  H   -0.004053
    89  H   -0.009823
    90  H   -0.012329
    91  H   -0.025238
    92  H   -0.011172
    93  H   -0.002810
    94  H    0.016288
    95  H    0.012124
    96  H   -0.010778
    97  H   -0.005914
    98  H   -0.017211
    99  H    0.018157
   100  H    0.012053
   101  H    0.013602
   102  H   -0.018554
   103  H    0.023555
   104  H   -0.021765
   105  H    0.009153
   106  H   -0.000694
   107  H   -0.017770
   108  H   -0.051998
   109  H   -0.014053
   110  H   -0.022995
   111  H   -0.032829
   112  H   -0.040536
   113  H   -0.028965
   114  H   -0.029327
   115  H   -0.016024
   116  H   -0.023615
   117  H   -0.015425
   118  H   -0.039641
   119  H   -0.060788
   120  H   -0.035704
   121  H   -0.027717
   122  H   -0.041580
   123  H   -0.041881
   124  H   -0.032031
   125  H   -0.029261
   126  H   -0.015566
   127  H   -0.015267
   128  H   -0.051021
   129  H   -0.039980
   130  H   -0.029356
   131  H   -0.031248
   132  H   -0.048637
   133  H   -0.026382
   134  H   -0.032760
   135  H   -0.017916
   136  H   -0.018758
   137  H   -0.014657
   138  H   -0.029268
   139  H   -0.014886
   140  H    0.000145
 Sum of Mulliken charges =  -0.00000

 Dipole moment (field-independent basis, Debye):
    X=             -1.1591    Y=              2.7234    Z=             -1.7417  Tot=              3.4343
 Quadrupole moment (field-independent basis, Debye-Ang):
   XX=           -382.5216   YY=           -412.8022   ZZ=           -412.3105
   XY=              4.8286   XZ=              7.0497   YZ=             -0.5177

 Normal termination of Gaussian 16 at Wed May  4 21:24:53 2022.
