 Gaussian 16, Revision A.03,
 Gaussian 16:  ES64L-G16RevA.03 25-Dec-2016

 -----------------------------------
 #p cam-b3lyp/Def2SVP td=(nstates=5)
 -----------------------------------

 -------------------------------------------------------
 step_451_chromophore_10 TDDFT with cam-b3lyp functional
 -------------------------------------------------------
 Symbolic Z-matrix:
 Charge =  0 Multiplicity = 1

                         Standard orientation:
 ---------------------------------------------------------------------
 Center     Atomic      Atomic             Coordinates (Angstroms)
 Number     Number       Type             X           Y           Z
 ---------------------------------------------------------------------
      1         12           0        5.941304    0.451053    0.188801
      2          6           0        3.464334   -1.981829    0.255270
      3          6           0        3.401114    2.725544   -0.779264
      4          6           0        8.195970    2.656648   -0.430989
      5          6           0        8.344717   -2.074988    0.601222
      6          7           0        3.722676    0.337666   -0.242011
      7          6           0        2.880723   -0.781049   -0.029430
      8          6           0        1.393676   -0.426075   -0.266081
      9          6           0        1.436080    1.074515   -0.702365
     10          6           0        2.977710    1.416894   -0.667084
     11          6           0        0.823328    1.206338   -2.183730
     12          6           0        0.381789   -0.784038    0.867091
     13          6           0       -0.746329   -1.633306    0.476793
     14          6           0       -2.113113   -1.223700    1.004754
     15          8           0       -2.416185   -0.865501    2.176014
     16          8           0       -3.074530   -1.370067    0.019884
     17          7           0        5.750735    2.463890   -0.298425
     18          6           0        4.700561    3.281092   -0.672234
     19          6           0        5.218986    4.681362   -0.798226
     20          6           0        6.573106    4.662976   -0.506323
     21          6           0        6.868738    3.230000   -0.402464
     22          6           0        4.321965    5.889557   -1.129870
     23          6           0        7.575561    5.847793   -0.166036
     24          8           0        8.749305    5.696607    0.177145
     25          6           0        6.987018    7.219190   -0.069613
     26          7           0        8.011434    0.302758    0.084826
     27          6           0        8.714559    1.382633   -0.246213
     28          6           0       10.254311    1.045496   -0.284662
     29          6           0       10.281360   -0.417277    0.355021
     30          6           0        8.774733   -0.783149    0.420342
     31          6           0       10.780962    1.009011   -1.736896
     32          6           0       11.058831   -0.521127    1.639368
     33          6           0       10.227194   -0.475507    2.983055
     34          7           0        5.994122   -1.666527    0.415545
     35          6           0        7.024054   -2.485829    0.602432
     36          6           0        6.466378   -3.836676    0.789496
     37          6           0        5.082399   -3.698205    0.713487
     38          6           0        4.823493   -2.343863    0.416770
     39          6           0        7.345843   -5.021085    1.176817
     40          6           0        3.827804   -4.450885    0.718429
     41          8           0        3.541758   -5.650285    0.855626
     42          6           0        2.779049   -3.306718    0.395462
     43          6           0        2.065493   -3.612104   -0.893642
     44          8           0        2.572231   -3.504922   -1.992016
     45          8           0        0.882698   -4.228930   -0.616793
     46          6           0        0.180478   -4.785976   -1.717942
     47          6           0       -4.345116   -0.872793    0.516568
     48          6           0       -5.510419   -1.309636   -0.391184
     49          6           0       -5.948183   -2.508562   -0.784106
     50          6           0       -5.311525   -3.803001   -0.225399
     51          6           0       -7.043810   -2.660155   -1.837296
     52          6           0       -8.455117   -2.161487   -1.521090
     53          6           0       -8.774674   -0.813291   -2.148022
     54          6           0       -9.630995    0.177030   -1.328095
     55          6           0      -10.313409    1.194309   -2.233095
     56          6           0       -8.825194    0.931543   -0.213681
     57          6           0       -9.445464    0.776746    1.171079
     58          6           0       -9.791504    2.139479    1.840343
     59          6           0      -11.196036    2.652452    1.473990
     60          6           0      -11.126191    4.201824    1.293113
     61          6           0      -12.242914    2.268904    2.488863
     62          6           0      -13.615494    2.215480    1.863540
     63          6           0      -13.756508    0.776718    1.278827
     64          6           0      -14.499421    0.694227   -0.073555
     65          6           0      -15.967215    0.304347    0.048482
     66          6           0      -13.790862   -0.167248   -1.144835
     67          1           0        2.531500    3.331718   -1.044566
     68          1           0        8.932087    3.379014   -0.789959
     69          1           0        8.990641   -2.952749    0.548045
     70          1           0        1.312380   -1.072834   -1.139708
     71          1           0        0.816005    1.715345   -0.074283
     72          1           0        0.258554    0.310292   -2.443063
     73          1           0        1.620729    1.439714   -2.888836
     74          1           0        0.109773    2.014465   -2.343924
     75          1           0        0.107520    0.141182    1.373160
     76          1           0        0.891422   -1.271030    1.698962
     77          1           0       -0.519300   -2.662977    0.752888
     78          1           0       -0.877673   -1.600634   -0.604572
     79          1           0        3.372997    5.359545   -1.207684
     80          1           0        4.610593    6.389134   -2.054846
     81          1           0        4.253674    6.620628   -0.324037
     82          1           0        6.174758    7.013077    0.626722
     83          1           0        6.628637    7.595731   -1.027555
     84          1           0        7.742170    7.950774    0.217239
     85          1           0       10.818182    1.827980    0.222693
     86          1           0       10.639612   -1.143367   -0.374297
     87          1           0       11.703410    0.429188   -1.774034
     88          1           0       10.945992    2.016801   -2.118607
     89          1           0       10.111997    0.532274   -2.452530
     90          1           0       11.819793    0.256519    1.564736
     91          1           0       11.470068   -1.529279    1.673806
     92          1           0       10.318725    0.594209    3.170093
     93          1           0       10.616891   -1.007589    3.850718
     94          1           0        9.177774   -0.744152    2.857046
     95          1           0        7.891242   -4.912297    2.114292
     96          1           0        8.053845   -5.172708    0.362512
     97          1           0        6.834797   -5.983622    1.149261
     98          1           0        1.973391   -3.335635    1.128942
     99          1           0        0.695605   -4.636731   -2.666601
    100          1           0       -0.832536   -4.384513   -1.742921
    101          1           0        0.070625   -5.869717   -1.672860
    102          1           0       -4.255463    0.210283    0.435120
    103          1           0       -4.677671   -1.172252    1.510241
    104          1           0       -5.982983   -0.471461   -0.904226
    105          1           0       -5.300192   -3.801779    0.864783
    106          1           0       -4.274773   -3.810949   -0.561880
    107          1           0       -5.778550   -4.657388   -0.714892
    108          1           0       -7.204309   -3.715440   -2.054401
    109          1           0       -6.668079   -2.263993   -2.780825
    110          1           0       -8.610187   -2.145504   -0.441730
    111          1           0       -9.233013   -2.799923   -1.941513
    112          1           0       -9.297648   -1.058975   -3.073232
    113          1           0       -7.879705   -0.246189   -2.403972
    114          1           0      -10.441618   -0.485831   -1.027684
    115          1           0      -11.184260    0.779646   -2.740744
    116          1           0       -9.476984    1.464680   -2.877923
    117          1           0      -10.679052    2.073833   -1.703431
    118          1           0       -8.598709    1.980978   -0.406567
    119          1           0       -7.818577    0.514381   -0.180600
    120          1           0       -8.764189    0.344428    1.904112
    121          1           0      -10.333040    0.152105    1.076376
    122          1           0       -8.985675    2.782325    1.483786
    123          1           0       -9.795480    2.086371    2.929187
    124          1           0      -11.431237    2.176019    0.521297
    125          1           0      -10.110183    4.461935    0.995316
    126          1           0      -11.319264    4.745283    2.218128
    127          1           0      -11.787733    4.488992    0.476348
    128          1           0      -12.247802    3.009744    3.287650
    129          1           0      -11.956969    1.333768    2.971193
    130          1           0      -13.739098    2.892417    1.018472
    131          1           0      -14.323852    2.415365    2.666904
    132          1           0      -14.364052    0.298707    2.048734
    133          1           0      -12.852164    0.191648    1.442235
    134          1           0      -14.403542    1.678015   -0.534025
    135          1           0      -16.540814    1.230745    0.058480
    136          1           0      -16.126430   -0.201810    1.000552
    137          1           0      -16.357224   -0.342461   -0.737814
    138          1           0      -14.307983   -1.076278   -1.449098
    139          1           0      -12.883530   -0.543184   -0.670494
    140          1           0      -13.661428    0.416341   -2.057278
 ---------------------------------------------------------------------

 SCF Done:  E(RCAM-B3LYP) =  -3007.15844326     A.U. after   18 cycles

 Excitation energies and oscillator strengths:

 Excited State   1:      Singlet-A      1.7216 eV  720.15 nm  f=0.3955  <S**2>=0.000
     245 -> 248       -0.17538
     246 -> 247        0.68665
     245 <- 248       -0.10491
 This state for optimization and/or second-order correction.
 Total Energy, E(TD-HF/TD-DFT) =  -3007.09517382
 Copying the excited state density for this state as the 1-particle RhoCI density.

 Excited State   2:      Singlet-A      2.2400 eV  553.49 nm  f=0.1051  <S**2>=0.000
     245 -> 247        0.64114
     246 -> 248        0.28548

 Excited State   3:      Singlet-A      3.5167 eV  352.56 nm  f=0.0828  <S**2>=0.000
     242 -> 247       -0.10148
     244 -> 247        0.60619
     245 -> 247        0.10815
     246 -> 248       -0.29207

 Excited State   4:      Singlet-A      3.5414 eV  350.10 nm  f=0.4797  <S**2>=0.000
     240 -> 247        0.10347
     242 -> 247       -0.26447
     244 -> 247        0.24390
     245 -> 247       -0.23322
     246 -> 248        0.53733

 Excited State   5:      Singlet-A      3.6625 eV  338.52 nm  f=0.0036  <S**2>=0.000
     241 -> 247        0.52067
     241 -> 249       -0.35442
     241 -> 250       -0.22441
     242 -> 247        0.13686

 The electronic state is 1-A.
 Alpha  occ. eigenvalues --  -46.89007 -19.25968 -19.25938 -19.20170 -19.20107
 Alpha  occ. eigenvalues --  -19.20104 -19.19438 -14.42226 -14.41788 -14.40336
 Alpha  occ. eigenvalues --  -14.38717 -10.39969 -10.39490 -10.36717 -10.35689
 Alpha  occ. eigenvalues --  -10.31896 -10.31286 -10.31282 -10.31239 -10.31138
 Alpha  occ. eigenvalues --  -10.30979 -10.30918 -10.30584 -10.29734 -10.29079
 Alpha  occ. eigenvalues --  -10.28658 -10.28572 -10.28514 -10.28112 -10.27993
 Alpha  occ. eigenvalues --  -10.27872 -10.27726 -10.27586 -10.27538 -10.27487
 Alpha  occ. eigenvalues --  -10.27288 -10.27286 -10.27133 -10.27127 -10.26854
 Alpha  occ. eigenvalues --  -10.26408 -10.26297 -10.26192 -10.26167 -10.25825
 Alpha  occ. eigenvalues --  -10.25755 -10.25741 -10.25552 -10.25441 -10.25270
 Alpha  occ. eigenvalues --  -10.25196 -10.25115 -10.25087 -10.24979 -10.24728
 Alpha  occ. eigenvalues --  -10.24698 -10.24564 -10.24416 -10.24388 -10.24314
 Alpha  occ. eigenvalues --  -10.24171 -10.24149 -10.24082 -10.24052 -10.24049
 Alpha  occ. eigenvalues --  -10.24022  -3.17491  -1.92397  -1.91960  -1.91778
 Alpha  occ. eigenvalues --   -1.17788  -1.16487  -1.10471  -1.09153  -1.08769
 Alpha  occ. eigenvalues --   -1.06543  -1.04537  -1.03853  -1.03294  -1.01631
 Alpha  occ. eigenvalues --   -0.93180  -0.90710  -0.90494  -0.90031  -0.89044
 Alpha  occ. eigenvalues --   -0.88605  -0.88028  -0.87867  -0.87493  -0.87459
 Alpha  occ. eigenvalues --   -0.85910  -0.85596  -0.84587  -0.84000  -0.83362
 Alpha  occ. eigenvalues --   -0.82832  -0.82563  -0.81726  -0.81066  -0.80714
 Alpha  occ. eigenvalues --   -0.80088  -0.78823  -0.77863  -0.77062  -0.75994
 Alpha  occ. eigenvalues --   -0.75516  -0.75382  -0.75068  -0.74437  -0.74027
 Alpha  occ. eigenvalues --   -0.73683  -0.72776  -0.71565  -0.70600  -0.69749
 Alpha  occ. eigenvalues --   -0.68790  -0.68174  -0.67294  -0.66717  -0.65842
 Alpha  occ. eigenvalues --   -0.65494  -0.65044  -0.64980  -0.64857  -0.63806
 Alpha  occ. eigenvalues --   -0.63766  -0.63379  -0.62567  -0.62551  -0.60421
 Alpha  occ. eigenvalues --   -0.59642  -0.59406  -0.58928  -0.58488  -0.58038
 Alpha  occ. eigenvalues --   -0.57440  -0.57261  -0.56882  -0.56185  -0.55818
 Alpha  occ. eigenvalues --   -0.55361  -0.55023  -0.54664  -0.54518  -0.54362
 Alpha  occ. eigenvalues --   -0.53843  -0.53837  -0.53753  -0.53583  -0.53207
 Alpha  occ. eigenvalues --   -0.53007  -0.52559  -0.52522  -0.52104  -0.52016
 Alpha  occ. eigenvalues --   -0.51982  -0.51477  -0.51221  -0.50770  -0.50664
 Alpha  occ. eigenvalues --   -0.50299  -0.49876  -0.49861  -0.49711  -0.49463
 Alpha  occ. eigenvalues --   -0.49418  -0.49183  -0.49160  -0.49115  -0.48909
 Alpha  occ. eigenvalues --   -0.48755  -0.48583  -0.48388  -0.48278  -0.47835
 Alpha  occ. eigenvalues --   -0.47659  -0.47537  -0.46842  -0.46803  -0.46630
 Alpha  occ. eigenvalues --   -0.46491  -0.46336  -0.46058  -0.45964  -0.45682
 Alpha  occ. eigenvalues --   -0.45463  -0.45364  -0.45199  -0.45024  -0.44819
 Alpha  occ. eigenvalues --   -0.44783  -0.44662  -0.44453  -0.44165  -0.43924
 Alpha  occ. eigenvalues --   -0.43524  -0.43506  -0.43393  -0.43364  -0.43021
 Alpha  occ. eigenvalues --   -0.42966  -0.42751  -0.42627  -0.42519  -0.42158
 Alpha  occ. eigenvalues --   -0.42121  -0.41854  -0.41698  -0.41492  -0.41204
 Alpha  occ. eigenvalues --   -0.41127  -0.40803  -0.40487  -0.40314  -0.40164
 Alpha  occ. eigenvalues --   -0.39676  -0.39174  -0.39074  -0.38868  -0.38112
 Alpha  occ. eigenvalues --   -0.37984  -0.37784  -0.37400  -0.37318  -0.37181
 Alpha  occ. eigenvalues --   -0.36980  -0.36888  -0.36787  -0.36439  -0.36187
 Alpha  occ. eigenvalues --   -0.36098  -0.34949  -0.34891  -0.34728  -0.34439
 Alpha  occ. eigenvalues --   -0.34314  -0.33922  -0.33164  -0.32337  -0.31531
 Alpha  occ. eigenvalues --   -0.31205  -0.30964  -0.30100  -0.29781  -0.24185
 Alpha  occ. eigenvalues --   -0.21142
 Alpha virt. eigenvalues --   -0.08657  -0.01557   0.00017   0.01690   0.02602
 Alpha virt. eigenvalues --    0.03852   0.04685   0.04878   0.05653   0.06444
 Alpha virt. eigenvalues --    0.07737   0.08391   0.08400   0.08952   0.08983

 Mulliken charges:
               1
     1  Mg   0.825672
     2  C    0.059112
     3  C   -0.069209
     4  C   -0.038508
     5  C   -0.068267
     6  N   -0.297791
     7  C   -0.112605
     8  C    0.037603
     9  C   -0.102776
    10  C    0.053479
    11  C    0.034746
    12  C    0.089780
    13  C    0.066492
    14  C    0.165792
    15  O   -0.271454
    16  O   -0.321054
    17  N   -0.369146
    18  C    0.151204
    19  C   -0.157399
    20  C   -0.052806
    21  C    0.102748
    22  C    0.110764
    23  C    0.040236
    24  O   -0.196469
    25  C    0.049532
    26  N   -0.317342
    27  C    0.064268
    28  C   -0.053389
    29  C    0.000540
    30  C    0.045728
    31  C    0.051807
    32  C    0.047535
    33  C   -0.017098
    34  N   -0.300891
    35  C    0.048486
    36  C   -0.165239
    37  C   -0.004376
    38  C    0.099303
    39  C    0.105180
    40  C    0.121549
    41  O   -0.174487
    42  C   -0.075378
    43  C    0.164382
    44  O   -0.206018
    45  O   -0.306961
    46  C    0.156741
    47  C    0.289565
    48  C   -0.153683
    49  C   -0.189615
    50  C    0.087543
    51  C    0.092205
    52  C    0.051212
    53  C   -0.004094
    54  C   -0.130741
    55  C    0.047090
    56  C    0.094420
    57  C    0.018234
    58  C    0.036790
    59  C   -0.153984
    60  C    0.064223
    61  C    0.053911
    62  C    0.048861
    63  C    0.022795
    64  C   -0.146897
    65  C    0.064218
    66  C    0.030018
    67  H   -0.027569
    68  H   -0.011701
    69  H   -0.021983
    70  H    0.027734
    71  H    0.023671
    72  H    0.023249
    73  H    0.026560
    74  H    0.007878
    75  H    0.011404
    76  H    0.009799
    77  H    0.063727
    78  H    0.024533
    79  H    0.008385
    80  H    0.041328
    81  H    0.030808
    82  H    0.046285
    83  H    0.034208
    84  H    0.034357
    85  H    0.018277
    86  H    0.005607
    87  H    0.015689
    88  H    0.019660
    89  H    0.015478
    90  H    0.014034
    91  H    0.002873
    92  H    0.010749
    93  H    0.021472
    94  H    0.038247
    95  H    0.036469
    96  H    0.012935
    97  H    0.022419
    98  H    0.025091
    99  H    0.045980
   100  H    0.030508
   101  H    0.035527
   102  H    0.010829
   103  H    0.051875
   104  H    0.003771
   105  H    0.032783
   106  H    0.023889
   107  H    0.007409
   108  H   -0.019015
   109  H    0.016461
   110  H    0.005541
   111  H   -0.002381
   112  H   -0.009789
   113  H   -0.005629
   114  H   -0.002555
   115  H    0.006595
   116  H   -0.000210
   117  H    0.006593
   118  H   -0.010201
   119  H   -0.031116
   120  H   -0.004913
   121  H   -0.005006
   122  H   -0.013342
   123  H   -0.011935
   124  H   -0.008515
   125  H   -0.004909
   126  H    0.008219
   127  H    0.008081
   128  H   -0.020162
   129  H   -0.010015
   130  H   -0.003276
   131  H   -0.000987
   132  H   -0.017621
   133  H    0.000386
   134  H   -0.002005
   135  H    0.006069
   136  H    0.004549
   137  H    0.009920
   138  H   -0.003957
   139  H    0.003717
   140  H    0.021074
 Sum of Mulliken charges =  -0.00000

 Dipole moment (field-independent basis, Debye):
    X=             -1.3052    Y=              3.7000    Z=             -2.0224  Tot=              4.4141
 Quadrupole moment (field-independent basis, Debye-Ang):
   XX=           -382.7723   YY=           -407.4578   ZZ=           -412.5598
   XY=             10.0091   XZ=              6.3919   YZ=             -0.9443

 Normal termination of Gaussian 16 at Wed May  4 20:21:34 2022.
