 Gaussian 16, Revision A.03,
 Gaussian 16:  ES64L-G16RevA.03 25-Dec-2016

 ---------------------------------
 #p PBE1PBE/Def2SVP td=(nstates=5)
 ---------------------------------

 -----------------------------------------------------
 step_451_chromophore_10 TDDFT with PBE1PBE functional
 -----------------------------------------------------
 Symbolic Z-matrix:
 Charge =  0 Multiplicity = 1

                         Standard orientation:
 ---------------------------------------------------------------------
 Center     Atomic      Atomic             Coordinates (Angstroms)
 Number     Number       Type             X           Y           Z
 ---------------------------------------------------------------------
      1         12           0        5.941304    0.451053    0.188801
      2          6           0        3.464334   -1.981829    0.255270
      3          6           0        3.401114    2.725544   -0.779264
      4          6           0        8.195970    2.656648   -0.430989
      5          6           0        8.344717   -2.074988    0.601222
      6          7           0        3.722676    0.337666   -0.242011
      7          6           0        2.880723   -0.781049   -0.029430
      8          6           0        1.393676   -0.426075   -0.266081
      9          6           0        1.436080    1.074515   -0.702365
     10          6           0        2.977710    1.416894   -0.667084
     11          6           0        0.823328    1.206338   -2.183730
     12          6           0        0.381789   -0.784038    0.867091
     13          6           0       -0.746329   -1.633306    0.476793
     14          6           0       -2.113113   -1.223700    1.004754
     15          8           0       -2.416185   -0.865501    2.176014
     16          8           0       -3.074530   -1.370067    0.019884
     17          7           0        5.750735    2.463890   -0.298425
     18          6           0        4.700561    3.281092   -0.672234
     19          6           0        5.218986    4.681362   -0.798226
     20          6           0        6.573106    4.662976   -0.506323
     21          6           0        6.868738    3.230000   -0.402464
     22          6           0        4.321965    5.889557   -1.129870
     23          6           0        7.575561    5.847793   -0.166036
     24          8           0        8.749305    5.696607    0.177145
     25          6           0        6.987018    7.219190   -0.069613
     26          7           0        8.011434    0.302758    0.084826
     27          6           0        8.714559    1.382633   -0.246213
     28          6           0       10.254311    1.045496   -0.284662
     29          6           0       10.281360   -0.417277    0.355021
     30          6           0        8.774733   -0.783149    0.420342
     31          6           0       10.780962    1.009011   -1.736896
     32          6           0       11.058831   -0.521127    1.639368
     33          6           0       10.227194   -0.475507    2.983055
     34          7           0        5.994122   -1.666527    0.415545
     35          6           0        7.024054   -2.485829    0.602432
     36          6           0        6.466378   -3.836676    0.789496
     37          6           0        5.082399   -3.698205    0.713487
     38          6           0        4.823493   -2.343863    0.416770
     39          6           0        7.345843   -5.021085    1.176817
     40          6           0        3.827804   -4.450885    0.718429
     41          8           0        3.541758   -5.650285    0.855626
     42          6           0        2.779049   -3.306718    0.395462
     43          6           0        2.065493   -3.612104   -0.893642
     44          8           0        2.572231   -3.504922   -1.992016
     45          8           0        0.882698   -4.228930   -0.616793
     46          6           0        0.180478   -4.785976   -1.717942
     47          6           0       -4.345116   -0.872793    0.516568
     48          6           0       -5.510419   -1.309636   -0.391184
     49          6           0       -5.948183   -2.508562   -0.784106
     50          6           0       -5.311525   -3.803001   -0.225399
     51          6           0       -7.043810   -2.660155   -1.837296
     52          6           0       -8.455117   -2.161487   -1.521090
     53          6           0       -8.774674   -0.813291   -2.148022
     54          6           0       -9.630995    0.177030   -1.328095
     55          6           0      -10.313409    1.194309   -2.233095
     56          6           0       -8.825194    0.931543   -0.213681
     57          6           0       -9.445464    0.776746    1.171079
     58          6           0       -9.791504    2.139479    1.840343
     59          6           0      -11.196036    2.652452    1.473990
     60          6           0      -11.126191    4.201824    1.293113
     61          6           0      -12.242914    2.268904    2.488863
     62          6           0      -13.615494    2.215480    1.863540
     63          6           0      -13.756508    0.776718    1.278827
     64          6           0      -14.499421    0.694227   -0.073555
     65          6           0      -15.967215    0.304347    0.048482
     66          6           0      -13.790862   -0.167248   -1.144835
     67          1           0        2.531500    3.331718   -1.044566
     68          1           0        8.932087    3.379014   -0.789959
     69          1           0        8.990641   -2.952749    0.548045
     70          1           0        1.312380   -1.072834   -1.139708
     71          1           0        0.816005    1.715345   -0.074283
     72          1           0        0.258554    0.310292   -2.443063
     73          1           0        1.620729    1.439714   -2.888836
     74          1           0        0.109773    2.014465   -2.343924
     75          1           0        0.107520    0.141182    1.373160
     76          1           0        0.891422   -1.271030    1.698962
     77          1           0       -0.519300   -2.662977    0.752888
     78          1           0       -0.877673   -1.600634   -0.604572
     79          1           0        3.372997    5.359545   -1.207684
     80          1           0        4.610593    6.389134   -2.054846
     81          1           0        4.253674    6.620628   -0.324037
     82          1           0        6.174758    7.013077    0.626722
     83          1           0        6.628637    7.595731   -1.027555
     84          1           0        7.742170    7.950774    0.217239
     85          1           0       10.818182    1.827980    0.222693
     86          1           0       10.639612   -1.143367   -0.374297
     87          1           0       11.703410    0.429188   -1.774034
     88          1           0       10.945992    2.016801   -2.118607
     89          1           0       10.111997    0.532274   -2.452530
     90          1           0       11.819793    0.256519    1.564736
     91          1           0       11.470068   -1.529279    1.673806
     92          1           0       10.318725    0.594209    3.170093
     93          1           0       10.616891   -1.007589    3.850718
     94          1           0        9.177774   -0.744152    2.857046
     95          1           0        7.891242   -4.912297    2.114292
     96          1           0        8.053845   -5.172708    0.362512
     97          1           0        6.834797   -5.983622    1.149261
     98          1           0        1.973391   -3.335635    1.128942
     99          1           0        0.695605   -4.636731   -2.666601
    100          1           0       -0.832536   -4.384513   -1.742921
    101          1           0        0.070625   -5.869717   -1.672860
    102          1           0       -4.255463    0.210283    0.435120
    103          1           0       -4.677671   -1.172252    1.510241
    104          1           0       -5.982983   -0.471461   -0.904226
    105          1           0       -5.300192   -3.801779    0.864783
    106          1           0       -4.274773   -3.810949   -0.561880
    107          1           0       -5.778550   -4.657388   -0.714892
    108          1           0       -7.204309   -3.715440   -2.054401
    109          1           0       -6.668079   -2.263993   -2.780825
    110          1           0       -8.610187   -2.145504   -0.441730
    111          1           0       -9.233013   -2.799923   -1.941513
    112          1           0       -9.297648   -1.058975   -3.073232
    113          1           0       -7.879705   -0.246189   -2.403972
    114          1           0      -10.441618   -0.485831   -1.027684
    115          1           0      -11.184260    0.779646   -2.740744
    116          1           0       -9.476984    1.464680   -2.877923
    117          1           0      -10.679052    2.073833   -1.703431
    118          1           0       -8.598709    1.980978   -0.406567
    119          1           0       -7.818577    0.514381   -0.180600
    120          1           0       -8.764189    0.344428    1.904112
    121          1           0      -10.333040    0.152105    1.076376
    122          1           0       -8.985675    2.782325    1.483786
    123          1           0       -9.795480    2.086371    2.929187
    124          1           0      -11.431237    2.176019    0.521297
    125          1           0      -10.110183    4.461935    0.995316
    126          1           0      -11.319264    4.745283    2.218128
    127          1           0      -11.787733    4.488992    0.476348
    128          1           0      -12.247802    3.009744    3.287650
    129          1           0      -11.956969    1.333768    2.971193
    130          1           0      -13.739098    2.892417    1.018472
    131          1           0      -14.323852    2.415365    2.666904
    132          1           0      -14.364052    0.298707    2.048734
    133          1           0      -12.852164    0.191648    1.442235
    134          1           0      -14.403542    1.678015   -0.534025
    135          1           0      -16.540814    1.230745    0.058480
    136          1           0      -16.126430   -0.201810    1.000552
    137          1           0      -16.357224   -0.342461   -0.737814
    138          1           0      -14.307983   -1.076278   -1.449098
    139          1           0      -12.883530   -0.543184   -0.670494
    140          1           0      -13.661428    0.416341   -2.057278
 ---------------------------------------------------------------------

 SCF Done:  E(RPBE1PBE) =  -3005.34735467     A.U. after   15 cycles

 Excitation energies and oscillator strengths:

 Excited State   1:      Singlet-A      1.8697 eV  663.12 nm  f=0.3850  <S**2>=0.000
     245 -> 248       -0.16492
     246 -> 247        0.69404
     246 <- 247       -0.10983
 This state for optimization and/or second-order correction.
 Total Energy, E(TD-HF/TD-DFT) =  -3005.27864388
 Copying the excited state density for this state as the 1-particle RhoCI density.

 Excited State   2:      Singlet-A      2.2384 eV  553.89 nm  f=0.1040  <S**2>=0.000
     245 -> 247        0.65402
     246 -> 248        0.25151

 Excited State   3:      Singlet-A      3.1323 eV  395.83 nm  f=0.0009  <S**2>=0.000
     242 -> 247        0.25360
     242 -> 249       -0.11515
     243 -> 247        0.63002

 Excited State   4:      Singlet-A      3.2091 eV  386.36 nm  f=0.0003  <S**2>=0.000
     242 -> 247        0.61724
     242 -> 249       -0.16137
     243 -> 247       -0.27231

 Excited State   5:      Singlet-A      3.2807 eV  377.92 nm  f=0.0491  <S**2>=0.000
     239 -> 247        0.13019
     240 -> 247       -0.21464
     241 -> 247        0.55848
     241 -> 249        0.11860
     241 -> 250       -0.10986
     246 -> 248       -0.24967

 The electronic state is 1-A.
 Alpha  occ. eigenvalues --  -46.92411 -19.26640 -19.26623 -19.20458 -19.20403
 Alpha  occ. eigenvalues --  -19.20194 -19.19790 -14.41726 -14.41350 -14.39899
 Alpha  occ. eigenvalues --  -14.38450 -10.37060 -10.36520 -10.33749 -10.32944
 Alpha  occ. eigenvalues --  -10.29321 -10.28858 -10.28819 -10.28811 -10.28639
 Alpha  occ. eigenvalues --  -10.28581 -10.28516 -10.28484 -10.27205 -10.26877
 Alpha  occ. eigenvalues --  -10.26529 -10.26490 -10.26428 -10.25814 -10.25620
 Alpha  occ. eigenvalues --  -10.25564 -10.25531 -10.25311 -10.25165 -10.25023
 Alpha  occ. eigenvalues --  -10.25006 -10.24816 -10.24814 -10.24745 -10.24040
 Alpha  occ. eigenvalues --  -10.23967 -10.23912 -10.23867 -10.23825 -10.23404
 Alpha  occ. eigenvalues --  -10.23309 -10.23223 -10.23114 -10.22986 -10.22983
 Alpha  occ. eigenvalues --  -10.22956 -10.22734 -10.22701 -10.22451 -10.22399
 Alpha  occ. eigenvalues --  -10.22277 -10.22105 -10.21988 -10.21988 -10.21855
 Alpha  occ. eigenvalues --  -10.21600 -10.21590 -10.21548 -10.21545 -10.21480
 Alpha  occ. eigenvalues --  -10.21430  -3.14477  -1.87324  -1.86866  -1.86685
 Alpha  occ. eigenvalues --   -1.12578  -1.11326  -1.05082  -1.03970  -1.03607
 Alpha  occ. eigenvalues --   -1.01413  -0.99277  -0.98492  -0.97937  -0.96202
 Alpha  occ. eigenvalues --   -0.87621  -0.84848  -0.84659  -0.84160  -0.83369
 Alpha  occ. eigenvalues --   -0.82750  -0.82259  -0.82069  -0.81791  -0.81614
 Alpha  occ. eigenvalues --   -0.80249  -0.79971  -0.78767  -0.78344  -0.77577
 Alpha  occ. eigenvalues --   -0.77004  -0.76669  -0.76069  -0.75393  -0.74956
 Alpha  occ. eigenvalues --   -0.74258  -0.73031  -0.72140  -0.71432  -0.70348
 Alpha  occ. eigenvalues --   -0.69679  -0.69493  -0.69405  -0.68556  -0.68234
 Alpha  occ. eigenvalues --   -0.68003  -0.67242  -0.66013  -0.64925  -0.64140
 Alpha  occ. eigenvalues --   -0.63268  -0.62384  -0.61665  -0.60966  -0.60237
 Alpha  occ. eigenvalues --   -0.60090  -0.59492  -0.59389  -0.59202  -0.58336
 Alpha  occ. eigenvalues --   -0.57958  -0.57500  -0.57177  -0.56702  -0.54905
 Alpha  occ. eigenvalues --   -0.54247  -0.53937  -0.53316  -0.53157  -0.52499
 Alpha  occ. eigenvalues --   -0.51962  -0.51770  -0.51291  -0.50791  -0.50419
 Alpha  occ. eigenvalues --   -0.49932  -0.49551  -0.49120  -0.49039  -0.48945
 Alpha  occ. eigenvalues --   -0.48354  -0.48256  -0.48151  -0.48084  -0.47681
 Alpha  occ. eigenvalues --   -0.47502  -0.47120  -0.47062  -0.46763  -0.46545
 Alpha  occ. eigenvalues --   -0.46475  -0.46083  -0.45769  -0.45399  -0.45178
 Alpha  occ. eigenvalues --   -0.44863  -0.44518  -0.44395  -0.44194  -0.44100
 Alpha  occ. eigenvalues --   -0.44045  -0.43717  -0.43663  -0.43652  -0.43474
 Alpha  occ. eigenvalues --   -0.43415  -0.43156  -0.43066  -0.42891  -0.42542
 Alpha  occ. eigenvalues --   -0.42209  -0.42096  -0.41593  -0.41476  -0.41400
 Alpha  occ. eigenvalues --   -0.41283  -0.41050  -0.40682  -0.40595  -0.40352
 Alpha  occ. eigenvalues --   -0.40173  -0.40078  -0.39788  -0.39751  -0.39540
 Alpha  occ. eigenvalues --   -0.39483  -0.39431  -0.39241  -0.38908  -0.38644
 Alpha  occ. eigenvalues --   -0.38334  -0.38307  -0.38219  -0.38062  -0.37856
 Alpha  occ. eigenvalues --   -0.37798  -0.37550  -0.37447  -0.37315  -0.36931
 Alpha  occ. eigenvalues --   -0.36928  -0.36610  -0.36463  -0.36296  -0.36033
 Alpha  occ. eigenvalues --   -0.35991  -0.35709  -0.35287  -0.35137  -0.34998
 Alpha  occ. eigenvalues --   -0.34659  -0.34045  -0.33935  -0.33645  -0.33010
 Alpha  occ. eigenvalues --   -0.32911  -0.32577  -0.32230  -0.32179  -0.32151
 Alpha  occ. eigenvalues --   -0.31936  -0.31859  -0.31752  -0.31314  -0.31189
 Alpha  occ. eigenvalues --   -0.31090  -0.29852  -0.29748  -0.29551  -0.29314
 Alpha  occ. eigenvalues --   -0.29199  -0.29130  -0.28794  -0.27541  -0.26573
 Alpha  occ. eigenvalues --   -0.26454  -0.26213  -0.25533  -0.25367  -0.21069
 Alpha  occ. eigenvalues --   -0.18799
 Alpha virt. eigenvalues --   -0.11172  -0.05138  -0.04226  -0.02691  -0.00795
 Alpha virt. eigenvalues --   -0.00187   0.00200   0.00327   0.01232   0.02973
 Alpha virt. eigenvalues --    0.03880   0.04481   0.05094   0.05515   0.05637

 Mulliken charges:
               1
     1  Mg   0.972945
     2  C    0.023828
     3  C   -0.071649
     4  C   -0.028211
     5  C   -0.060178
     6  N   -0.397234
     7  C   -0.035726
     8  C   -0.031903
     9  C   -0.182355
    10  C    0.095149
    11  C   -0.018307
    12  C    0.042211
    13  C   -0.015837
    14  C    0.230553
    15  O   -0.301933
    16  O   -0.350151
    17  N   -0.476940
    18  C    0.169035
    19  C   -0.184483
    20  C   -0.086497
    21  C    0.125277
    22  C    0.050781
    23  C    0.086309
    24  O   -0.233569
    25  C   -0.024825
    26  N   -0.426272
    27  C    0.098411
    28  C   -0.134981
    29  C   -0.064199
    30  C    0.079149
    31  C   -0.003597
    32  C   -0.018015
    33  C   -0.089388
    34  N   -0.432774
    35  C    0.082915
    36  C   -0.183153
    37  C   -0.054590
    38  C    0.162866
    39  C    0.051548
    40  C    0.213000
    41  O   -0.220905
    42  C   -0.172294
    43  C    0.254094
    44  O   -0.240812
    45  O   -0.341666
    46  C    0.104190
    47  C    0.244085
    48  C   -0.163686
    49  C   -0.230826
    50  C    0.023727
    51  C    0.030628
    52  C   -0.013698
    53  C   -0.056265
    54  C   -0.227032
    55  C   -0.013649
    56  C    0.038645
    57  C   -0.048408
    58  C   -0.019704
    59  C   -0.243035
    60  C    0.007872
    61  C   -0.006736
    62  C   -0.014490
    63  C   -0.031262
    64  C   -0.240549
    65  C    0.004562
    66  C   -0.030571
    67  H    0.004062
    68  H    0.020715
    69  H    0.009064
    70  H    0.069858
    71  H    0.058287
    72  H    0.049699
    73  H    0.053853
    74  H    0.035172
    75  H    0.042974
    76  H    0.042491
    77  H    0.096334
    78  H    0.058172
    79  H    0.039528
    80  H    0.067732
    81  H    0.056769
    82  H    0.073087
    83  H    0.060802
    84  H    0.061096
    85  H    0.052551
    86  H    0.042530
    87  H    0.043855
    88  H    0.047772
    89  H    0.043263
    90  H    0.046713
    91  H    0.036294
    92  H    0.040457
    93  H    0.049062
    94  H    0.067824
    95  H    0.064118
    96  H    0.041260
    97  H    0.051225
    98  H    0.063911
    99  H    0.066473
   100  H    0.052011
   101  H    0.057609
   102  H    0.039042
   103  H    0.077587
   104  H    0.033219
   105  H    0.059733
   106  H    0.052865
   107  H    0.034140
   108  H    0.013586
   109  H    0.048827
   110  H    0.038995
   111  H    0.030369
   112  H    0.023634
   113  H    0.026996
   114  H    0.040173
   115  H    0.035473
   116  H    0.028408
   117  H    0.034848
   118  H    0.020376
   119  H    0.009243
   120  H    0.028123
   121  H    0.029700
   122  H    0.019150
   123  H    0.020833
   124  H    0.038220
   125  H    0.022881
   126  H    0.034657
   127  H    0.034894
   128  H    0.013236
   129  H    0.023373
   130  H    0.029540
   131  H    0.031798
   132  H    0.016697
   133  H    0.032066
   134  H    0.035448
   135  H    0.034030
   136  H    0.031411
   137  H    0.036551
   138  H    0.023616
   139  H    0.033429
   140  H    0.046785
 Sum of Mulliken charges =  -0.00000

 Dipole moment (field-independent basis, Debye):
    X=             -1.2360    Y=              3.3016    Z=             -1.9840  Tot=              4.0453
 Quadrupole moment (field-independent basis, Debye-Ang):
   XX=           -376.4210   YY=           -405.0075   ZZ=           -410.0171
   XY=              7.1503   XZ=              7.1806   YZ=             -0.9823

 Normal termination of Gaussian 16 at Wed May  4 20:42:12 2022.
