 Gaussian 16, Revision A.03,
 Gaussian 16:  ES64L-G16RevA.03 25-Dec-2016

 --------------------------------
 #p wB97XD/Def2SVP td=(nstates=5)
 --------------------------------

 ----------------------------------------------------
 step_451_chromophore_10 TDDFT with wB97XD functional
 ----------------------------------------------------
 Symbolic Z-matrix:
 Charge =  0 Multiplicity = 1

                         Standard orientation:
 ---------------------------------------------------------------------
 Center     Atomic      Atomic             Coordinates (Angstroms)
 Number     Number       Type             X           Y           Z
 ---------------------------------------------------------------------
      1         12           0        5.941304    0.451053    0.188801
      2          6           0        3.464334   -1.981829    0.255270
      3          6           0        3.401114    2.725544   -0.779264
      4          6           0        8.195970    2.656648   -0.430989
      5          6           0        8.344717   -2.074988    0.601222
      6          7           0        3.722676    0.337666   -0.242011
      7          6           0        2.880723   -0.781049   -0.029430
      8          6           0        1.393676   -0.426075   -0.266081
      9          6           0        1.436080    1.074515   -0.702365
     10          6           0        2.977710    1.416894   -0.667084
     11          6           0        0.823328    1.206338   -2.183730
     12          6           0        0.381789   -0.784038    0.867091
     13          6           0       -0.746329   -1.633306    0.476793
     14          6           0       -2.113113   -1.223700    1.004754
     15          8           0       -2.416185   -0.865501    2.176014
     16          8           0       -3.074530   -1.370067    0.019884
     17          7           0        5.750735    2.463890   -0.298425
     18          6           0        4.700561    3.281092   -0.672234
     19          6           0        5.218986    4.681362   -0.798226
     20          6           0        6.573106    4.662976   -0.506323
     21          6           0        6.868738    3.230000   -0.402464
     22          6           0        4.321965    5.889557   -1.129870
     23          6           0        7.575561    5.847793   -0.166036
     24          8           0        8.749305    5.696607    0.177145
     25          6           0        6.987018    7.219190   -0.069613
     26          7           0        8.011434    0.302758    0.084826
     27          6           0        8.714559    1.382633   -0.246213
     28          6           0       10.254311    1.045496   -0.284662
     29          6           0       10.281360   -0.417277    0.355021
     30          6           0        8.774733   -0.783149    0.420342
     31          6           0       10.780962    1.009011   -1.736896
     32          6           0       11.058831   -0.521127    1.639368
     33          6           0       10.227194   -0.475507    2.983055
     34          7           0        5.994122   -1.666527    0.415545
     35          6           0        7.024054   -2.485829    0.602432
     36          6           0        6.466378   -3.836676    0.789496
     37          6           0        5.082399   -3.698205    0.713487
     38          6           0        4.823493   -2.343863    0.416770
     39          6           0        7.345843   -5.021085    1.176817
     40          6           0        3.827804   -4.450885    0.718429
     41          8           0        3.541758   -5.650285    0.855626
     42          6           0        2.779049   -3.306718    0.395462
     43          6           0        2.065493   -3.612104   -0.893642
     44          8           0        2.572231   -3.504922   -1.992016
     45          8           0        0.882698   -4.228930   -0.616793
     46          6           0        0.180478   -4.785976   -1.717942
     47          6           0       -4.345116   -0.872793    0.516568
     48          6           0       -5.510419   -1.309636   -0.391184
     49          6           0       -5.948183   -2.508562   -0.784106
     50          6           0       -5.311525   -3.803001   -0.225399
     51          6           0       -7.043810   -2.660155   -1.837296
     52          6           0       -8.455117   -2.161487   -1.521090
     53          6           0       -8.774674   -0.813291   -2.148022
     54          6           0       -9.630995    0.177030   -1.328095
     55          6           0      -10.313409    1.194309   -2.233095
     56          6           0       -8.825194    0.931543   -0.213681
     57          6           0       -9.445464    0.776746    1.171079
     58          6           0       -9.791504    2.139479    1.840343
     59          6           0      -11.196036    2.652452    1.473990
     60          6           0      -11.126191    4.201824    1.293113
     61          6           0      -12.242914    2.268904    2.488863
     62          6           0      -13.615494    2.215480    1.863540
     63          6           0      -13.756508    0.776718    1.278827
     64          6           0      -14.499421    0.694227   -0.073555
     65          6           0      -15.967215    0.304347    0.048482
     66          6           0      -13.790862   -0.167248   -1.144835
     67          1           0        2.531500    3.331718   -1.044566
     68          1           0        8.932087    3.379014   -0.789959
     69          1           0        8.990641   -2.952749    0.548045
     70          1           0        1.312380   -1.072834   -1.139708
     71          1           0        0.816005    1.715345   -0.074283
     72          1           0        0.258554    0.310292   -2.443063
     73          1           0        1.620729    1.439714   -2.888836
     74          1           0        0.109773    2.014465   -2.343924
     75          1           0        0.107520    0.141182    1.373160
     76          1           0        0.891422   -1.271030    1.698962
     77          1           0       -0.519300   -2.662977    0.752888
     78          1           0       -0.877673   -1.600634   -0.604572
     79          1           0        3.372997    5.359545   -1.207684
     80          1           0        4.610593    6.389134   -2.054846
     81          1           0        4.253674    6.620628   -0.324037
     82          1           0        6.174758    7.013077    0.626722
     83          1           0        6.628637    7.595731   -1.027555
     84          1           0        7.742170    7.950774    0.217239
     85          1           0       10.818182    1.827980    0.222693
     86          1           0       10.639612   -1.143367   -0.374297
     87          1           0       11.703410    0.429188   -1.774034
     88          1           0       10.945992    2.016801   -2.118607
     89          1           0       10.111997    0.532274   -2.452530
     90          1           0       11.819793    0.256519    1.564736
     91          1           0       11.470068   -1.529279    1.673806
     92          1           0       10.318725    0.594209    3.170093
     93          1           0       10.616891   -1.007589    3.850718
     94          1           0        9.177774   -0.744152    2.857046
     95          1           0        7.891242   -4.912297    2.114292
     96          1           0        8.053845   -5.172708    0.362512
     97          1           0        6.834797   -5.983622    1.149261
     98          1           0        1.973391   -3.335635    1.128942
     99          1           0        0.695605   -4.636731   -2.666601
    100          1           0       -0.832536   -4.384513   -1.742921
    101          1           0        0.070625   -5.869717   -1.672860
    102          1           0       -4.255463    0.210283    0.435120
    103          1           0       -4.677671   -1.172252    1.510241
    104          1           0       -5.982983   -0.471461   -0.904226
    105          1           0       -5.300192   -3.801779    0.864783
    106          1           0       -4.274773   -3.810949   -0.561880
    107          1           0       -5.778550   -4.657388   -0.714892
    108          1           0       -7.204309   -3.715440   -2.054401
    109          1           0       -6.668079   -2.263993   -2.780825
    110          1           0       -8.610187   -2.145504   -0.441730
    111          1           0       -9.233013   -2.799923   -1.941513
    112          1           0       -9.297648   -1.058975   -3.073232
    113          1           0       -7.879705   -0.246189   -2.403972
    114          1           0      -10.441618   -0.485831   -1.027684
    115          1           0      -11.184260    0.779646   -2.740744
    116          1           0       -9.476984    1.464680   -2.877923
    117          1           0      -10.679052    2.073833   -1.703431
    118          1           0       -8.598709    1.980978   -0.406567
    119          1           0       -7.818577    0.514381   -0.180600
    120          1           0       -8.764189    0.344428    1.904112
    121          1           0      -10.333040    0.152105    1.076376
    122          1           0       -8.985675    2.782325    1.483786
    123          1           0       -9.795480    2.086371    2.929187
    124          1           0      -11.431237    2.176019    0.521297
    125          1           0      -10.110183    4.461935    0.995316
    126          1           0      -11.319264    4.745283    2.218128
    127          1           0      -11.787733    4.488992    0.476348
    128          1           0      -12.247802    3.009744    3.287650
    129          1           0      -11.956969    1.333768    2.971193
    130          1           0      -13.739098    2.892417    1.018472
    131          1           0      -14.323852    2.415365    2.666904
    132          1           0      -14.364052    0.298707    2.048734
    133          1           0      -12.852164    0.191648    1.442235
    134          1           0      -14.403542    1.678015   -0.534025
    135          1           0      -16.540814    1.230745    0.058480
    136          1           0      -16.126430   -0.201810    1.000552
    137          1           0      -16.357224   -0.342461   -0.737814
    138          1           0      -14.307983   -1.076278   -1.449098
    139          1           0      -12.883530   -0.543184   -0.670494
    140          1           0      -13.661428    0.416341   -2.057278
 ---------------------------------------------------------------------

 SCF Done:  E(RwB97XD) =  -3007.86258771     A.U. after   20 cycles

 Excitation energies and oscillator strengths:

 Excited State   1:      Singlet-A      1.6700 eV  742.41 nm  f=0.3936  <S**2>=0.000
     245 -> 248       -0.18072
     246 -> 247        0.68430
     245 <- 248       -0.11344
 This state for optimization and/or second-order correction.
 Total Energy, E(TD-HF/TD-DFT) =  -3007.80121524
 Copying the excited state density for this state as the 1-particle RhoCI density.

 Excited State   2:      Singlet-A      2.1861 eV  567.14 nm  f=0.1027  <S**2>=0.000
     245 -> 247        0.63943
     246 -> 248        0.28773

 Excited State   3:      Singlet-A      3.5441 eV  349.83 nm  f=0.3810  <S**2>=0.000
     244 -> 247       -0.38864
     245 -> 247       -0.21466
     246 -> 248        0.52841

 Excited State   4:      Singlet-A      3.5607 eV  348.20 nm  f=0.1849  <S**2>=0.000
     240 -> 247        0.11971
     241 -> 247        0.27158
     242 -> 247       -0.16300
     244 -> 247        0.50241
     245 -> 247       -0.13494
     246 -> 248        0.29534

 Excited State   5:      Singlet-A      3.7011 eV  334.99 nm  f=0.0098  <S**2>=0.000
     240 -> 247       -0.11452
     241 -> 247        0.19794
     241 -> 249       -0.21051
     241 -> 250       -0.14888
     242 -> 247        0.47100
     242 -> 249       -0.29900
     242 -> 250       -0.18405

 The electronic state is 1-A.
 Alpha  occ. eigenvalues --  -46.95348 -19.31188 -19.31165 -19.25181 -19.25092
 Alpha  occ. eigenvalues --  -19.25077 -19.24473 -14.46867 -14.46356 -14.44968
 Alpha  occ. eigenvalues --  -14.43255 -10.43816 -10.43316 -10.40747 -10.39701
 Alpha  occ. eigenvalues --  -10.35799 -10.35412 -10.35307 -10.35244 -10.35034
 Alpha  occ. eigenvalues --  -10.34986 -10.34927 -10.34545 -10.33948 -10.33158
 Alpha  occ. eigenvalues --  -10.32741 -10.32494 -10.32464 -10.32267 -10.32042
 Alpha  occ. eigenvalues --  -10.31900 -10.31713 -10.31656 -10.31576 -10.31460
 Alpha  occ. eigenvalues --  -10.31354 -10.31305 -10.31145 -10.31098 -10.30764
 Alpha  occ. eigenvalues --  -10.30371 -10.30288 -10.30161 -10.30067 -10.29682
 Alpha  occ. eigenvalues --  -10.29669 -10.29611 -10.29392 -10.29390 -10.29269
 Alpha  occ. eigenvalues --  -10.29114 -10.29089 -10.29078 -10.28778 -10.28698
 Alpha  occ. eigenvalues --  -10.28657 -10.28468 -10.28361 -10.28328 -10.28230
 Alpha  occ. eigenvalues --  -10.27978 -10.27975 -10.27969 -10.27954 -10.27923
 Alpha  occ. eigenvalues --  -10.27893  -3.21277  -1.94871  -1.94414  -1.94232
 Alpha  occ. eigenvalues --   -1.19940  -1.18690  -1.12738  -1.11322  -1.10969
 Alpha  occ. eigenvalues --   -1.08756  -1.06525  -1.05912  -1.05302  -1.03642
 Alpha  occ. eigenvalues --   -0.95133  -0.92503  -0.92310  -0.91820  -0.90919
 Alpha  occ. eigenvalues --   -0.90408  -0.89979  -0.89831  -0.89391  -0.89268
 Alpha  occ. eigenvalues --   -0.87809  -0.87500  -0.86418  -0.85916  -0.85266
 Alpha  occ. eigenvalues --   -0.84690  -0.84483  -0.83643  -0.83010  -0.82591
 Alpha  occ. eigenvalues --   -0.81925  -0.80812  -0.79756  -0.78976  -0.77913
 Alpha  occ. eigenvalues --   -0.77351  -0.77183  -0.76989  -0.76253  -0.75880
 Alpha  occ. eigenvalues --   -0.75600  -0.74737  -0.73534  -0.72526  -0.71648
 Alpha  occ. eigenvalues --   -0.70778  -0.70033  -0.69307  -0.68596  -0.67832
 Alpha  occ. eigenvalues --   -0.67491  -0.66916  -0.66882  -0.66825  -0.65782
 Alpha  occ. eigenvalues --   -0.65602  -0.65190  -0.64519  -0.64368  -0.62468
 Alpha  occ. eigenvalues --   -0.61606  -0.61367  -0.60823  -0.60479  -0.59977
 Alpha  occ. eigenvalues --   -0.59438  -0.59199  -0.58771  -0.58146  -0.57753
 Alpha  occ. eigenvalues --   -0.57339  -0.56932  -0.56570  -0.56424  -0.56323
 Alpha  occ. eigenvalues --   -0.55805  -0.55761  -0.55607  -0.55507  -0.55087
 Alpha  occ. eigenvalues --   -0.54959  -0.54464  -0.54430  -0.54018  -0.53920
 Alpha  occ. eigenvalues --   -0.53861  -0.53394  -0.53130  -0.52735  -0.52591
 Alpha  occ. eigenvalues --   -0.52209  -0.51785  -0.51746  -0.51695  -0.51411
 Alpha  occ. eigenvalues --   -0.51336  -0.51141  -0.51039  -0.50998  -0.50836
 Alpha  occ. eigenvalues --   -0.50656  -0.50464  -0.50279  -0.50161  -0.49750
 Alpha  occ. eigenvalues --   -0.49618  -0.49424  -0.48727  -0.48702  -0.48528
 Alpha  occ. eigenvalues --   -0.48402  -0.48235  -0.47917  -0.47852  -0.47585
 Alpha  occ. eigenvalues --   -0.47380  -0.47265  -0.47046  -0.46962  -0.46730
 Alpha  occ. eigenvalues --   -0.46677  -0.46560  -0.46356  -0.46102  -0.45802
 Alpha  occ. eigenvalues --   -0.45441  -0.45422  -0.45366  -0.45231  -0.44932
 Alpha  occ. eigenvalues --   -0.44881  -0.44710  -0.44583  -0.44460  -0.44154
 Alpha  occ. eigenvalues --   -0.44038  -0.43727  -0.43578  -0.43380  -0.43093
 Alpha  occ. eigenvalues --   -0.43064  -0.42674  -0.42339  -0.42182  -0.42044
 Alpha  occ. eigenvalues --   -0.41568  -0.41041  -0.40988  -0.40724  -0.39945
 Alpha  occ. eigenvalues --   -0.39917  -0.39617  -0.39248  -0.39232  -0.39191
 Alpha  occ. eigenvalues --   -0.38974  -0.38891  -0.38680  -0.38282  -0.38069
 Alpha  occ. eigenvalues --   -0.38011  -0.36794  -0.36724  -0.36641  -0.36365
 Alpha  occ. eigenvalues --   -0.36157  -0.35904  -0.35418  -0.34432  -0.33640
 Alpha  occ. eigenvalues --   -0.33194  -0.33156  -0.32143  -0.31913  -0.26117
 Alpha  occ. eigenvalues --   -0.22953
 Alpha virt. eigenvalues --   -0.06993   0.00370   0.02055   0.03771   0.05730
 Alpha virt. eigenvalues --    0.06100   0.06943   0.07057   0.07991   0.09305
 Alpha virt. eigenvalues --    0.10355   0.11328   0.11712   0.12309   0.12354

 Mulliken charges:
               1
     1  Mg   0.963237
     2  C    0.036855
     3  C   -0.085255
     4  C   -0.048394
     5  C   -0.076948
     6  N   -0.365203
     7  C   -0.069388
     8  C   -0.001533
     9  C   -0.156935
    10  C    0.080392
    11  C   -0.008189
    12  C    0.047633
    13  C    0.007256
    14  C    0.221629
    15  O   -0.300272
    16  O   -0.350251
    17  N   -0.449358
    18  C    0.165527
    19  C   -0.175503
    20  C   -0.084879
    21  C    0.122571
    22  C    0.065085
    23  C    0.084496
    24  O   -0.226362
    25  C   -0.011965
    26  N   -0.391261
    27  C    0.085779
    28  C   -0.108438
    29  C   -0.043578
    30  C    0.067217
    31  C    0.004373
    32  C   -0.004482
    33  C   -0.069549
    34  N   -0.390758
    35  C    0.066602
    36  C   -0.179477
    37  C   -0.049749
    38  C    0.136701
    39  C    0.060140
    40  C    0.195276
    41  O   -0.211685
    42  C   -0.136702
    43  C    0.228913
    44  O   -0.235331
    45  O   -0.338023
    46  C    0.119744
    47  C    0.261567
    48  C   -0.171910
    49  C   -0.217546
    50  C    0.037898
    51  C    0.048021
    52  C    0.000959
    53  C   -0.038828
    54  C   -0.186688
    55  C    0.002286
    56  C    0.055820
    57  C   -0.022439
    58  C   -0.001896
    59  C   -0.201716
    60  C    0.019526
    61  C    0.012415
    62  C    0.003335
    63  C   -0.014239
    64  C   -0.209678
    65  C    0.016843
    66  C   -0.012907
    67  H   -0.001913
    68  H    0.014655
    69  H    0.003906
    70  H    0.049469
    71  H    0.049859
    72  H    0.044006
    73  H    0.047810
    74  H    0.030027
    75  H    0.036403
    76  H    0.035433
    77  H    0.088010
    78  H    0.049312
    79  H    0.032512
    80  H    0.064584
    81  H    0.052790
    82  H    0.064968
    83  H    0.056300
    84  H    0.060974
    85  H    0.045255
    86  H    0.032273
    87  H    0.037968
    88  H    0.042351
    89  H    0.037560
    90  H    0.038679
    91  H    0.028746
    92  H    0.032173
    93  H    0.044627
    94  H    0.057861
    95  H    0.058905
    96  H    0.034156
    97  H    0.047432
    98  H    0.053786
    99  H    0.062633
   100  H    0.047599
   101  H    0.053403
   102  H    0.034536
   103  H    0.072077
   104  H    0.024183
   105  H    0.054883
   106  H    0.046343
   107  H    0.029055
   108  H    0.006447
   109  H    0.041191
   110  H    0.028728
   111  H    0.024362
   112  H    0.015920
   113  H    0.013130
   114  H    0.018934
   115  H    0.027981
   116  H    0.020807
   117  H    0.028038
   118  H    0.010843
   119  H   -0.008410
   120  H    0.021758
   121  H    0.012072
   122  H    0.007821
   123  H    0.012773
   124  H    0.005801
   125  H    0.015683
   126  H    0.028865
   127  H    0.029714
   128  H    0.004308
   129  H    0.012477
   130  H    0.016975
   131  H    0.025925
   132  H    0.006503
   133  H    0.018718
   134  H    0.022755
   135  H    0.028246
   136  H    0.024515
   137  H    0.031135
   138  H    0.017961
   139  H    0.020359
   140  H    0.041293
 Sum of Mulliken charges =  -0.00000

 Dipole moment (field-independent basis, Debye):
    X=             -1.3462    Y=              3.9055    Z=             -2.0731  Tot=              4.6220
 Quadrupole moment (field-independent basis, Debye-Ang):
   XX=           -377.7781   YY=           -402.5382   ZZ=           -409.7440
   XY=             10.8542   XZ=              6.7561   YZ=             -1.0596

 Normal termination of Gaussian 16 at Wed May  4 21:13:21 2022.
