 Gaussian 16, Revision A.03,
 Gaussian 16:  ES64L-G16RevA.03 25-Dec-2016

 --------------------
 #p ZINDO=(nstates=5)
 --------------------

 -----------------------------
 step_451_chromophore_10 ZINDO
 -----------------------------
 Symbolic Z-matrix:
 Charge =  0 Multiplicity = 1

                         Standard orientation:
 ---------------------------------------------------------------------
 Center     Atomic      Atomic             Coordinates (Angstroms)
 Number     Number       Type             X           Y           Z
 ---------------------------------------------------------------------
      1         12           0        5.941304    0.451053    0.188801
      2          6           0        3.464334   -1.981829    0.255270
      3          6           0        3.401114    2.725544   -0.779264
      4          6           0        8.195970    2.656648   -0.430989
      5          6           0        8.344717   -2.074988    0.601222
      6          7           0        3.722676    0.337666   -0.242011
      7          6           0        2.880723   -0.781049   -0.029430
      8          6           0        1.393676   -0.426075   -0.266081
      9          6           0        1.436080    1.074515   -0.702365
     10          6           0        2.977710    1.416894   -0.667084
     11          6           0        0.823328    1.206338   -2.183730
     12          6           0        0.381789   -0.784038    0.867091
     13          6           0       -0.746329   -1.633306    0.476793
     14          6           0       -2.113113   -1.223700    1.004754
     15          8           0       -2.416185   -0.865501    2.176014
     16          8           0       -3.074530   -1.370067    0.019884
     17          7           0        5.750735    2.463890   -0.298425
     18          6           0        4.700561    3.281092   -0.672234
     19          6           0        5.218986    4.681362   -0.798226
     20          6           0        6.573106    4.662976   -0.506323
     21          6           0        6.868738    3.230000   -0.402464
     22          6           0        4.321965    5.889557   -1.129870
     23          6           0        7.575561    5.847793   -0.166036
     24          8           0        8.749305    5.696607    0.177145
     25          6           0        6.987018    7.219190   -0.069613
     26          7           0        8.011434    0.302758    0.084826
     27          6           0        8.714559    1.382633   -0.246213
     28          6           0       10.254311    1.045496   -0.284662
     29          6           0       10.281360   -0.417277    0.355021
     30          6           0        8.774733   -0.783149    0.420342
     31          6           0       10.780962    1.009011   -1.736896
     32          6           0       11.058831   -0.521127    1.639368
     33          6           0       10.227194   -0.475507    2.983055
     34          7           0        5.994122   -1.666527    0.415545
     35          6           0        7.024054   -2.485829    0.602432
     36          6           0        6.466378   -3.836676    0.789496
     37          6           0        5.082399   -3.698205    0.713487
     38          6           0        4.823493   -2.343863    0.416770
     39          6           0        7.345843   -5.021085    1.176817
     40          6           0        3.827804   -4.450885    0.718429
     41          8           0        3.541758   -5.650285    0.855626
     42          6           0        2.779049   -3.306718    0.395462
     43          6           0        2.065493   -3.612104   -0.893642
     44          8           0        2.572231   -3.504922   -1.992016
     45          8           0        0.882698   -4.228930   -0.616793
     46          6           0        0.180478   -4.785976   -1.717942
     47          6           0       -4.345116   -0.872793    0.516568
     48          6           0       -5.510419   -1.309636   -0.391184
     49          6           0       -5.948183   -2.508562   -0.784106
     50          6           0       -5.311525   -3.803001   -0.225399
     51          6           0       -7.043810   -2.660155   -1.837296
     52          6           0       -8.455117   -2.161487   -1.521090
     53          6           0       -8.774674   -0.813291   -2.148022
     54          6           0       -9.630995    0.177030   -1.328095
     55          6           0      -10.313409    1.194309   -2.233095
     56          6           0       -8.825194    0.931543   -0.213681
     57          6           0       -9.445464    0.776746    1.171079
     58          6           0       -9.791504    2.139479    1.840343
     59          6           0      -11.196036    2.652452    1.473990
     60          6           0      -11.126191    4.201824    1.293113
     61          6           0      -12.242914    2.268904    2.488863
     62          6           0      -13.615494    2.215480    1.863540
     63          6           0      -13.756508    0.776718    1.278827
     64          6           0      -14.499421    0.694227   -0.073555
     65          6           0      -15.967215    0.304347    0.048482
     66          6           0      -13.790862   -0.167248   -1.144835
     67          1           0        2.531500    3.331718   -1.044566
     68          1           0        8.932087    3.379014   -0.789959
     69          1           0        8.990641   -2.952749    0.548045
     70          1           0        1.312380   -1.072834   -1.139708
     71          1           0        0.816005    1.715345   -0.074283
     72          1           0        0.258554    0.310292   -2.443063
     73          1           0        1.620729    1.439714   -2.888836
     74          1           0        0.109773    2.014465   -2.343924
     75          1           0        0.107520    0.141182    1.373160
     76          1           0        0.891422   -1.271030    1.698962
     77          1           0       -0.519300   -2.662977    0.752888
     78          1           0       -0.877673   -1.600634   -0.604572
     79          1           0        3.372997    5.359545   -1.207684
     80          1           0        4.610593    6.389134   -2.054846
     81          1           0        4.253674    6.620628   -0.324037
     82          1           0        6.174758    7.013077    0.626722
     83          1           0        6.628637    7.595731   -1.027555
     84          1           0        7.742170    7.950774    0.217239
     85          1           0       10.818182    1.827980    0.222693
     86          1           0       10.639612   -1.143367   -0.374297
     87          1           0       11.703410    0.429188   -1.774034
     88          1           0       10.945992    2.016801   -2.118607
     89          1           0       10.111997    0.532274   -2.452530
     90          1           0       11.819793    0.256519    1.564736
     91          1           0       11.470068   -1.529279    1.673806
     92          1           0       10.318725    0.594209    3.170093
     93          1           0       10.616891   -1.007589    3.850718
     94          1           0        9.177774   -0.744152    2.857046
     95          1           0        7.891242   -4.912297    2.114292
     96          1           0        8.053845   -5.172708    0.362512
     97          1           0        6.834797   -5.983622    1.149261
     98          1           0        1.973391   -3.335635    1.128942
     99          1           0        0.695605   -4.636731   -2.666601
    100          1           0       -0.832536   -4.384513   -1.742921
    101          1           0        0.070625   -5.869717   -1.672860
    102          1           0       -4.255463    0.210283    0.435120
    103          1           0       -4.677671   -1.172252    1.510241
    104          1           0       -5.982983   -0.471461   -0.904226
    105          1           0       -5.300192   -3.801779    0.864783
    106          1           0       -4.274773   -3.810949   -0.561880
    107          1           0       -5.778550   -4.657388   -0.714892
    108          1           0       -7.204309   -3.715440   -2.054401
    109          1           0       -6.668079   -2.263993   -2.780825
    110          1           0       -8.610187   -2.145504   -0.441730
    111          1           0       -9.233013   -2.799923   -1.941513
    112          1           0       -9.297648   -1.058975   -3.073232
    113          1           0       -7.879705   -0.246189   -2.403972
    114          1           0      -10.441618   -0.485831   -1.027684
    115          1           0      -11.184260    0.779646   -2.740744
    116          1           0       -9.476984    1.464680   -2.877923
    117          1           0      -10.679052    2.073833   -1.703431
    118          1           0       -8.598709    1.980978   -0.406567
    119          1           0       -7.818577    0.514381   -0.180600
    120          1           0       -8.764189    0.344428    1.904112
    121          1           0      -10.333040    0.152105    1.076376
    122          1           0       -8.985675    2.782325    1.483786
    123          1           0       -9.795480    2.086371    2.929187
    124          1           0      -11.431237    2.176019    0.521297
    125          1           0      -10.110183    4.461935    0.995316
    126          1           0      -11.319264    4.745283    2.218128
    127          1           0      -11.787733    4.488992    0.476348
    128          1           0      -12.247802    3.009744    3.287650
    129          1           0      -11.956969    1.333768    2.971193
    130          1           0      -13.739098    2.892417    1.018472
    131          1           0      -14.323852    2.415365    2.666904
    132          1           0      -14.364052    0.298707    2.048734
    133          1           0      -12.852164    0.191648    1.442235
    134          1           0      -14.403542    1.678015   -0.534025
    135          1           0      -16.540814    1.230745    0.058480
    136          1           0      -16.126430   -0.201810    1.000552
    137          1           0      -16.357224   -0.342461   -0.737814
    138          1           0      -14.307983   -1.076278   -1.449098
    139          1           0      -12.883530   -0.543184   -0.670494
    140          1           0      -13.661428    0.416341   -2.057278
 ---------------------------------------------------------------------

 SCF Done:  E(RZINDO/S) =  -474.390814742     A.U. after   20 cycles

 Excitation energies and oscillator strengths:

 Excited State   1:      Singlet-A      1.2655 eV  979.75 nm  f=0.6185  <S**2>=0.000
     175 ->178         0.18649
     176 ->177         0.66522
 This state for optimization and/or second-order correction.
 Total Energy, E(CIS/TDA) =  -474.344309884
 Copying the excited state density for this state as the 1-particle RhoCI density.

 Excited State   2:      Singlet-A      1.9352 eV  640.67 nm  f=0.0244  <S**2>=0.000
     175 ->177         0.53434
     176 ->178        -0.43838

 Excited State   3:      Singlet-A      2.9573 eV  419.24 nm  f=0.1963  <S**2>=0.000
     175 ->177        -0.17740
     176 ->178        -0.25678
     176 ->179         0.55589
     176 ->180        -0.20654

 Excited State   4:      Singlet-A      3.0245 eV  409.93 nm  f=0.8652  <S**2>=0.000
     167 ->179        -0.11698
     167 ->180        -0.10465
     175 ->177         0.34819
     176 ->178         0.43348
     176 ->179         0.31970

 Excited State   5:      Singlet-A      3.0858 eV  401.79 nm  f=0.0959  <S**2>=0.000
     167 ->177         0.21503
     167 ->179        -0.35072
     167 ->180        -0.31006
     167 ->184        -0.11027
     167 ->185        -0.19151
     168 ->177        -0.11204
     168 ->179         0.15686
     168 ->180         0.14201
     171 ->177        -0.10261
     175 ->177        -0.11635
     176 ->178        -0.14178
     176 ->179        -0.10201

 The electronic state is 1-A.
 Alpha  occ. eigenvalues --   -1.84893  -1.80998  -1.79354  -1.74367  -1.73776
 Alpha  occ. eigenvalues --   -1.69694  -1.68445  -1.61982  -1.58616  -1.58147
 Alpha  occ. eigenvalues --   -1.54744  -1.51567  -1.48920  -1.48760  -1.46319
 Alpha  occ. eigenvalues --   -1.43914  -1.42789  -1.39847  -1.39572  -1.38489
 Alpha  occ. eigenvalues --   -1.35583  -1.33617  -1.32642  -1.32433  -1.29453
 Alpha  occ. eigenvalues --   -1.29124  -1.24694  -1.22919  -1.21789  -1.18744
 Alpha  occ. eigenvalues --   -1.17149  -1.15861  -1.15267  -1.12888  -1.12496
 Alpha  occ. eigenvalues --   -1.12418  -1.11862  -1.09881  -1.05048  -1.03696
 Alpha  occ. eigenvalues --   -1.02996  -1.01522  -0.98838  -0.97834  -0.97662
 Alpha  occ. eigenvalues --   -0.96734  -0.94621  -0.94274  -0.93379  -0.92727
 Alpha  occ. eigenvalues --   -0.91320  -0.89693  -0.88768  -0.88494  -0.88233
 Alpha  occ. eigenvalues --   -0.85625  -0.84538  -0.83386  -0.81191  -0.80755
 Alpha  occ. eigenvalues --   -0.79132  -0.77814  -0.77433  -0.77062  -0.76138
 Alpha  occ. eigenvalues --   -0.75842  -0.75075  -0.74475  -0.74378  -0.74001
 Alpha  occ. eigenvalues --   -0.73515  -0.72717  -0.72300  -0.72170  -0.70818
 Alpha  occ. eigenvalues --   -0.69960  -0.69395  -0.69026  -0.68792  -0.67876
 Alpha  occ. eigenvalues --   -0.67698  -0.66991  -0.66684  -0.66323  -0.65681
 Alpha  occ. eigenvalues --   -0.65130  -0.64945  -0.64466  -0.63710  -0.63670
 Alpha  occ. eigenvalues --   -0.62791  -0.62632  -0.62285  -0.62100  -0.61581
 Alpha  occ. eigenvalues --   -0.61374  -0.61332  -0.61150  -0.60762  -0.60696
 Alpha  occ. eigenvalues --   -0.60334  -0.59917  -0.59604  -0.59161  -0.58903
 Alpha  occ. eigenvalues --   -0.57896  -0.57558  -0.57419  -0.57168  -0.56967
 Alpha  occ. eigenvalues --   -0.56409  -0.55549  -0.54737  -0.54650  -0.54129
 Alpha  occ. eigenvalues --   -0.53878  -0.53768  -0.53522  -0.53301  -0.52676
 Alpha  occ. eigenvalues --   -0.52464  -0.52192  -0.51815  -0.51774  -0.51356
 Alpha  occ. eigenvalues --   -0.51314  -0.51143  -0.50974  -0.50555  -0.50159
 Alpha  occ. eigenvalues --   -0.49385  -0.49196  -0.49157  -0.48914  -0.48611
 Alpha  occ. eigenvalues --   -0.48564  -0.48490  -0.48033  -0.47512  -0.47277
 Alpha  occ. eigenvalues --   -0.47124  -0.46979  -0.46689  -0.46281  -0.45936
 Alpha  occ. eigenvalues --   -0.45720  -0.45539  -0.45386  -0.45083  -0.44995
 Alpha  occ. eigenvalues --   -0.44738  -0.44428  -0.44357  -0.44272  -0.43424
 Alpha  occ. eigenvalues --   -0.43278  -0.42806  -0.42519  -0.42308  -0.41958
 Alpha  occ. eigenvalues --   -0.41883  -0.41646  -0.41553  -0.39234  -0.38733
 Alpha  occ. eigenvalues --   -0.38182  -0.36852  -0.36403  -0.35225  -0.34720
 Alpha  occ. eigenvalues --   -0.34184  -0.32692  -0.32525  -0.32323  -0.26864
 Alpha  occ. eigenvalues --   -0.21566
 Alpha virt. eigenvalues --   -0.08342  -0.01906  -0.00618   0.00700   0.00759
 Alpha virt. eigenvalues --    0.02254   0.02622   0.02822   0.04492   0.05036
 Alpha virt. eigenvalues --    0.05609   0.06631   0.07234   0.07669   0.08071

 Mulliken charges:
               1
     1  Mg   0.429107
     2  C   -0.019786
     3  C   -0.070400
     4  C   -0.083192
     5  C   -0.065046
     6  N   -0.300573
     7  C    0.096850
     8  C   -0.000730
     9  C    0.000292
    10  C    0.138389
    11  C   -0.060745
    12  C   -0.014635
    13  C    0.019155
    14  C    0.461431
    15  O   -0.529132
    16  O   -0.255633
    17  N   -0.317625
    18  C    0.115375
    19  C    0.013709
    20  C   -0.036305
    21  C    0.156832
    22  C   -0.050220
    23  C    0.333213
    24  O   -0.509642
    25  C   -0.028488
    26  N   -0.267043
    27  C    0.153652
    28  C    0.001151
    29  C    0.002038
    30  C    0.114909
    31  C   -0.048679
    32  C   -0.024692
    33  C   -0.065712
    34  N   -0.306678
    35  C    0.091643
    36  C    0.012765
    37  C   -0.045580
    38  C    0.095127
    39  C   -0.043284
    40  C    0.335598
    41  O   -0.518605
    42  C    0.049922
    43  C    0.485334
    44  O   -0.523947
    45  O   -0.262507
    46  C    0.074236
    47  C    0.108407
    48  C   -0.099629
    49  C   -0.000352
    50  C   -0.048216
    51  C   -0.014723
    52  C   -0.024680
    53  C   -0.034618
    54  C   -0.014615
    55  C   -0.062115
    56  C   -0.028870
    57  C   -0.038924
    58  C   -0.043404
    59  C   -0.011644
    60  C   -0.061203
    61  C   -0.023398
    62  C   -0.036367
    63  C   -0.043322
    64  C   -0.006980
    65  C   -0.051916
    66  C   -0.063473
    67  H    0.019646
    68  H    0.030467
    69  H    0.032161
    70  H    0.044085
    71  H    0.038215
    72  H    0.024395
    73  H    0.026128
    74  H    0.015015
    75  H    0.029643
    76  H    0.020525
    77  H    0.057339
    78  H    0.031233
    79  H    0.024686
    80  H    0.037698
    81  H    0.034586
    82  H    0.048096
    83  H    0.035548
    84  H    0.042320
    85  H    0.040201
    86  H    0.028113
    87  H    0.017053
    88  H    0.019174
    89  H    0.021990
    90  H    0.028457
    91  H    0.013892
    92  H    0.014235
    93  H    0.025283
    94  H    0.032475
    95  H    0.033716
    96  H    0.021199
    97  H    0.027260
    98  H    0.044143
    99  H    0.049853
   100  H    0.027814
   101  H    0.037118
   102  H    0.037829
   103  H    0.063612
   104  H    0.017372
   105  H    0.037376
   106  H    0.025138
   107  H    0.023342
   108  H    0.008658
   109  H    0.026441
   110  H    0.021199
   111  H    0.016521
   112  H    0.011535
   113  H    0.015201
   114  H    0.020077
   115  H    0.018084
   116  H    0.020609
   117  H    0.015797
   118  H    0.025868
   119  H    0.012176
   120  H    0.014788
   121  H    0.021018
   122  H    0.019264
   123  H    0.016290
   124  H    0.020709
   125  H    0.012609
   126  H    0.024750
   127  H    0.017205
   128  H    0.006882
   129  H    0.017333
   130  H    0.026326
   131  H    0.019199
   132  H    0.004217
   133  H    0.031214
   134  H    0.016635
   135  H    0.013636
   136  H    0.019035
   137  H    0.021557
   138  H    0.014330
   139  H    0.018355
   140  H    0.022245
 Sum of Mulliken charges =  -0.00000

 Dipole moment (field-independent basis, Debye):
    X=             -1.9245    Y=              6.7708    Z=             -3.3609  Tot=              7.8002
 N-N= 4.322807336667D+03 E-N= 0.000000000000D+00  KE=-9.319994312070D+03
 Leave Link  601 at Wed May  4 21:25:00 2022, MaxMem=  6710886400 cpu:               0.8 elap:               0.1
 (Enter /sw/apps/gaussian-16.0/g16/l9999.exe)
 1\1\GINC-BP1-COMPUTE100\SP\RZINDO CIS\STO-3G\C55H74Mg1N4O6\OF15641\04-
 May-2022\0\\#p ZINDO=(nstates=5)\\step_451_chromophore_10 ZINDO\\0,1\M
 g,0,41.103,8.172,29.491\C,0,42.846,9.559,32.155\C,0,38.734,7.059,31.88
 1\C,0,39.687,6.398,27.215\C,0,43.84,8.886,27.411\N,0,40.876,8.278,31.7
 4\C,0,41.686,9.021,32.633\C,0,41.116,8.997,34.071\C,0,39.849,8.089,33.
 952\C,0,39.837,7.685,32.425\C,0,40.029,6.811,34.912\C,0,40.913,10.37,3
 4.785\C,0,41.587,10.529,36.076\C,0,40.769,11.165,37.19\O,0,40.032,12.1

 Normal termination of Gaussian 16 at Wed May  4 21:25:00 2022.
