 Gaussian 16, Revision A.03,
 Gaussian 16:  ES64L-G16RevA.03 25-Dec-2016

 ------------------------------
 #p blyp/Def2SVP td=(nstates=5)
 ------------------------------

 --------------------------------------------------
 step_1551_chromophore_4 TDDFT with blyp functional
 --------------------------------------------------
 Symbolic Z-matrix:
 Charge =  0 Multiplicity = 1

                         Standard orientation:
 ---------------------------------------------------------------------
 Center     Atomic      Atomic             Coordinates (Angstroms)
 Number     Number       Type             X           Y           Z
 ---------------------------------------------------------------------
      1         12           0        6.104355    0.494691    0.310547
      2          6           0        3.827532   -2.007890    0.272103
      3          6           0        3.576609    2.742022   -0.455295
      4          6           0        8.415943    2.970378   -0.110136
      5          6           0        8.722022   -1.933627    0.850265
      6          7           0        3.981670    0.359917   -0.240502
      7          6           0        3.207650   -0.781781   -0.044674
      8          6           0        1.706502   -0.513369   -0.146527
      9          6           0        1.718230    1.024726   -0.667821
     10          6           0        3.172348    1.447265   -0.437693
     11          6           0        1.158167    1.320182   -2.112599
     12          6           0        0.883168   -0.726147    1.101404
     13          6           0       -0.282235   -1.719096    0.940685
     14          6           0       -1.226576   -1.422247   -0.314214
     15          8           0       -0.968128   -1.485894   -1.482329
     16          8           0       -2.462490   -1.141778    0.211327
     17          7           0        6.035332    2.566022   -0.128505
     18          6           0        4.889258    3.288611   -0.390852
     19          6           0        5.260776    4.675954   -0.621719
     20          6           0        6.667639    4.739200   -0.503285
     21          6           0        7.077477    3.405350   -0.228192
     22          6           0        4.284852    5.768038   -0.861090
     23          6           0        7.582154    5.947618   -0.486142
     24          8           0        8.821879    5.942039   -0.457782
     25          6           0        7.021815    7.265860   -0.669415
     26          7           0        8.260853    0.475073    0.393221
     27          6           0        8.969865    1.649146    0.066902
     28          6           0       10.536342    1.293129    0.047135
     29          6           0       10.667365   -0.178741    0.594554
     30          6           0        9.170597   -0.539925    0.622843
     31          6           0       11.102622    1.450571   -1.365495
     32          6           0       11.459328   -0.218973    1.901026
     33          6           0       11.975877   -1.605676    2.292914
     34          7           0        6.312528   -1.532613    0.485345
     35          6           0        7.413585   -2.334220    0.696717
     36          6           0        6.932766   -3.698488    0.742571
     37          6           0        5.592365   -3.546969    0.629642
     38          6           0        5.214787   -2.225441    0.440325
     39          6           0        7.723813   -4.963341    1.018996
     40          6           0        4.329757   -4.417396    0.573726
     41          8           0        4.054344   -5.623328    0.734316
     42          6           0        3.218762   -3.343050    0.437937
     43          6           0        2.407808   -3.648666   -0.790270
     44          8           0        2.817928   -3.337162   -1.913972
     45          8           0        1.273533   -4.401311   -0.673734
     46          6           0        0.443308   -4.701282   -1.847925
     47          6           0       -3.486429   -1.071145   -0.875454
     48          6           0       -4.782821   -1.265728   -0.316785
     49          6           0       -5.553082   -2.339940   -0.250373
     50          6           0       -5.234515   -3.753747   -0.757983
     51          6           0       -6.867009   -2.150838    0.284284
     52          6           0       -7.703288   -1.146591   -0.586120
     53          6           0       -8.260904    0.080105    0.157503
     54          6           0       -9.797255    0.341526   -0.238040
     55          6           0      -10.029249    0.933094   -1.715018
     56          6           0      -10.361443    1.342075    0.833468
     57          6           0      -11.754191    1.126357    1.492946
     58          6           0      -12.494873    2.476068    1.620375
     59          6           0      -13.834518    2.331113    2.289737
     60          6           0      -14.060448    3.119894    3.633169
     61          6           0      -14.946705    2.577967    1.269261
     62          6           0      -15.682015    1.254512    0.782665
     63          6           0      -15.376876    0.948437   -0.717565
     64          6           0      -14.884684   -0.482677   -0.950836
     65          6           0      -13.794926   -0.380727   -2.052717
     66          6           0      -16.053073   -1.421891   -1.375308
     67          1           0        2.810628    3.489940   -0.667917
     68          1           0        9.273838    3.642247   -0.173397
     69          1           0        9.405751   -2.775334    0.973919
     70          1           0        1.432892   -1.122688   -1.007659
     71          1           0        1.137271    1.576996    0.069611
     72          1           0        0.207476    1.850654   -2.063707
     73          1           0        0.978997    0.330609   -2.532849
     74          1           0        1.844411    1.808635   -2.803923
     75          1           0        0.414511    0.168955    1.511207
     76          1           0        1.554826   -1.129313    1.859085
     77          1           0       -0.857990   -1.621812    1.860802
     78          1           0        0.091520   -2.737151    1.049509
     79          1           0        4.405498    6.484570   -0.048705
     80          1           0        3.256471    5.412345   -0.808465
     81          1           0        4.435066    6.274237   -1.814341
     82          1           0        6.601255    7.650353    0.260207
     83          1           0        6.314343    7.326207   -1.496238
     84          1           0        7.862896    7.864983   -1.017931
     85          1           0       11.206376    1.964430    0.584878
     86          1           0       11.137744   -0.842366   -0.131555
     87          1           0       10.446993    2.000884   -2.039271
     88          1           0       11.259925    0.486265   -1.848751
     89          1           0       12.106472    1.868830   -1.292324
     90          1           0       10.876448    0.217536    2.711668
     91          1           0       12.256752    0.512808    1.774403
     92          1           0       11.266334   -2.328883    1.891458
     93          1           0       11.961497   -1.736415    3.374573
     94          1           0       12.937728   -1.687708    1.786370
     95          1           0        7.271493   -5.422043    1.898266
     96          1           0        8.741423   -4.778490    1.362992
     97          1           0        7.826533   -5.526632    0.092154
     98          1           0        2.478144   -3.416883    1.234663
     99          1           0       -0.329925   -5.461500   -1.730638
    100          1           0        0.937108   -4.885487   -2.801748
    101          1           0       -0.042651   -3.745802   -2.044132
    102          1           0       -3.348890   -1.714765   -1.744600
    103          1           0       -3.545845   -0.058921   -1.275344
    104          1           0       -5.262639   -0.295356   -0.184677
    105          1           0       -5.182173   -4.363764    0.143870
    106          1           0       -4.278006   -3.817112   -1.277604
    107          1           0       -5.966647   -4.023465   -1.518860
    108          1           0       -6.893979   -1.708590    1.280701
    109          1           0       -7.582192   -2.973441    0.294916
    110          1           0       -8.507308   -1.668514   -1.104265
    111          1           0       -7.095989   -0.779480   -1.413058
    112          1           0       -7.632080    0.944446   -0.054827
    113          1           0       -8.226428   -0.152156    1.222327
    114          1           0      -10.311649   -0.618254   -0.175665
    115          1           0      -10.792925    1.710504   -1.693155
    116          1           0      -10.437637    0.091350   -2.273522
    117          1           0       -9.064930    1.171030   -2.164076
    118          1           0      -10.414225    2.278260    0.277811
    119          1           0       -9.711613    1.593451    1.672293
    120          1           0      -11.409910    0.717414    2.443118
    121          1           0      -12.386509    0.499431    0.863348
    122          1           0      -12.701997    2.827695    0.609126
    123          1           0      -11.786662    3.105577    2.158111
    124          1           0      -13.831279    1.291126    2.615134
    125          1           0      -15.031972    3.611522    3.686205
    126          1           0      -13.236301    3.824653    3.747651
    127          1           0      -14.058820    2.511072    4.537409
    128          1           0      -14.580380    3.104697    0.387338
    129          1           0      -15.722805    3.292592    1.544123
    130          1           0      -16.697605    1.509443    1.086145
    131          1           0      -15.410185    0.429114    1.440327
    132          1           0      -14.711373    1.672603   -1.187352
    133          1           0      -16.312521    1.198560   -1.218034
    134          1           0      -14.510838   -0.982476   -0.056488
    135          1           0      -14.219731   -0.345397   -3.055512
    136          1           0      -13.350529   -1.375286   -2.098278
    137          1           0      -13.018162    0.362141   -1.871816
    138          1           0      -16.306397   -2.279367   -0.752921
    139          1           0      -15.803973   -1.878447   -2.332708
    140          1           0      -17.030258   -0.938009   -1.387149
 ---------------------------------------------------------------------

 SCF Done:  E(RB-LYP) =  -3007.33003546     A.U. after   21 cycles

 Excitation energies and oscillator strengths:

 Excited State   1:      Singlet-A      1.8070 eV  686.13 nm  f=0.2953  <S**2>=0.000
     245 -> 248       -0.17668
     246 -> 247        0.68723
     246 <- 247       -0.14532
 This state for optimization and/or second-order correction.
 Total Energy, E(TD-HF/TD-DFT) =  -3007.26362895
 Copying the excited state density for this state as the 1-particle RhoCI density.

 Excited State   2:      Singlet-A      1.8814 eV  659.00 nm  f=0.0020  <S**2>=0.000
     244 -> 247        0.70456

 Excited State   3:      Singlet-A      2.0400 eV  607.76 nm  f=0.0714  <S**2>=0.000
     243 -> 247        0.15953
     245 -> 247        0.62970
     246 -> 248        0.24313

 Excited State   4:      Singlet-A      2.1407 eV  579.18 nm  f=0.0032  <S**2>=0.000
     243 -> 247        0.68735
     245 -> 247       -0.13589

 Excited State   5:      Singlet-A      2.5180 eV  492.40 nm  f=0.0031  <S**2>=0.000
     241 -> 247        0.18036
     242 -> 247        0.68176

 The electronic state is 1-A.
 Alpha  occ. eigenvalues --  -46.26751 -18.82874 -18.81668 -18.78621 -18.76269
 Alpha  occ. eigenvalues --  -18.75036 -18.74725 -14.03294 -14.02857 -14.00724
 Alpha  occ. eigenvalues --  -14.00143 -10.05111 -10.03191 -10.00277  -9.98947
 Alpha  occ. eigenvalues --   -9.97242  -9.97034  -9.96959  -9.96574  -9.96553
 Alpha  occ. eigenvalues --   -9.95557  -9.95138  -9.94835  -9.94807  -9.94003
 Alpha  occ. eigenvalues --   -9.93823  -9.93709  -9.93624  -9.93607  -9.93512
 Alpha  occ. eigenvalues --   -9.93476  -9.93441  -9.93281  -9.93244  -9.93186
 Alpha  occ. eigenvalues --   -9.93176  -9.93022  -9.92893  -9.92687  -9.92626
 Alpha  occ. eigenvalues --   -9.92546  -9.92491  -9.92346  -9.92089  -9.92046
 Alpha  occ. eigenvalues --   -9.91994  -9.91962  -9.91887  -9.91805  -9.91788
 Alpha  occ. eigenvalues --   -9.91726  -9.91628  -9.91333  -9.91299  -9.91288
 Alpha  occ. eigenvalues --   -9.91200  -9.91127  -9.91080  -9.90951  -9.90803
 Alpha  occ. eigenvalues --   -9.90787  -9.90783  -9.90752  -9.90698  -9.90668
 Alpha  occ. eigenvalues --   -9.90655  -2.91354  -1.71790  -1.71245  -1.71047
 Alpha  occ. eigenvalues --   -0.99079  -0.96770  -0.91620  -0.90345  -0.90200
 Alpha  occ. eigenvalues --   -0.87968  -0.87334  -0.85699  -0.84528  -0.83568
 Alpha  occ. eigenvalues --   -0.75605  -0.75375  -0.73203  -0.72691  -0.72195
 Alpha  occ. eigenvalues --   -0.71801  -0.71259  -0.70990  -0.70562  -0.70153
 Alpha  occ. eigenvalues --   -0.69635  -0.69165  -0.67902  -0.67333  -0.67160
 Alpha  occ. eigenvalues --   -0.66370  -0.65588  -0.65437  -0.64708  -0.64255
 Alpha  occ. eigenvalues --   -0.64128  -0.62585  -0.62115  -0.61605  -0.61147
 Alpha  occ. eigenvalues --   -0.60686  -0.60421  -0.59685  -0.59605  -0.58905
 Alpha  occ. eigenvalues --   -0.58149  -0.57501  -0.56278  -0.55547  -0.54340
 Alpha  occ. eigenvalues --   -0.54170  -0.53169  -0.52314  -0.52144  -0.51025
 Alpha  occ. eigenvalues --   -0.50855  -0.50734  -0.50536  -0.50424  -0.50295
 Alpha  occ. eigenvalues --   -0.49891  -0.49619  -0.48903  -0.48272  -0.47124
 Alpha  occ. eigenvalues --   -0.46403  -0.45966  -0.45533  -0.45050  -0.44540
 Alpha  occ. eigenvalues --   -0.44326  -0.43701  -0.43120  -0.42909  -0.42733
 Alpha  occ. eigenvalues --   -0.42255  -0.41759  -0.41626  -0.41390  -0.40810
 Alpha  occ. eigenvalues --   -0.40658  -0.40388  -0.40056  -0.40014  -0.39894
 Alpha  occ. eigenvalues --   -0.39625  -0.39530  -0.39390  -0.39315  -0.39089
 Alpha  occ. eigenvalues --   -0.39029  -0.38817  -0.38723  -0.38467  -0.38381
 Alpha  occ. eigenvalues --   -0.38182  -0.37839  -0.37801  -0.37666  -0.37521
 Alpha  occ. eigenvalues --   -0.36989  -0.36620  -0.36581  -0.36370  -0.36234
 Alpha  occ. eigenvalues --   -0.35908  -0.35791  -0.35746  -0.35637  -0.35382
 Alpha  occ. eigenvalues --   -0.35257  -0.35185  -0.34999  -0.34900  -0.34623
 Alpha  occ. eigenvalues --   -0.34421  -0.34329  -0.34247  -0.33960  -0.33681
 Alpha  occ. eigenvalues --   -0.33576  -0.33165  -0.33000  -0.32871  -0.32819
 Alpha  occ. eigenvalues --   -0.32635  -0.32536  -0.32396  -0.32343  -0.32185
 Alpha  occ. eigenvalues --   -0.31921  -0.31818  -0.31651  -0.31347  -0.31332
 Alpha  occ. eigenvalues --   -0.31081  -0.31003  -0.30860  -0.30652  -0.30434
 Alpha  occ. eigenvalues --   -0.30172  -0.29826  -0.29731  -0.29712  -0.29621
 Alpha  occ. eigenvalues --   -0.29418  -0.29331  -0.29114  -0.28878  -0.28772
 Alpha  occ. eigenvalues --   -0.28751  -0.28516  -0.28352  -0.28010  -0.27473
 Alpha  occ. eigenvalues --   -0.27392  -0.27339  -0.27072  -0.27016  -0.26583
 Alpha  occ. eigenvalues --   -0.26146  -0.26084  -0.25980  -0.25904  -0.25264
 Alpha  occ. eigenvalues --   -0.25226  -0.24361  -0.23812  -0.23666  -0.23400
 Alpha  occ. eigenvalues --   -0.23286  -0.22837  -0.21634  -0.20901  -0.20554
 Alpha  occ. eigenvalues --   -0.20339  -0.20252  -0.18804  -0.17911  -0.16901
 Alpha  occ. eigenvalues --   -0.15393
 Alpha virt. eigenvalues --   -0.11070  -0.06732  -0.05771  -0.04611  -0.03926
 Alpha virt. eigenvalues --   -0.03172  -0.02230  -0.01857  -0.00878   0.00173
 Alpha virt. eigenvalues --    0.01363   0.01705   0.02060   0.02406   0.03014

 Mulliken charges:
               1
     1  Mg   0.694565
     2  C    0.032310
     3  C   -0.068138
     4  C   -0.037495
     5  C   -0.074305
     6  N   -0.238411
     7  C   -0.084428
     8  C    0.018084
     9  C   -0.015497
    10  C    0.037150
    11  C    0.138273
    12  C    0.133834
    13  C    0.081872
    14  C    0.128030
    15  O   -0.167972
    16  O   -0.261447
    17  N   -0.249320
    18  C    0.115116
    19  C   -0.144820
    20  C    0.056021
    21  C    0.105642
    22  C    0.179582
    23  C   -0.080312
    24  O   -0.182812
    25  C    0.142634
    26  N   -0.232906
    27  C    0.028644
    28  C   -0.032736
    29  C    0.046512
    30  C    0.016152
    31  C    0.115531
    32  C    0.085518
    33  C    0.106808
    34  N   -0.244753
    35  C    0.096606
    36  C   -0.205422
    37  C    0.047479
    38  C    0.093095
    39  C    0.186532
    40  C    0.040487
    41  O   -0.144340
    42  C    0.090169
    43  C    0.069325
    44  O   -0.215376
    45  O   -0.260484
    46  C    0.220805
    47  C    0.327556
    48  C   -0.134554
    49  C   -0.113932
    50  C    0.157651
    51  C    0.168558
    52  C    0.018838
    53  C    0.069140
    54  C   -0.084478
    55  C    0.101301
    56  C    0.073682
    57  C    0.051297
    58  C    0.090674
    59  C   -0.023808
    60  C    0.102297
    61  C    0.073922
    62  C    0.059985
    63  C    0.127690
    64  C   -0.082027
    65  C    0.085470
    66  C    0.093201
    67  H   -0.079107
    68  H   -0.041830
    69  H   -0.057868
    70  H    0.026320
    71  H   -0.036425
    72  H   -0.008895
    73  H    0.002106
    74  H   -0.002711
    75  H   -0.010891
    76  H   -0.022530
    77  H   -0.022246
    78  H    0.013095
    79  H   -0.000103
    80  H   -0.025039
    81  H    0.011357
    82  H    0.013833
    83  H   -0.010277
    84  H   -0.011504
    85  H   -0.021668
    86  H   -0.028508
    87  H    0.001718
    88  H   -0.026510
    89  H   -0.012592
    90  H   -0.029471
    91  H   -0.025877
    92  H   -0.022081
    93  H   -0.003201
    94  H   -0.000430
    95  H    0.016937
    96  H   -0.033995
    97  H    0.018317
    98  H   -0.020746
    99  H    0.016327
   100  H    0.011751
   101  H    0.004309
   102  H   -0.002089
   103  H   -0.025025
   104  H   -0.038011
   105  H    0.014840
   106  H   -0.021977
   107  H    0.006287
   108  H   -0.013095
   109  H   -0.038766
   110  H   -0.035041
   111  H   -0.030938
   112  H   -0.014683
   113  H   -0.025507
   114  H   -0.030540
   115  H    0.012219
   116  H   -0.010293
   117  H   -0.008952
   118  H   -0.049194
   119  H   -0.039378
   120  H   -0.019748
   121  H   -0.018935
   122  H   -0.032017
   123  H   -0.037479
   124  H   -0.031922
   125  H   -0.019591
   126  H   -0.022217
   127  H   -0.022214
   128  H   -0.045580
   129  H   -0.047936
   130  H   -0.031766
   131  H   -0.030972
   132  H   -0.037620
   133  H   -0.034948
   134  H   -0.013226
   135  H   -0.014596
   136  H   -0.032971
   137  H    0.003067
   138  H   -0.026982
   139  H   -0.024462
   140  H   -0.017576
 Sum of Mulliken charges =  -0.00000

 Dipole moment (field-independent basis, Debye):
    X=             -5.2015    Y=              1.2891    Z=              1.6312  Tot=              5.6016
 Quadrupole moment (field-independent basis, Debye-Ang):
   XX=           -376.2360   YY=           -427.4936   ZZ=           -405.9265
   XY=             -4.6970   XZ=             16.9327   YZ=             -0.6694

 Normal termination of Gaussian 16 at Wed May  4 10:23:33 2022.
