 Gaussian 16, Revision A.03,
 Gaussian 16:  ES64L-G16RevA.03 25-Dec-2016

 -----------------------------------
 #p cam-b3lyp/Def2SVP td=(nstates=5)
 -----------------------------------

 -------------------------------------------------------
 step_1551_chromophore_4 TDDFT with cam-b3lyp functional
 -------------------------------------------------------
 Symbolic Z-matrix:
 Charge =  0 Multiplicity = 1

                         Standard orientation:
 ---------------------------------------------------------------------
 Center     Atomic      Atomic             Coordinates (Angstroms)
 Number     Number       Type             X           Y           Z
 ---------------------------------------------------------------------
      1         12           0        6.104355    0.494691    0.310547
      2          6           0        3.827532   -2.007890    0.272103
      3          6           0        3.576609    2.742022   -0.455295
      4          6           0        8.415943    2.970378   -0.110136
      5          6           0        8.722022   -1.933627    0.850265
      6          7           0        3.981670    0.359917   -0.240502
      7          6           0        3.207650   -0.781781   -0.044674
      8          6           0        1.706502   -0.513369   -0.146527
      9          6           0        1.718230    1.024726   -0.667821
     10          6           0        3.172348    1.447265   -0.437693
     11          6           0        1.158167    1.320182   -2.112599
     12          6           0        0.883168   -0.726147    1.101404
     13          6           0       -0.282235   -1.719096    0.940685
     14          6           0       -1.226576   -1.422247   -0.314214
     15          8           0       -0.968128   -1.485894   -1.482329
     16          8           0       -2.462490   -1.141778    0.211327
     17          7           0        6.035332    2.566022   -0.128505
     18          6           0        4.889258    3.288611   -0.390852
     19          6           0        5.260776    4.675954   -0.621719
     20          6           0        6.667639    4.739200   -0.503285
     21          6           0        7.077477    3.405350   -0.228192
     22          6           0        4.284852    5.768038   -0.861090
     23          6           0        7.582154    5.947618   -0.486142
     24          8           0        8.821879    5.942039   -0.457782
     25          6           0        7.021815    7.265860   -0.669415
     26          7           0        8.260853    0.475073    0.393221
     27          6           0        8.969865    1.649146    0.066902
     28          6           0       10.536342    1.293129    0.047135
     29          6           0       10.667365   -0.178741    0.594554
     30          6           0        9.170597   -0.539925    0.622843
     31          6           0       11.102622    1.450571   -1.365495
     32          6           0       11.459328   -0.218973    1.901026
     33          6           0       11.975877   -1.605676    2.292914
     34          7           0        6.312528   -1.532613    0.485345
     35          6           0        7.413585   -2.334220    0.696717
     36          6           0        6.932766   -3.698488    0.742571
     37          6           0        5.592365   -3.546969    0.629642
     38          6           0        5.214787   -2.225441    0.440325
     39          6           0        7.723813   -4.963341    1.018996
     40          6           0        4.329757   -4.417396    0.573726
     41          8           0        4.054344   -5.623328    0.734316
     42          6           0        3.218762   -3.343050    0.437937
     43          6           0        2.407808   -3.648666   -0.790270
     44          8           0        2.817928   -3.337162   -1.913972
     45          8           0        1.273533   -4.401311   -0.673734
     46          6           0        0.443308   -4.701282   -1.847925
     47          6           0       -3.486429   -1.071145   -0.875454
     48          6           0       -4.782821   -1.265728   -0.316785
     49          6           0       -5.553082   -2.339940   -0.250373
     50          6           0       -5.234515   -3.753747   -0.757983
     51          6           0       -6.867009   -2.150838    0.284284
     52          6           0       -7.703288   -1.146591   -0.586120
     53          6           0       -8.260904    0.080105    0.157503
     54          6           0       -9.797255    0.341526   -0.238040
     55          6           0      -10.029249    0.933094   -1.715018
     56          6           0      -10.361443    1.342075    0.833468
     57          6           0      -11.754191    1.126357    1.492946
     58          6           0      -12.494873    2.476068    1.620375
     59          6           0      -13.834518    2.331113    2.289737
     60          6           0      -14.060448    3.119894    3.633169
     61          6           0      -14.946705    2.577967    1.269261
     62          6           0      -15.682015    1.254512    0.782665
     63          6           0      -15.376876    0.948437   -0.717565
     64          6           0      -14.884684   -0.482677   -0.950836
     65          6           0      -13.794926   -0.380727   -2.052717
     66          6           0      -16.053073   -1.421891   -1.375308
     67          1           0        2.810628    3.489940   -0.667917
     68          1           0        9.273838    3.642247   -0.173397
     69          1           0        9.405751   -2.775334    0.973919
     70          1           0        1.432892   -1.122688   -1.007659
     71          1           0        1.137271    1.576996    0.069611
     72          1           0        0.207476    1.850654   -2.063707
     73          1           0        0.978997    0.330609   -2.532849
     74          1           0        1.844411    1.808635   -2.803923
     75          1           0        0.414511    0.168955    1.511207
     76          1           0        1.554826   -1.129313    1.859085
     77          1           0       -0.857990   -1.621812    1.860802
     78          1           0        0.091520   -2.737151    1.049509
     79          1           0        4.405498    6.484570   -0.048705
     80          1           0        3.256471    5.412345   -0.808465
     81          1           0        4.435066    6.274237   -1.814341
     82          1           0        6.601255    7.650353    0.260207
     83          1           0        6.314343    7.326207   -1.496238
     84          1           0        7.862896    7.864983   -1.017931
     85          1           0       11.206376    1.964430    0.584878
     86          1           0       11.137744   -0.842366   -0.131555
     87          1           0       10.446993    2.000884   -2.039271
     88          1           0       11.259925    0.486265   -1.848751
     89          1           0       12.106472    1.868830   -1.292324
     90          1           0       10.876448    0.217536    2.711668
     91          1           0       12.256752    0.512808    1.774403
     92          1           0       11.266334   -2.328883    1.891458
     93          1           0       11.961497   -1.736415    3.374573
     94          1           0       12.937728   -1.687708    1.786370
     95          1           0        7.271493   -5.422043    1.898266
     96          1           0        8.741423   -4.778490    1.362992
     97          1           0        7.826533   -5.526632    0.092154
     98          1           0        2.478144   -3.416883    1.234663
     99          1           0       -0.329925   -5.461500   -1.730638
    100          1           0        0.937108   -4.885487   -2.801748
    101          1           0       -0.042651   -3.745802   -2.044132
    102          1           0       -3.348890   -1.714765   -1.744600
    103          1           0       -3.545845   -0.058921   -1.275344
    104          1           0       -5.262639   -0.295356   -0.184677
    105          1           0       -5.182173   -4.363764    0.143870
    106          1           0       -4.278006   -3.817112   -1.277604
    107          1           0       -5.966647   -4.023465   -1.518860
    108          1           0       -6.893979   -1.708590    1.280701
    109          1           0       -7.582192   -2.973441    0.294916
    110          1           0       -8.507308   -1.668514   -1.104265
    111          1           0       -7.095989   -0.779480   -1.413058
    112          1           0       -7.632080    0.944446   -0.054827
    113          1           0       -8.226428   -0.152156    1.222327
    114          1           0      -10.311649   -0.618254   -0.175665
    115          1           0      -10.792925    1.710504   -1.693155
    116          1           0      -10.437637    0.091350   -2.273522
    117          1           0       -9.064930    1.171030   -2.164076
    118          1           0      -10.414225    2.278260    0.277811
    119          1           0       -9.711613    1.593451    1.672293
    120          1           0      -11.409910    0.717414    2.443118
    121          1           0      -12.386509    0.499431    0.863348
    122          1           0      -12.701997    2.827695    0.609126
    123          1           0      -11.786662    3.105577    2.158111
    124          1           0      -13.831279    1.291126    2.615134
    125          1           0      -15.031972    3.611522    3.686205
    126          1           0      -13.236301    3.824653    3.747651
    127          1           0      -14.058820    2.511072    4.537409
    128          1           0      -14.580380    3.104697    0.387338
    129          1           0      -15.722805    3.292592    1.544123
    130          1           0      -16.697605    1.509443    1.086145
    131          1           0      -15.410185    0.429114    1.440327
    132          1           0      -14.711373    1.672603   -1.187352
    133          1           0      -16.312521    1.198560   -1.218034
    134          1           0      -14.510838   -0.982476   -0.056488
    135          1           0      -14.219731   -0.345397   -3.055512
    136          1           0      -13.350529   -1.375286   -2.098278
    137          1           0      -13.018162    0.362141   -1.871816
    138          1           0      -16.306397   -2.279367   -0.752921
    139          1           0      -15.803973   -1.878447   -2.332708
    140          1           0      -17.030258   -0.938009   -1.387149
 ---------------------------------------------------------------------

 SCF Done:  E(RCAM-B3LYP) =  -3007.12605382     A.U. after   19 cycles

 Excitation energies and oscillator strengths:

 Excited State   1:      Singlet-A      1.7118 eV  724.31 nm  f=0.3713  <S**2>=0.000
     245 -> 248        0.17320
     246 -> 247        0.68513
     245 <- 248        0.10498
 This state for optimization and/or second-order correction.
 Total Energy, E(TD-HF/TD-DFT) =  -3007.06314806
 Copying the excited state density for this state as the 1-particle RhoCI density.

 Excited State   2:      Singlet-A      2.2588 eV  548.89 nm  f=0.0954  <S**2>=0.000
     245 -> 247        0.62884
     246 -> 248       -0.30934

 Excited State   3:      Singlet-A      3.5092 eV  353.31 nm  f=0.5776  <S**2>=0.000
     239 -> 247        0.14319
     241 -> 247        0.17005
     244 -> 247        0.14134
     245 -> 247        0.26396
     246 -> 248        0.56549

 Excited State   4:      Singlet-A      3.5287 eV  351.36 nm  f=0.0112  <S**2>=0.000
     239 -> 247       -0.27029
     239 -> 249       -0.17932
     240 -> 247       -0.17829
     240 -> 249       -0.17408
     241 -> 247       -0.21564
     244 -> 247        0.47711
     246 -> 248        0.11025

 Excited State   5:      Singlet-A      3.5878 eV  345.57 nm  f=0.1254  <S**2>=0.000
     239 -> 247        0.16835
     239 -> 249        0.15477
     240 -> 247        0.37152
     240 -> 249        0.19531
     244 -> 247        0.41135
     245 -> 247       -0.11125
     246 -> 248       -0.20677

 The electronic state is 1-A.
 Alpha  occ. eigenvalues --  -46.88278 -19.25744 -19.24642 -19.21614 -19.19845
 Alpha  occ. eigenvalues --  -19.18214 -19.17744 -14.42426 -14.41554 -14.39026
 Alpha  occ. eigenvalues --  -14.38635 -10.40459 -10.38740 -10.36043 -10.33945
 Alpha  occ. eigenvalues --  -10.31795 -10.31361 -10.31341 -10.30975 -10.30888
 Alpha  occ. eigenvalues --  -10.29690 -10.29327 -10.29074 -10.28771 -10.28595
 Alpha  occ. eigenvalues --  -10.28300 -10.27691 -10.27645 -10.27629 -10.27524
 Alpha  occ. eigenvalues --  -10.27463 -10.27448 -10.27430 -10.27380 -10.27376
 Alpha  occ. eigenvalues --  -10.27352 -10.27311 -10.26854 -10.26839 -10.26529
 Alpha  occ. eigenvalues --  -10.26310 -10.26249 -10.26229 -10.26120 -10.25799
 Alpha  occ. eigenvalues --  -10.25724 -10.25705 -10.25597 -10.25564 -10.25433
 Alpha  occ. eigenvalues --  -10.25369 -10.25296 -10.25134 -10.24992 -10.24937
 Alpha  occ. eigenvalues --  -10.24886 -10.24793 -10.24783 -10.24716 -10.24614
 Alpha  occ. eigenvalues --  -10.24601 -10.24527 -10.24415 -10.24389 -10.24348
 Alpha  occ. eigenvalues --  -10.24314  -3.16785  -1.91699  -1.91248  -1.91074
 Alpha  occ. eigenvalues --   -1.17587  -1.15339  -1.09469  -1.08879  -1.08552
 Alpha  occ. eigenvalues --   -1.05966  -1.05290  -1.03086  -1.02035  -1.01162
 Alpha  occ. eigenvalues --   -0.92926  -0.92325  -0.90002  -0.89498  -0.88932
 Alpha  occ. eigenvalues --   -0.88442  -0.87866  -0.87543  -0.87238  -0.86660
 Alpha  occ. eigenvalues --   -0.86254  -0.85422  -0.84152  -0.83594  -0.83285
 Alpha  occ. eigenvalues --   -0.82439  -0.81686  -0.81341  -0.80585  -0.80085
 Alpha  occ. eigenvalues --   -0.79918  -0.78260  -0.77741  -0.77122  -0.76523
 Alpha  occ. eigenvalues --   -0.76175  -0.75742  -0.74980  -0.74898  -0.74105
 Alpha  occ. eigenvalues --   -0.73152  -0.72529  -0.71133  -0.70332  -0.69037
 Alpha  occ. eigenvalues --   -0.68795  -0.67751  -0.66674  -0.66493  -0.65153
 Alpha  occ. eigenvalues --   -0.64963  -0.64838  -0.64486  -0.64475  -0.64262
 Alpha  occ. eigenvalues --   -0.63842  -0.63589  -0.62785  -0.61896  -0.60820
 Alpha  occ. eigenvalues --   -0.59899  -0.59689  -0.59043  -0.58585  -0.57887
 Alpha  occ. eigenvalues --   -0.57721  -0.57317  -0.56431  -0.56012  -0.55837
 Alpha  occ. eigenvalues --   -0.55447  -0.55001  -0.54785  -0.54428  -0.53932
 Alpha  occ. eigenvalues --   -0.53394  -0.53248  -0.52803  -0.52690  -0.52622
 Alpha  occ. eigenvalues --   -0.52360  -0.52217  -0.52053  -0.51778  -0.51657
 Alpha  occ. eigenvalues --   -0.51569  -0.51327  -0.51092  -0.50877  -0.50712
 Alpha  occ. eigenvalues --   -0.50554  -0.50404  -0.50169  -0.49826  -0.49682
 Alpha  occ. eigenvalues --   -0.49483  -0.49217  -0.48970  -0.48545  -0.48463
 Alpha  occ. eigenvalues --   -0.48330  -0.48104  -0.47891  -0.47862  -0.47625
 Alpha  occ. eigenvalues --   -0.47535  -0.47457  -0.47183  -0.46957  -0.46576
 Alpha  occ. eigenvalues --   -0.46247  -0.46103  -0.45995  -0.45896  -0.45554
 Alpha  occ. eigenvalues --   -0.45321  -0.44940  -0.44724  -0.44578  -0.44404
 Alpha  occ. eigenvalues --   -0.44310  -0.44263  -0.44036  -0.44004  -0.43932
 Alpha  occ. eigenvalues --   -0.43665  -0.43516  -0.43201  -0.43094  -0.42844
 Alpha  occ. eigenvalues --   -0.42583  -0.42474  -0.42449  -0.42196  -0.41959
 Alpha  occ. eigenvalues --   -0.41380  -0.41242  -0.41009  -0.40909  -0.40830
 Alpha  occ. eigenvalues --   -0.40681  -0.40464  -0.40386  -0.40156  -0.40105
 Alpha  occ. eigenvalues --   -0.39836  -0.39711  -0.39544  -0.38955  -0.38410
 Alpha  occ. eigenvalues --   -0.38279  -0.38197  -0.38042  -0.37779  -0.37453
 Alpha  occ. eigenvalues --   -0.37286  -0.37215  -0.36668  -0.36621  -0.36291
 Alpha  occ. eigenvalues --   -0.35896  -0.35408  -0.35122  -0.34572  -0.33853
 Alpha  occ. eigenvalues --   -0.33654  -0.33072  -0.32777  -0.31147  -0.30944
 Alpha  occ. eigenvalues --   -0.30316  -0.30200  -0.30177  -0.29470  -0.23663
 Alpha  occ. eigenvalues --   -0.20638
 Alpha virt. eigenvalues --   -0.08091  -0.01478   0.00716   0.02365   0.03010
 Alpha virt. eigenvalues --    0.03544   0.04597   0.05587   0.06101   0.07298
 Alpha virt. eigenvalues --    0.07779   0.07946   0.08587   0.08880   0.09285

 Mulliken charges:
               1
     1  Mg   0.827548
     2  C   -0.006285
     3  C   -0.080084
     4  C   -0.048009
     5  C   -0.078705
     6  N   -0.312992
     7  C   -0.024021
     8  C   -0.046604
     9  C   -0.055053
    10  C    0.052506
    11  C    0.078894
    12  C    0.078780
    13  C    0.020262
    14  C    0.199758
    15  O   -0.210802
    16  O   -0.325365
    17  N   -0.336192
    18  C    0.119887
    19  C   -0.153868
    20  C   -0.015030
    21  C    0.123535
    22  C    0.120939
    23  C    0.005475
    24  O   -0.225464
    25  C    0.053004
    26  N   -0.298677
    27  C    0.035851
    28  C   -0.085110
    29  C   -0.007480
    30  C    0.039523
    31  C    0.058998
    32  C    0.030479
    33  C    0.045379
    34  N   -0.341463
    35  C    0.104779
    36  C   -0.203018
    37  C   -0.035170
    38  C    0.136672
    39  C    0.136049
    40  C    0.144709
    41  O   -0.179236
    42  C    0.012592
    43  C    0.158266
    44  O   -0.249897
    45  O   -0.325925
    46  C    0.181793
    47  C    0.292152
    48  C   -0.152453
    49  C   -0.136586
    50  C    0.101037
    51  C    0.098633
    52  C   -0.032893
    53  C    0.020133
    54  C   -0.132423
    55  C    0.044071
    56  C    0.020910
    57  C    0.005326
    58  C    0.041002
    59  C   -0.088840
    60  C    0.049083
    61  C    0.019504
    62  C    0.009336
    63  C    0.069391
    64  C   -0.145198
    65  C    0.030994
    66  C    0.036889
    67  H   -0.045602
    68  H    0.000064
    69  H   -0.024031
    70  H    0.059956
    71  H   -0.001710
    72  H    0.014339
    73  H    0.025871
    74  H    0.023871
    75  H    0.020342
    76  H    0.009686
    77  H    0.016606
    78  H    0.041564
    79  H    0.024147
    80  H    0.002734
    81  H    0.035469
    82  H    0.042048
    83  H    0.018640
    84  H    0.024254
    85  H    0.012517
    86  H    0.007287
    87  H    0.028298
    88  H   -0.002214
    89  H    0.011326
    90  H    0.000879
    91  H    0.003031
    92  H   -0.004761
    93  H    0.022249
    94  H    0.023332
    95  H    0.043700
    96  H   -0.006365
    97  H    0.046252
    98  H    0.021803
    99  H    0.039437
   100  H    0.038389
   101  H    0.025795
   102  H    0.028208
   103  H    0.004168
   104  H   -0.008372
   105  H    0.038578
   106  H    0.001973
   107  H    0.029319
   108  H    0.018749
   109  H   -0.004884
   110  H   -0.006347
   111  H   -0.001898
   112  H    0.010637
   113  H    0.001763
   114  H   -0.000812
   115  H    0.031530
   116  H    0.010970
   117  H    0.015068
   118  H   -0.019604
   119  H   -0.010289
   120  H    0.007353
   121  H    0.000992
   122  H   -0.006155
   123  H   -0.008773
   124  H    0.001386
   125  H    0.004445
   126  H    0.001008
   127  H    0.002003
   128  H   -0.016762
   129  H   -0.016929
   130  H   -0.002190
   131  H   -0.004266
   132  H   -0.009208
   133  H   -0.004676
   134  H    0.015839
   135  H    0.010227
   136  H   -0.007624
   137  H    0.019733
   138  H   -0.001765
   139  H   -0.000371
   140  H    0.006475
 Sum of Mulliken charges =  -0.00000

 Dipole moment (field-independent basis, Debye):
    X=             -5.0607    Y=              0.9880    Z=              1.7869  Tot=              5.4571
 Quadrupole moment (field-independent basis, Debye-Ang):
   XX=           -372.5713   YY=           -423.8828   ZZ=           -405.7778
   XY=             -7.2374   XZ=             18.4391   YZ=             -1.1342

 Normal termination of Gaussian 16 at Wed May  4 09:24:32 2022.
