 Gaussian 16, Revision A.03,
 Gaussian 16:  ES64L-G16RevA.03 25-Dec-2016

 ---------------------------------
 #p PBE1PBE/Def2SVP td=(nstates=5)
 ---------------------------------

 -----------------------------------------------------
 step_1551_chromophore_4 TDDFT with PBE1PBE functional
 -----------------------------------------------------
 Symbolic Z-matrix:
 Charge =  0 Multiplicity = 1

                         Standard orientation:
 ---------------------------------------------------------------------
 Center     Atomic      Atomic             Coordinates (Angstroms)
 Number     Number       Type             X           Y           Z
 ---------------------------------------------------------------------
      1         12           0        6.104355    0.494691    0.310547
      2          6           0        3.827532   -2.007890    0.272103
      3          6           0        3.576609    2.742022   -0.455295
      4          6           0        8.415943    2.970378   -0.110136
      5          6           0        8.722022   -1.933627    0.850265
      6          7           0        3.981670    0.359917   -0.240502
      7          6           0        3.207650   -0.781781   -0.044674
      8          6           0        1.706502   -0.513369   -0.146527
      9          6           0        1.718230    1.024726   -0.667821
     10          6           0        3.172348    1.447265   -0.437693
     11          6           0        1.158167    1.320182   -2.112599
     12          6           0        0.883168   -0.726147    1.101404
     13          6           0       -0.282235   -1.719096    0.940685
     14          6           0       -1.226576   -1.422247   -0.314214
     15          8           0       -0.968128   -1.485894   -1.482329
     16          8           0       -2.462490   -1.141778    0.211327
     17          7           0        6.035332    2.566022   -0.128505
     18          6           0        4.889258    3.288611   -0.390852
     19          6           0        5.260776    4.675954   -0.621719
     20          6           0        6.667639    4.739200   -0.503285
     21          6           0        7.077477    3.405350   -0.228192
     22          6           0        4.284852    5.768038   -0.861090
     23          6           0        7.582154    5.947618   -0.486142
     24          8           0        8.821879    5.942039   -0.457782
     25          6           0        7.021815    7.265860   -0.669415
     26          7           0        8.260853    0.475073    0.393221
     27          6           0        8.969865    1.649146    0.066902
     28          6           0       10.536342    1.293129    0.047135
     29          6           0       10.667365   -0.178741    0.594554
     30          6           0        9.170597   -0.539925    0.622843
     31          6           0       11.102622    1.450571   -1.365495
     32          6           0       11.459328   -0.218973    1.901026
     33          6           0       11.975877   -1.605676    2.292914
     34          7           0        6.312528   -1.532613    0.485345
     35          6           0        7.413585   -2.334220    0.696717
     36          6           0        6.932766   -3.698488    0.742571
     37          6           0        5.592365   -3.546969    0.629642
     38          6           0        5.214787   -2.225441    0.440325
     39          6           0        7.723813   -4.963341    1.018996
     40          6           0        4.329757   -4.417396    0.573726
     41          8           0        4.054344   -5.623328    0.734316
     42          6           0        3.218762   -3.343050    0.437937
     43          6           0        2.407808   -3.648666   -0.790270
     44          8           0        2.817928   -3.337162   -1.913972
     45          8           0        1.273533   -4.401311   -0.673734
     46          6           0        0.443308   -4.701282   -1.847925
     47          6           0       -3.486429   -1.071145   -0.875454
     48          6           0       -4.782821   -1.265728   -0.316785
     49          6           0       -5.553082   -2.339940   -0.250373
     50          6           0       -5.234515   -3.753747   -0.757983
     51          6           0       -6.867009   -2.150838    0.284284
     52          6           0       -7.703288   -1.146591   -0.586120
     53          6           0       -8.260904    0.080105    0.157503
     54          6           0       -9.797255    0.341526   -0.238040
     55          6           0      -10.029249    0.933094   -1.715018
     56          6           0      -10.361443    1.342075    0.833468
     57          6           0      -11.754191    1.126357    1.492946
     58          6           0      -12.494873    2.476068    1.620375
     59          6           0      -13.834518    2.331113    2.289737
     60          6           0      -14.060448    3.119894    3.633169
     61          6           0      -14.946705    2.577967    1.269261
     62          6           0      -15.682015    1.254512    0.782665
     63          6           0      -15.376876    0.948437   -0.717565
     64          6           0      -14.884684   -0.482677   -0.950836
     65          6           0      -13.794926   -0.380727   -2.052717
     66          6           0      -16.053073   -1.421891   -1.375308
     67          1           0        2.810628    3.489940   -0.667917
     68          1           0        9.273838    3.642247   -0.173397
     69          1           0        9.405751   -2.775334    0.973919
     70          1           0        1.432892   -1.122688   -1.007659
     71          1           0        1.137271    1.576996    0.069611
     72          1           0        0.207476    1.850654   -2.063707
     73          1           0        0.978997    0.330609   -2.532849
     74          1           0        1.844411    1.808635   -2.803923
     75          1           0        0.414511    0.168955    1.511207
     76          1           0        1.554826   -1.129313    1.859085
     77          1           0       -0.857990   -1.621812    1.860802
     78          1           0        0.091520   -2.737151    1.049509
     79          1           0        4.405498    6.484570   -0.048705
     80          1           0        3.256471    5.412345   -0.808465
     81          1           0        4.435066    6.274237   -1.814341
     82          1           0        6.601255    7.650353    0.260207
     83          1           0        6.314343    7.326207   -1.496238
     84          1           0        7.862896    7.864983   -1.017931
     85          1           0       11.206376    1.964430    0.584878
     86          1           0       11.137744   -0.842366   -0.131555
     87          1           0       10.446993    2.000884   -2.039271
     88          1           0       11.259925    0.486265   -1.848751
     89          1           0       12.106472    1.868830   -1.292324
     90          1           0       10.876448    0.217536    2.711668
     91          1           0       12.256752    0.512808    1.774403
     92          1           0       11.266334   -2.328883    1.891458
     93          1           0       11.961497   -1.736415    3.374573
     94          1           0       12.937728   -1.687708    1.786370
     95          1           0        7.271493   -5.422043    1.898266
     96          1           0        8.741423   -4.778490    1.362992
     97          1           0        7.826533   -5.526632    0.092154
     98          1           0        2.478144   -3.416883    1.234663
     99          1           0       -0.329925   -5.461500   -1.730638
    100          1           0        0.937108   -4.885487   -2.801748
    101          1           0       -0.042651   -3.745802   -2.044132
    102          1           0       -3.348890   -1.714765   -1.744600
    103          1           0       -3.545845   -0.058921   -1.275344
    104          1           0       -5.262639   -0.295356   -0.184677
    105          1           0       -5.182173   -4.363764    0.143870
    106          1           0       -4.278006   -3.817112   -1.277604
    107          1           0       -5.966647   -4.023465   -1.518860
    108          1           0       -6.893979   -1.708590    1.280701
    109          1           0       -7.582192   -2.973441    0.294916
    110          1           0       -8.507308   -1.668514   -1.104265
    111          1           0       -7.095989   -0.779480   -1.413058
    112          1           0       -7.632080    0.944446   -0.054827
    113          1           0       -8.226428   -0.152156    1.222327
    114          1           0      -10.311649   -0.618254   -0.175665
    115          1           0      -10.792925    1.710504   -1.693155
    116          1           0      -10.437637    0.091350   -2.273522
    117          1           0       -9.064930    1.171030   -2.164076
    118          1           0      -10.414225    2.278260    0.277811
    119          1           0       -9.711613    1.593451    1.672293
    120          1           0      -11.409910    0.717414    2.443118
    121          1           0      -12.386509    0.499431    0.863348
    122          1           0      -12.701997    2.827695    0.609126
    123          1           0      -11.786662    3.105577    2.158111
    124          1           0      -13.831279    1.291126    2.615134
    125          1           0      -15.031972    3.611522    3.686205
    126          1           0      -13.236301    3.824653    3.747651
    127          1           0      -14.058820    2.511072    4.537409
    128          1           0      -14.580380    3.104697    0.387338
    129          1           0      -15.722805    3.292592    1.544123
    130          1           0      -16.697605    1.509443    1.086145
    131          1           0      -15.410185    0.429114    1.440327
    132          1           0      -14.711373    1.672603   -1.187352
    133          1           0      -16.312521    1.198560   -1.218034
    134          1           0      -14.510838   -0.982476   -0.056488
    135          1           0      -14.219731   -0.345397   -3.055512
    136          1           0      -13.350529   -1.375286   -2.098278
    137          1           0      -13.018162    0.362141   -1.871816
    138          1           0      -16.306397   -2.279367   -0.752921
    139          1           0      -15.803973   -1.878447   -2.332708
    140          1           0      -17.030258   -0.938009   -1.387149
 ---------------------------------------------------------------------

 SCF Done:  E(RPBE1PBE) =  -3005.31403762     A.U. after   15 cycles

 Excitation energies and oscillator strengths:

 Excited State   1:      Singlet-A      1.8602 eV  666.52 nm  f=0.3617  <S**2>=0.000
     245 -> 248       -0.16572
     246 -> 247        0.69239
     246 <- 247       -0.10477
 This state for optimization and/or second-order correction.
 Total Energy, E(TD-HF/TD-DFT) =  -3005.24567756
 Copying the excited state density for this state as the 1-particle RhoCI density.

 Excited State   2:      Singlet-A      2.2632 eV  547.83 nm  f=0.0977  <S**2>=0.000
     245 -> 247        0.64220
     246 -> 248        0.28073

 Excited State   3:      Singlet-A      3.0710 eV  403.73 nm  f=0.0001  <S**2>=0.000
     244 -> 247        0.66380
     244 -> 248       -0.12493
     244 -> 250        0.13920

 Excited State   4:      Singlet-A      3.1342 eV  395.59 nm  f=0.0036  <S**2>=0.000
     240 -> 247       -0.12287
     241 -> 247        0.57962
     241 -> 249       -0.18391
     243 -> 247       -0.29217

 Excited State   5:      Singlet-A      3.2136 eV  385.81 nm  f=0.0063  <S**2>=0.000
     240 -> 247       -0.10359
     241 -> 247        0.25995
     243 -> 247        0.61323
     244 -> 247       -0.10226
     246 -> 248       -0.14459

 The electronic state is 1-A.
 Alpha  occ. eigenvalues --  -46.91675 -19.26422 -19.25209 -19.21840 -19.19884
 Alpha  occ. eigenvalues --  -19.18375 -19.18111 -14.41856 -14.41203 -14.38770
 Alpha  occ. eigenvalues --  -14.38179 -10.37461 -10.35710 -10.33058 -10.31182
 Alpha  occ. eigenvalues --  -10.29453 -10.28972 -10.28873 -10.28685 -10.28175
 Alpha  occ. eigenvalues --  -10.27552 -10.27033 -10.26813 -10.26670 -10.26011
 Alpha  occ. eigenvalues --  -10.25820 -10.25527 -10.25429 -10.25335 -10.25317
 Alpha  occ. eigenvalues --  -10.25311 -10.25189 -10.25165 -10.25013 -10.24992
 Alpha  occ. eigenvalues --  -10.24839 -10.24833 -10.24626 -10.24197 -10.23916
 Alpha  occ. eigenvalues --  -10.23912 -10.23902 -10.23763 -10.23687 -10.23629
 Alpha  occ. eigenvalues --  -10.23620 -10.23321 -10.23131 -10.22979 -10.22913
 Alpha  occ. eigenvalues --  -10.22910 -10.22868 -10.22702 -10.22638 -10.22478
 Alpha  occ. eigenvalues --  -10.22372 -10.22300 -10.22299 -10.22293 -10.22132
 Alpha  occ. eigenvalues --  -10.21998 -10.21995 -10.21977 -10.21935 -10.21926
 Alpha  occ. eigenvalues --  -10.21759  -3.13764  -1.86619  -1.86147  -1.85974
 Alpha  occ. eigenvalues --   -1.12352  -1.10028  -1.04317  -1.03422  -1.03391
 Alpha  occ. eigenvalues --   -1.00677  -0.99849  -0.97919  -0.96691  -0.95722
 Alpha  occ. eigenvalues --   -0.87193  -0.86506  -0.84102  -0.83690  -0.83172
 Alpha  occ. eigenvalues --   -0.82555  -0.82231  -0.81677  -0.81544  -0.81046
 Alpha  occ. eigenvalues --   -0.80538  -0.79634  -0.78419  -0.77828  -0.77509
 Alpha  occ. eigenvalues --   -0.76716  -0.75978  -0.75506  -0.74834  -0.74440
 Alpha  occ. eigenvalues --   -0.74053  -0.72606  -0.71996  -0.71451  -0.70713
 Alpha  occ. eigenvalues --   -0.70432  -0.69837  -0.69264  -0.69083  -0.68295
 Alpha  occ. eigenvalues --   -0.67528  -0.66928  -0.65578  -0.64639  -0.63331
 Alpha  occ. eigenvalues --   -0.63048  -0.62186  -0.61051  -0.60854  -0.59674
 Alpha  occ. eigenvalues --   -0.59396  -0.59129  -0.59007  -0.58782  -0.58595
 Alpha  occ. eigenvalues --   -0.58380  -0.57747  -0.57023  -0.56447  -0.55147
 Alpha  occ. eigenvalues --   -0.54555  -0.54152  -0.53589  -0.53130  -0.52366
 Alpha  occ. eigenvalues --   -0.52063  -0.51707  -0.51009  -0.50643  -0.50275
 Alpha  occ. eigenvalues --   -0.49829  -0.49496  -0.49387  -0.48910  -0.48357
 Alpha  occ. eigenvalues --   -0.47909  -0.47660  -0.47300  -0.47174  -0.47138
 Alpha  occ. eigenvalues --   -0.46893  -0.46863  -0.46553  -0.46234  -0.46141
 Alpha  occ. eigenvalues --   -0.46022  -0.45869  -0.45603  -0.45518  -0.45257
 Alpha  occ. eigenvalues --   -0.45166  -0.44991  -0.44877  -0.44380  -0.44357
 Alpha  occ. eigenvalues --   -0.43970  -0.43840  -0.43565  -0.43172  -0.43059
 Alpha  occ. eigenvalues --   -0.42957  -0.42775  -0.42596  -0.42510  -0.42228
 Alpha  occ. eigenvalues --   -0.42124  -0.42067  -0.41909  -0.41671  -0.41259
 Alpha  occ. eigenvalues --   -0.40920  -0.40761  -0.40683  -0.40632  -0.40356
 Alpha  occ. eigenvalues --   -0.40012  -0.39757  -0.39504  -0.39279  -0.39146
 Alpha  occ. eigenvalues --   -0.39020  -0.38950  -0.38773  -0.38665  -0.38590
 Alpha  occ. eigenvalues --   -0.38397  -0.38239  -0.37938  -0.37833  -0.37530
 Alpha  occ. eigenvalues --   -0.37440  -0.37323  -0.37213  -0.36901  -0.36796
 Alpha  occ. eigenvalues --   -0.36155  -0.36012  -0.35887  -0.35698  -0.35687
 Alpha  occ. eigenvalues --   -0.35591  -0.35277  -0.35232  -0.34983  -0.34911
 Alpha  occ. eigenvalues --   -0.34773  -0.34502  -0.34440  -0.33761  -0.33366
 Alpha  occ. eigenvalues --   -0.33097  -0.33034  -0.32976  -0.32630  -0.32319
 Alpha  occ. eigenvalues --   -0.32218  -0.32109  -0.31758  -0.31453  -0.31352
 Alpha  occ. eigenvalues --   -0.30764  -0.30312  -0.29992  -0.29590  -0.29010
 Alpha  occ. eigenvalues --   -0.28649  -0.28600  -0.27439  -0.26612  -0.25982
 Alpha  occ. eigenvalues --   -0.25697  -0.25519  -0.25262  -0.24980  -0.20586
 Alpha  occ. eigenvalues --   -0.18293
 Alpha virt. eigenvalues --   -0.10613  -0.05013  -0.03484  -0.02051  -0.00944
 Alpha virt. eigenvalues --   -0.00002   0.00262   0.01091   0.01857   0.03186
 Alpha virt. eigenvalues --    0.04501   0.04520   0.04538   0.05407   0.05969

 Mulliken charges:
               1
     1  Mg   0.974707
     2  C   -0.017115
     3  C   -0.072503
     4  C   -0.040183
     5  C   -0.071380
     6  N   -0.413971
     7  C    0.051347
     8  C   -0.116509
     9  C   -0.122158
    10  C    0.086302
    11  C    0.018984
    12  C    0.027307
    13  C   -0.055142
    14  C    0.261916
    15  O   -0.245185
    16  O   -0.354093
    17  N   -0.457119
    18  C    0.149653
    19  C   -0.181679
    20  C   -0.062953
    21  C    0.153330
    22  C    0.059500
    23  C    0.059587
    24  O   -0.261613
    25  C   -0.022515
    26  N   -0.398624
    27  C    0.070409
    28  C   -0.165894
    29  C   -0.080644
    30  C    0.085720
    31  C    0.006505
    32  C   -0.026014
    33  C   -0.035324
    34  N   -0.482976
    35  C    0.123065
    36  C   -0.224502
    37  C   -0.087063
    38  C    0.194231
    39  C    0.082279
    40  C    0.239971
    41  O   -0.226034
    42  C   -0.099292
    43  C    0.251552
    44  O   -0.281189
    45  O   -0.362454
    46  C    0.124492
    47  C    0.248117
    48  C   -0.163340
    49  C   -0.185234
    50  C    0.037648
    51  C    0.036896
    52  C   -0.092202
    53  C   -0.035495
    54  C   -0.212443
    55  C   -0.018671
    56  C   -0.028310
    57  C   -0.071173
    58  C   -0.011238
    59  C   -0.177215
    60  C   -0.007809
    61  C   -0.032490
    62  C   -0.049797
    63  C    0.017226
    64  C   -0.242444
    65  C   -0.038859
    66  C   -0.015603
    67  H   -0.011110
    68  H    0.031698
    69  H    0.007186
    70  H    0.100667
    71  H    0.036240
    72  H    0.041655
    73  H    0.054615
    74  H    0.050872
    75  H    0.050889
    76  H    0.043715
    77  H    0.049707
    78  H    0.074833
    79  H    0.054196
    80  H    0.032019
    81  H    0.063716
    82  H    0.068953
    83  H    0.045727
    84  H    0.052554
    85  H    0.047914
    86  H    0.044203
    87  H    0.055797
    88  H    0.026243
    89  H    0.038808
    90  H    0.033727
    91  H    0.035932
    92  H    0.028947
    93  H    0.050194
    94  H    0.051132
    95  H    0.069566
    96  H    0.019164
    97  H    0.072452
    98  H    0.060049
    99  H    0.061052
   100  H    0.059948
   101  H    0.051796
   102  H    0.053912
   103  H    0.031099
   104  H    0.022955
   105  H    0.066389
   106  H    0.029665
   107  H    0.056576
   108  H    0.052137
   109  H    0.027598
   110  H    0.026033
   111  H    0.031915
   112  H    0.041688
   113  H    0.035075
   114  H    0.036182
   115  H    0.056572
   116  H    0.038427
   117  H    0.043030
   118  H    0.014278
   119  H    0.021244
   120  H    0.040855
   121  H    0.042631
   122  H    0.026804
   123  H    0.023864
   124  H    0.040589
   125  H    0.031018
   126  H    0.028051
   127  H    0.029222
   128  H    0.014722
   129  H    0.014627
   130  H    0.030073
   131  H    0.027168
   132  H    0.021088
   133  H    0.027544
   134  H    0.050196
   135  H    0.038292
   136  H    0.021810
   137  H    0.052636
   138  H    0.025459
   139  H    0.026348
   140  H    0.032876
 Sum of Mulliken charges =  -0.00000

 Dipole moment (field-independent basis, Debye):
    X=             -5.1775    Y=              1.4536    Z=              1.6794  Tot=              5.6338
 Quadrupole moment (field-independent basis, Debye-Ang):
   XX=           -366.8204   YY=           -420.9047   ZZ=           -403.2469
   XY=             -4.8415   XZ=             18.1133   YZ=             -1.2446

 Normal termination of Gaussian 16 at Wed May  4 09:43:01 2022.
