 Gaussian 16, Revision A.03,
 Gaussian 16:  ES64L-G16RevA.03 25-Dec-2016

 --------------------------------
 #p wB97XD/Def2SVP td=(nstates=5)
 --------------------------------

 ----------------------------------------------------
 step_1551_chromophore_4 TDDFT with wB97XD functional
 ----------------------------------------------------
 Symbolic Z-matrix:
 Charge =  0 Multiplicity = 1

                         Standard orientation:
 ---------------------------------------------------------------------
 Center     Atomic      Atomic             Coordinates (Angstroms)
 Number     Number       Type             X           Y           Z
 ---------------------------------------------------------------------
      1         12           0        6.104355    0.494691    0.310547
      2          6           0        3.827532   -2.007890    0.272103
      3          6           0        3.576609    2.742022   -0.455295
      4          6           0        8.415943    2.970378   -0.110136
      5          6           0        8.722022   -1.933627    0.850265
      6          7           0        3.981670    0.359917   -0.240502
      7          6           0        3.207650   -0.781781   -0.044674
      8          6           0        1.706502   -0.513369   -0.146527
      9          6           0        1.718230    1.024726   -0.667821
     10          6           0        3.172348    1.447265   -0.437693
     11          6           0        1.158167    1.320182   -2.112599
     12          6           0        0.883168   -0.726147    1.101404
     13          6           0       -0.282235   -1.719096    0.940685
     14          6           0       -1.226576   -1.422247   -0.314214
     15          8           0       -0.968128   -1.485894   -1.482329
     16          8           0       -2.462490   -1.141778    0.211327
     17          7           0        6.035332    2.566022   -0.128505
     18          6           0        4.889258    3.288611   -0.390852
     19          6           0        5.260776    4.675954   -0.621719
     20          6           0        6.667639    4.739200   -0.503285
     21          6           0        7.077477    3.405350   -0.228192
     22          6           0        4.284852    5.768038   -0.861090
     23          6           0        7.582154    5.947618   -0.486142
     24          8           0        8.821879    5.942039   -0.457782
     25          6           0        7.021815    7.265860   -0.669415
     26          7           0        8.260853    0.475073    0.393221
     27          6           0        8.969865    1.649146    0.066902
     28          6           0       10.536342    1.293129    0.047135
     29          6           0       10.667365   -0.178741    0.594554
     30          6           0        9.170597   -0.539925    0.622843
     31          6           0       11.102622    1.450571   -1.365495
     32          6           0       11.459328   -0.218973    1.901026
     33          6           0       11.975877   -1.605676    2.292914
     34          7           0        6.312528   -1.532613    0.485345
     35          6           0        7.413585   -2.334220    0.696717
     36          6           0        6.932766   -3.698488    0.742571
     37          6           0        5.592365   -3.546969    0.629642
     38          6           0        5.214787   -2.225441    0.440325
     39          6           0        7.723813   -4.963341    1.018996
     40          6           0        4.329757   -4.417396    0.573726
     41          8           0        4.054344   -5.623328    0.734316
     42          6           0        3.218762   -3.343050    0.437937
     43          6           0        2.407808   -3.648666   -0.790270
     44          8           0        2.817928   -3.337162   -1.913972
     45          8           0        1.273533   -4.401311   -0.673734
     46          6           0        0.443308   -4.701282   -1.847925
     47          6           0       -3.486429   -1.071145   -0.875454
     48          6           0       -4.782821   -1.265728   -0.316785
     49          6           0       -5.553082   -2.339940   -0.250373
     50          6           0       -5.234515   -3.753747   -0.757983
     51          6           0       -6.867009   -2.150838    0.284284
     52          6           0       -7.703288   -1.146591   -0.586120
     53          6           0       -8.260904    0.080105    0.157503
     54          6           0       -9.797255    0.341526   -0.238040
     55          6           0      -10.029249    0.933094   -1.715018
     56          6           0      -10.361443    1.342075    0.833468
     57          6           0      -11.754191    1.126357    1.492946
     58          6           0      -12.494873    2.476068    1.620375
     59          6           0      -13.834518    2.331113    2.289737
     60          6           0      -14.060448    3.119894    3.633169
     61          6           0      -14.946705    2.577967    1.269261
     62          6           0      -15.682015    1.254512    0.782665
     63          6           0      -15.376876    0.948437   -0.717565
     64          6           0      -14.884684   -0.482677   -0.950836
     65          6           0      -13.794926   -0.380727   -2.052717
     66          6           0      -16.053073   -1.421891   -1.375308
     67          1           0        2.810628    3.489940   -0.667917
     68          1           0        9.273838    3.642247   -0.173397
     69          1           0        9.405751   -2.775334    0.973919
     70          1           0        1.432892   -1.122688   -1.007659
     71          1           0        1.137271    1.576996    0.069611
     72          1           0        0.207476    1.850654   -2.063707
     73          1           0        0.978997    0.330609   -2.532849
     74          1           0        1.844411    1.808635   -2.803923
     75          1           0        0.414511    0.168955    1.511207
     76          1           0        1.554826   -1.129313    1.859085
     77          1           0       -0.857990   -1.621812    1.860802
     78          1           0        0.091520   -2.737151    1.049509
     79          1           0        4.405498    6.484570   -0.048705
     80          1           0        3.256471    5.412345   -0.808465
     81          1           0        4.435066    6.274237   -1.814341
     82          1           0        6.601255    7.650353    0.260207
     83          1           0        6.314343    7.326207   -1.496238
     84          1           0        7.862896    7.864983   -1.017931
     85          1           0       11.206376    1.964430    0.584878
     86          1           0       11.137744   -0.842366   -0.131555
     87          1           0       10.446993    2.000884   -2.039271
     88          1           0       11.259925    0.486265   -1.848751
     89          1           0       12.106472    1.868830   -1.292324
     90          1           0       10.876448    0.217536    2.711668
     91          1           0       12.256752    0.512808    1.774403
     92          1           0       11.266334   -2.328883    1.891458
     93          1           0       11.961497   -1.736415    3.374573
     94          1           0       12.937728   -1.687708    1.786370
     95          1           0        7.271493   -5.422043    1.898266
     96          1           0        8.741423   -4.778490    1.362992
     97          1           0        7.826533   -5.526632    0.092154
     98          1           0        2.478144   -3.416883    1.234663
     99          1           0       -0.329925   -5.461500   -1.730638
    100          1           0        0.937108   -4.885487   -2.801748
    101          1           0       -0.042651   -3.745802   -2.044132
    102          1           0       -3.348890   -1.714765   -1.744600
    103          1           0       -3.545845   -0.058921   -1.275344
    104          1           0       -5.262639   -0.295356   -0.184677
    105          1           0       -5.182173   -4.363764    0.143870
    106          1           0       -4.278006   -3.817112   -1.277604
    107          1           0       -5.966647   -4.023465   -1.518860
    108          1           0       -6.893979   -1.708590    1.280701
    109          1           0       -7.582192   -2.973441    0.294916
    110          1           0       -8.507308   -1.668514   -1.104265
    111          1           0       -7.095989   -0.779480   -1.413058
    112          1           0       -7.632080    0.944446   -0.054827
    113          1           0       -8.226428   -0.152156    1.222327
    114          1           0      -10.311649   -0.618254   -0.175665
    115          1           0      -10.792925    1.710504   -1.693155
    116          1           0      -10.437637    0.091350   -2.273522
    117          1           0       -9.064930    1.171030   -2.164076
    118          1           0      -10.414225    2.278260    0.277811
    119          1           0       -9.711613    1.593451    1.672293
    120          1           0      -11.409910    0.717414    2.443118
    121          1           0      -12.386509    0.499431    0.863348
    122          1           0      -12.701997    2.827695    0.609126
    123          1           0      -11.786662    3.105577    2.158111
    124          1           0      -13.831279    1.291126    2.615134
    125          1           0      -15.031972    3.611522    3.686205
    126          1           0      -13.236301    3.824653    3.747651
    127          1           0      -14.058820    2.511072    4.537409
    128          1           0      -14.580380    3.104697    0.387338
    129          1           0      -15.722805    3.292592    1.544123
    130          1           0      -16.697605    1.509443    1.086145
    131          1           0      -15.410185    0.429114    1.440327
    132          1           0      -14.711373    1.672603   -1.187352
    133          1           0      -16.312521    1.198560   -1.218034
    134          1           0      -14.510838   -0.982476   -0.056488
    135          1           0      -14.219731   -0.345397   -3.055512
    136          1           0      -13.350529   -1.375286   -2.098278
    137          1           0      -13.018162    0.362141   -1.871816
    138          1           0      -16.306397   -2.279367   -0.752921
    139          1           0      -15.803973   -1.878447   -2.332708
    140          1           0      -17.030258   -0.938009   -1.387149
 ---------------------------------------------------------------------

 SCF Done:  E(RwB97XD) =  -3007.82506486     A.U. after   19 cycles

 Excitation energies and oscillator strengths:

 Excited State   1:      Singlet-A      1.6592 eV  747.25 nm  f=0.3698  <S**2>=0.000
     245 -> 248        0.17829
     246 -> 247        0.68290
     245 <- 248        0.11420
 This state for optimization and/or second-order correction.
 Total Energy, E(TD-HF/TD-DFT) =  -3007.76409006
 Copying the excited state density for this state as the 1-particle RhoCI density.

 Excited State   2:      Singlet-A      2.2053 eV  562.20 nm  f=0.0933  <S**2>=0.000
     245 -> 247        0.62738
     246 -> 248       -0.31109

 Excited State   3:      Singlet-A      3.5249 eV  351.73 nm  f=0.4925  <S**2>=0.000
     239 -> 247        0.15593
     240 -> 247        0.16599
     240 -> 249        0.16450
     241 -> 247        0.26894
     245 -> 247        0.23580
     246 -> 248        0.50423

 Excited State   4:      Singlet-A      3.5499 eV  349.26 nm  f=0.1519  <S**2>=0.000
     239 -> 247       -0.14467
     240 -> 247       -0.22057
     240 -> 249       -0.20355
     241 -> 247       -0.19885
     244 -> 247        0.43741
     245 -> 247        0.14413
     246 -> 248        0.30128

 Excited State   5:      Singlet-A      3.6062 eV  343.81 nm  f=0.0700  <S**2>=0.000
     240 -> 247        0.41705
     240 -> 249        0.23717
     241 -> 247       -0.13060
     244 -> 247        0.42379
     246 -> 248       -0.14882

 The electronic state is 1-A.
 Alpha  occ. eigenvalues --  -46.94618 -19.30985 -19.29873 -19.26513 -19.24973
 Alpha  occ. eigenvalues --  -19.23168 -19.22739 -14.47075 -14.46141 -14.43599
 Alpha  occ. eigenvalues --  -14.43243 -10.44264 -10.42617 -10.40152 -10.37858
 Alpha  occ. eigenvalues --  -10.35879 -10.35453 -10.35225 -10.34932 -10.34752
 Alpha  occ. eigenvalues --  -10.33662 -10.33408 -10.33052 -10.32721 -10.32642
 Alpha  occ. eigenvalues --  -10.32371 -10.31701 -10.31679 -10.31644 -10.31623
 Alpha  occ. eigenvalues --  -10.31614 -10.31492 -10.31475 -10.31431 -10.31420
 Alpha  occ. eigenvalues --  -10.31410 -10.31349 -10.30882 -10.30667 -10.30453
 Alpha  occ. eigenvalues --  -10.30332 -10.30195 -10.30193 -10.30048 -10.29782
 Alpha  occ. eigenvalues --  -10.29747 -10.29666 -10.29482 -10.29438 -10.29288
 Alpha  occ. eigenvalues --  -10.29245 -10.29244 -10.29206 -10.28972 -10.28848
 Alpha  occ. eigenvalues --  -10.28727 -10.28712 -10.28646 -10.28616 -10.28500
 Alpha  occ. eigenvalues --  -10.28438 -10.28339 -10.28339 -10.28338 -10.28251
 Alpha  occ. eigenvalues --  -10.28174  -3.20564  -1.94168  -1.93694  -1.93523
 Alpha  occ. eigenvalues --   -1.19732  -1.17519  -1.11661  -1.11174  -1.10719
 Alpha  occ. eigenvalues --   -1.08155  -1.07398  -1.05078  -1.04031  -1.03174
 Alpha  occ. eigenvalues --   -0.94941  -0.94155  -0.91757  -0.91350  -0.90790
 Alpha  occ. eigenvalues --   -0.90211  -0.89803  -0.89332  -0.89176  -0.88595
 Alpha  occ. eigenvalues --   -0.88194  -0.87277  -0.86025  -0.85492  -0.85148
 Alpha  occ. eigenvalues --   -0.84338  -0.83587  -0.83169  -0.82537  -0.82041
 Alpha  occ. eigenvalues --   -0.81729  -0.80208  -0.79645  -0.79054  -0.78391
 Alpha  occ. eigenvalues --   -0.78114  -0.77526  -0.76884  -0.76751  -0.75944
 Alpha  occ. eigenvalues --   -0.75086  -0.74505  -0.73099  -0.72252  -0.70976
 Alpha  occ. eigenvalues --   -0.70679  -0.69722  -0.68586  -0.68439  -0.67119
 Alpha  occ. eigenvalues --   -0.66911  -0.66719  -0.66478  -0.66292  -0.66230
 Alpha  occ. eigenvalues --   -0.65836  -0.65407  -0.64632  -0.63909  -0.62704
 Alpha  occ. eigenvalues --   -0.61890  -0.61658  -0.61037  -0.60571  -0.59850
 Alpha  occ. eigenvalues --   -0.59579  -0.59302  -0.58389  -0.57984  -0.57730
 Alpha  occ. eigenvalues --   -0.57315  -0.56944  -0.56752  -0.56344  -0.55857
 Alpha  occ. eigenvalues --   -0.55315  -0.55091  -0.54712  -0.54572  -0.54546
 Alpha  occ. eigenvalues --   -0.54268  -0.54158  -0.53974  -0.53711  -0.53534
 Alpha  occ. eigenvalues --   -0.53477  -0.53200  -0.52956  -0.52792  -0.52596
 Alpha  occ. eigenvalues --   -0.52478  -0.52371  -0.52091  -0.51692  -0.51611
 Alpha  occ. eigenvalues --   -0.51417  -0.51186  -0.50872  -0.50438  -0.50393
 Alpha  occ. eigenvalues --   -0.50245  -0.50010  -0.49830  -0.49759  -0.49540
 Alpha  occ. eigenvalues --   -0.49435  -0.49361  -0.49112  -0.48891  -0.48476
 Alpha  occ. eigenvalues --   -0.48133  -0.47981  -0.47871  -0.47812  -0.47438
 Alpha  occ. eigenvalues --   -0.47201  -0.46863  -0.46661  -0.46464  -0.46323
 Alpha  occ. eigenvalues --   -0.46241  -0.46178  -0.45941  -0.45877  -0.45874
 Alpha  occ. eigenvalues --   -0.45569  -0.45470  -0.45147  -0.44997  -0.44845
 Alpha  occ. eigenvalues --   -0.44465  -0.44353  -0.44337  -0.44062  -0.43828
 Alpha  occ. eigenvalues --   -0.43280  -0.43159  -0.42932  -0.42786  -0.42775
 Alpha  occ. eigenvalues --   -0.42656  -0.42351  -0.42289  -0.42032  -0.41963
 Alpha  occ. eigenvalues --   -0.41763  -0.41566  -0.41427  -0.40817  -0.40319
 Alpha  occ. eigenvalues --   -0.40147  -0.40039  -0.39955  -0.39647  -0.39378
 Alpha  occ. eigenvalues --   -0.39145  -0.39131  -0.38821  -0.38469  -0.38226
 Alpha  occ. eigenvalues --   -0.37743  -0.37355  -0.37114  -0.36432  -0.35854
 Alpha  occ. eigenvalues --   -0.35495  -0.35310  -0.34716  -0.33335  -0.33034
 Alpha  occ. eigenvalues --   -0.32507  -0.32207  -0.32076  -0.31615  -0.25593
 Alpha  occ. eigenvalues --   -0.22453
 Alpha virt. eigenvalues --   -0.06435   0.00446   0.02731   0.04492   0.05726
 Alpha virt. eigenvalues --    0.06114   0.06905   0.07730   0.08514   0.09827
 Alpha virt. eigenvalues --    0.10659   0.11070   0.11456   0.12222   0.12682

 Mulliken charges:
               1
     1  Mg   0.965537
     2  C   -0.020108
     3  C   -0.089157
     4  C   -0.053757
     5  C   -0.083254
     6  N   -0.384236
     7  C    0.023989
     8  C   -0.089268
     9  C   -0.096654
    10  C    0.074038
    11  C    0.029711
    12  C    0.037071
    13  C   -0.033630
    14  C    0.248305
    15  O   -0.239949
    16  O   -0.353907
    17  N   -0.420965
    18  C    0.137205
    19  C   -0.173106
    20  C   -0.058867
    21  C    0.143461
    22  C    0.072484
    23  C    0.055700
    24  O   -0.257073
    25  C   -0.012354
    26  N   -0.366756
    27  C    0.053858
    28  C   -0.137372
    29  C   -0.052619
    30  C    0.067255
    31  C    0.015092
    32  C   -0.016633
    33  C   -0.013780
    34  N   -0.440145
    35  C    0.119643
    36  C   -0.216515
    37  C   -0.082263
    38  C    0.175959
    39  C    0.093398
    40  C    0.219781
    41  O   -0.214264
    42  C   -0.059965
    43  C    0.226161
    44  O   -0.276002
    45  O   -0.357848
    46  C    0.143102
    47  C    0.261908
    48  C   -0.170036
    49  C   -0.166698
    50  C    0.051907
    51  C    0.049730
    52  C   -0.073367
    53  C   -0.020074
    54  C   -0.185685
    55  C   -0.005191
    56  C   -0.011766
    57  C   -0.041115
    58  C    0.006368
    59  C   -0.148037
    60  C    0.005512
    61  C   -0.015815
    62  C   -0.034702
    63  C    0.031198
    64  C   -0.212033
    65  C   -0.015615
    66  C   -0.006888
    67  H   -0.020747
    68  H    0.027504
    69  H   -0.003603
    70  H    0.078633
    71  H    0.024241
    72  H    0.036491
    73  H    0.048200
    74  H    0.046015
    75  H    0.044670
    76  H    0.034897
    77  H    0.045336
    78  H    0.064456
    79  H    0.046086
    80  H    0.027110
    81  H    0.057485
    82  H    0.065275
    83  H    0.039698
    84  H    0.050258
    85  H    0.038176
    86  H    0.032598
    87  H    0.049958
    88  H    0.018816
    89  H    0.033497
    90  H    0.026520
    91  H    0.027499
    92  H    0.016600
    93  H    0.045834
    94  H    0.045958
    95  H    0.066128
    96  H    0.015582
    97  H    0.069781
    98  H    0.051601
    99  H    0.058477
   100  H    0.056837
   101  H    0.042432
   102  H    0.047881
   103  H    0.027616
   104  H    0.015481
   105  H    0.061044
   106  H    0.023472
   107  H    0.051107
   108  H    0.043295
   109  H    0.021930
   110  H    0.017036
   111  H    0.020011
   112  H    0.033600
   113  H    0.023552
   114  H    0.023676
   115  H    0.049944
   116  H    0.031463
   117  H    0.038090
   118  H    0.000768
   119  H    0.013068
   120  H    0.032795
   121  H    0.020440
   122  H    0.012774
   123  H    0.014262
   124  H    0.024776
   125  H    0.024904
   126  H    0.021318
   127  H    0.023895
   128  H    0.003784
   129  H    0.007279
   130  H    0.023631
   131  H    0.016145
   132  H    0.010172
   133  H    0.019765
   134  H    0.040036
   135  H    0.031722
   136  H    0.014803
   137  H    0.038036
   138  H    0.020442
   139  H    0.020155
   140  H    0.026627
 Sum of Mulliken charges =  -0.00000

 Dipole moment (field-independent basis, Debye):
    X=             -5.0973    Y=              0.9242    Z=              1.8041  Tot=              5.4855
 Quadrupole moment (field-independent basis, Debye-Ang):
   XX=           -366.9697   YY=           -419.5151   ZZ=           -402.8575
   XY=             -7.7325   XZ=             18.9474   YZ=             -1.2761

 Normal termination of Gaussian 16 at Wed May  4 10:12:03 2022.
