 Gaussian 16, Revision A.03,
 Gaussian 16:  ES64L-G16RevA.03 25-Dec-2016

 --------------------
 #p ZINDO=(nstates=5)
 --------------------

 -----------------------------
 step_1551_chromophore_4 ZINDO
 -----------------------------
 Symbolic Z-matrix:
 Charge =  0 Multiplicity = 1

                         Standard orientation:
 ---------------------------------------------------------------------
 Center     Atomic      Atomic             Coordinates (Angstroms)
 Number     Number       Type             X           Y           Z
 ---------------------------------------------------------------------
      1         12           0        6.104355    0.494691    0.310547
      2          6           0        3.827532   -2.007890    0.272103
      3          6           0        3.576609    2.742022   -0.455295
      4          6           0        8.415943    2.970378   -0.110136
      5          6           0        8.722022   -1.933627    0.850265
      6          7           0        3.981670    0.359917   -0.240502
      7          6           0        3.207650   -0.781781   -0.044674
      8          6           0        1.706502   -0.513369   -0.146527
      9          6           0        1.718230    1.024726   -0.667821
     10          6           0        3.172348    1.447265   -0.437693
     11          6           0        1.158167    1.320182   -2.112599
     12          6           0        0.883168   -0.726147    1.101404
     13          6           0       -0.282235   -1.719096    0.940685
     14          6           0       -1.226576   -1.422247   -0.314214
     15          8           0       -0.968128   -1.485894   -1.482329
     16          8           0       -2.462490   -1.141778    0.211327
     17          7           0        6.035332    2.566022   -0.128505
     18          6           0        4.889258    3.288611   -0.390852
     19          6           0        5.260776    4.675954   -0.621719
     20          6           0        6.667639    4.739200   -0.503285
     21          6           0        7.077477    3.405350   -0.228192
     22          6           0        4.284852    5.768038   -0.861090
     23          6           0        7.582154    5.947618   -0.486142
     24          8           0        8.821879    5.942039   -0.457782
     25          6           0        7.021815    7.265860   -0.669415
     26          7           0        8.260853    0.475073    0.393221
     27          6           0        8.969865    1.649146    0.066902
     28          6           0       10.536342    1.293129    0.047135
     29          6           0       10.667365   -0.178741    0.594554
     30          6           0        9.170597   -0.539925    0.622843
     31          6           0       11.102622    1.450571   -1.365495
     32          6           0       11.459328   -0.218973    1.901026
     33          6           0       11.975877   -1.605676    2.292914
     34          7           0        6.312528   -1.532613    0.485345
     35          6           0        7.413585   -2.334220    0.696717
     36          6           0        6.932766   -3.698488    0.742571
     37          6           0        5.592365   -3.546969    0.629642
     38          6           0        5.214787   -2.225441    0.440325
     39          6           0        7.723813   -4.963341    1.018996
     40          6           0        4.329757   -4.417396    0.573726
     41          8           0        4.054344   -5.623328    0.734316
     42          6           0        3.218762   -3.343050    0.437937
     43          6           0        2.407808   -3.648666   -0.790270
     44          8           0        2.817928   -3.337162   -1.913972
     45          8           0        1.273533   -4.401311   -0.673734
     46          6           0        0.443308   -4.701282   -1.847925
     47          6           0       -3.486429   -1.071145   -0.875454
     48          6           0       -4.782821   -1.265728   -0.316785
     49          6           0       -5.553082   -2.339940   -0.250373
     50          6           0       -5.234515   -3.753747   -0.757983
     51          6           0       -6.867009   -2.150838    0.284284
     52          6           0       -7.703288   -1.146591   -0.586120
     53          6           0       -8.260904    0.080105    0.157503
     54          6           0       -9.797255    0.341526   -0.238040
     55          6           0      -10.029249    0.933094   -1.715018
     56          6           0      -10.361443    1.342075    0.833468
     57          6           0      -11.754191    1.126357    1.492946
     58          6           0      -12.494873    2.476068    1.620375
     59          6           0      -13.834518    2.331113    2.289737
     60          6           0      -14.060448    3.119894    3.633169
     61          6           0      -14.946705    2.577967    1.269261
     62          6           0      -15.682015    1.254512    0.782665
     63          6           0      -15.376876    0.948437   -0.717565
     64          6           0      -14.884684   -0.482677   -0.950836
     65          6           0      -13.794926   -0.380727   -2.052717
     66          6           0      -16.053073   -1.421891   -1.375308
     67          1           0        2.810628    3.489940   -0.667917
     68          1           0        9.273838    3.642247   -0.173397
     69          1           0        9.405751   -2.775334    0.973919
     70          1           0        1.432892   -1.122688   -1.007659
     71          1           0        1.137271    1.576996    0.069611
     72          1           0        0.207476    1.850654   -2.063707
     73          1           0        0.978997    0.330609   -2.532849
     74          1           0        1.844411    1.808635   -2.803923
     75          1           0        0.414511    0.168955    1.511207
     76          1           0        1.554826   -1.129313    1.859085
     77          1           0       -0.857990   -1.621812    1.860802
     78          1           0        0.091520   -2.737151    1.049509
     79          1           0        4.405498    6.484570   -0.048705
     80          1           0        3.256471    5.412345   -0.808465
     81          1           0        4.435066    6.274237   -1.814341
     82          1           0        6.601255    7.650353    0.260207
     83          1           0        6.314343    7.326207   -1.496238
     84          1           0        7.862896    7.864983   -1.017931
     85          1           0       11.206376    1.964430    0.584878
     86          1           0       11.137744   -0.842366   -0.131555
     87          1           0       10.446993    2.000884   -2.039271
     88          1           0       11.259925    0.486265   -1.848751
     89          1           0       12.106472    1.868830   -1.292324
     90          1           0       10.876448    0.217536    2.711668
     91          1           0       12.256752    0.512808    1.774403
     92          1           0       11.266334   -2.328883    1.891458
     93          1           0       11.961497   -1.736415    3.374573
     94          1           0       12.937728   -1.687708    1.786370
     95          1           0        7.271493   -5.422043    1.898266
     96          1           0        8.741423   -4.778490    1.362992
     97          1           0        7.826533   -5.526632    0.092154
     98          1           0        2.478144   -3.416883    1.234663
     99          1           0       -0.329925   -5.461500   -1.730638
    100          1           0        0.937108   -4.885487   -2.801748
    101          1           0       -0.042651   -3.745802   -2.044132
    102          1           0       -3.348890   -1.714765   -1.744600
    103          1           0       -3.545845   -0.058921   -1.275344
    104          1           0       -5.262639   -0.295356   -0.184677
    105          1           0       -5.182173   -4.363764    0.143870
    106          1           0       -4.278006   -3.817112   -1.277604
    107          1           0       -5.966647   -4.023465   -1.518860
    108          1           0       -6.893979   -1.708590    1.280701
    109          1           0       -7.582192   -2.973441    0.294916
    110          1           0       -8.507308   -1.668514   -1.104265
    111          1           0       -7.095989   -0.779480   -1.413058
    112          1           0       -7.632080    0.944446   -0.054827
    113          1           0       -8.226428   -0.152156    1.222327
    114          1           0      -10.311649   -0.618254   -0.175665
    115          1           0      -10.792925    1.710504   -1.693155
    116          1           0      -10.437637    0.091350   -2.273522
    117          1           0       -9.064930    1.171030   -2.164076
    118          1           0      -10.414225    2.278260    0.277811
    119          1           0       -9.711613    1.593451    1.672293
    120          1           0      -11.409910    0.717414    2.443118
    121          1           0      -12.386509    0.499431    0.863348
    122          1           0      -12.701997    2.827695    0.609126
    123          1           0      -11.786662    3.105577    2.158111
    124          1           0      -13.831279    1.291126    2.615134
    125          1           0      -15.031972    3.611522    3.686205
    126          1           0      -13.236301    3.824653    3.747651
    127          1           0      -14.058820    2.511072    4.537409
    128          1           0      -14.580380    3.104697    0.387338
    129          1           0      -15.722805    3.292592    1.544123
    130          1           0      -16.697605    1.509443    1.086145
    131          1           0      -15.410185    0.429114    1.440327
    132          1           0      -14.711373    1.672603   -1.187352
    133          1           0      -16.312521    1.198560   -1.218034
    134          1           0      -14.510838   -0.982476   -0.056488
    135          1           0      -14.219731   -0.345397   -3.055512
    136          1           0      -13.350529   -1.375286   -2.098278
    137          1           0      -13.018162    0.362141   -1.871816
    138          1           0      -16.306397   -2.279367   -0.752921
    139          1           0      -15.803973   -1.878447   -2.332708
    140          1           0      -17.030258   -0.938009   -1.387149
 ---------------------------------------------------------------------

 SCF Done:  E(RZINDO/S) =  -474.325821430     A.U. after   20 cycles

 Excitation energies and oscillator strengths:

 Excited State   1:      Singlet-A      1.2610 eV  983.23 nm  f=0.5676  <S**2>=0.000
     175 ->178         0.17852
     176 ->177         0.66585
 This state for optimization and/or second-order correction.
 Total Energy, E(CIS/TDA) =  -474.279480902
 Copying the excited state density for this state as the 1-particle RhoCI density.

 Excited State   2:      Singlet-A      1.9339 eV  641.10 nm  f=0.0283  <S**2>=0.000
     175 ->177         0.53365
     176 ->178        -0.43804

 Excited State   3:      Singlet-A      2.9043 eV  426.89 nm  f=0.0008  <S**2>=0.000
     171 ->177         0.25588
     171 ->178        -0.17848
     171 ->179         0.18425
     171 ->180         0.44428
     171 ->181        -0.14134
     171 ->183         0.12778
     171 ->185        -0.12010
     171 ->186         0.15817
     171 ->187         0.21896
     171 ->202         0.12668

 Excited State   4:      Singlet-A      2.9864 eV  415.16 nm  f=0.3585  <S**2>=0.000
     167 ->179        -0.20177
     168 ->177         0.24608
     168 ->179        -0.35096
     168 ->186        -0.11043
     175 ->177         0.22277
     176 ->178         0.28707

 Excited State   5:      Singlet-A      3.0057 eV  412.50 nm  f=0.6273  <S**2>=0.000
     167 ->179         0.11912
     168 ->177        -0.13855
     168 ->179         0.21261
     175 ->177         0.29397
     176 ->178         0.37958
     176 ->179        -0.28075
     176 ->180        -0.19571

 The electronic state is 1-A.
 Alpha  occ. eigenvalues --   -1.88143  -1.80326  -1.77435  -1.73654  -1.71666
 Alpha  occ. eigenvalues --   -1.69688  -1.65500  -1.61962  -1.59367  -1.58377
 Alpha  occ. eigenvalues --   -1.55576  -1.51926  -1.49315  -1.48893  -1.47553
 Alpha  occ. eigenvalues --   -1.44736  -1.41883  -1.39542  -1.38966  -1.38132
 Alpha  occ. eigenvalues --   -1.35642  -1.34378  -1.32837  -1.31435  -1.28132
 Alpha  occ. eigenvalues --   -1.27513  -1.24437  -1.24043  -1.20489  -1.17621
 Alpha  occ. eigenvalues --   -1.17210  -1.16163  -1.14903  -1.13772  -1.13047
 Alpha  occ. eigenvalues --   -1.11880  -1.10852  -1.10330  -1.06051  -1.04427
 Alpha  occ. eigenvalues --   -1.02367  -1.01189  -0.99572  -0.98848  -0.97869
 Alpha  occ. eigenvalues --   -0.96583  -0.95099  -0.93544  -0.92075  -0.91391
 Alpha  occ. eigenvalues --   -0.90079  -0.89319  -0.88557  -0.88004  -0.86315
 Alpha  occ. eigenvalues --   -0.85964  -0.84284  -0.83336  -0.82282  -0.80352
 Alpha  occ. eigenvalues --   -0.79916  -0.79627  -0.78661  -0.78230  -0.77641
 Alpha  occ. eigenvalues --   -0.75436  -0.75091  -0.74598  -0.74381  -0.73194
 Alpha  occ. eigenvalues --   -0.72545  -0.72305  -0.71735  -0.71080  -0.70553
 Alpha  occ. eigenvalues --   -0.69518  -0.69092  -0.68509  -0.68315  -0.67594
 Alpha  occ. eigenvalues --   -0.67493  -0.66456  -0.66418  -0.66316  -0.65817
 Alpha  occ. eigenvalues --   -0.65573  -0.65316  -0.65127  -0.64866  -0.63785
 Alpha  occ. eigenvalues --   -0.63045  -0.62932  -0.62356  -0.61778  -0.61159
 Alpha  occ. eigenvalues --   -0.60947  -0.60919  -0.60582  -0.60022  -0.59610
 Alpha  occ. eigenvalues --   -0.59128  -0.59105  -0.58415  -0.57874  -0.57713
 Alpha  occ. eigenvalues --   -0.57471  -0.57032  -0.56952  -0.56727  -0.56290
 Alpha  occ. eigenvalues --   -0.55892  -0.55683  -0.55398  -0.55010  -0.54635
 Alpha  occ. eigenvalues --   -0.54266  -0.53524  -0.53319  -0.52982  -0.52926
 Alpha  occ. eigenvalues --   -0.52385  -0.52308  -0.51874  -0.51767  -0.51427
 Alpha  occ. eigenvalues --   -0.51106  -0.50850  -0.50724  -0.50167  -0.49931
 Alpha  occ. eigenvalues --   -0.49709  -0.49414  -0.49259  -0.48951  -0.48745
 Alpha  occ. eigenvalues --   -0.48370  -0.48315  -0.47839  -0.47636  -0.47219
 Alpha  occ. eigenvalues --   -0.46999  -0.46522  -0.46382  -0.46284  -0.46259
 Alpha  occ. eigenvalues --   -0.45929  -0.45799  -0.45591  -0.45204  -0.45089
 Alpha  occ. eigenvalues --   -0.44677  -0.44482  -0.44431  -0.44140  -0.43307
 Alpha  occ. eigenvalues --   -0.43237  -0.43072  -0.43042  -0.42761  -0.41843
 Alpha  occ. eigenvalues --   -0.41448  -0.41265  -0.40670  -0.39640  -0.38630
 Alpha  occ. eigenvalues --   -0.37739  -0.36835  -0.35736  -0.34898  -0.34376
 Alpha  occ. eigenvalues --   -0.33783  -0.32064  -0.31885  -0.31742  -0.26451
 Alpha  occ. eigenvalues --   -0.21404
 Alpha virt. eigenvalues --   -0.08047  -0.01864  -0.00626   0.01570   0.01641
 Alpha virt. eigenvalues --    0.02607   0.02791   0.03286   0.04559   0.04600
 Alpha virt. eigenvalues --    0.06455   0.06923   0.07738   0.07815   0.08245

 Mulliken charges:
               1
     1  Mg   0.428698
     2  C   -0.061032
     3  C   -0.077165
     4  C   -0.044287
     5  C   -0.069992
     6  N   -0.302013
     7  C    0.155560
     8  C    0.004597
     9  C   -0.005960
    10  C    0.118528
    11  C   -0.049148
    12  C   -0.011008
    13  C   -0.004989
    14  C    0.468679
    15  O   -0.492728
    16  O   -0.262478
    17  N   -0.311414
    18  C    0.079762
    19  C   -0.013223
    20  C   -0.057007
    21  C    0.130028
    22  C   -0.040932
    23  C    0.331676
    24  O   -0.544217
    25  C   -0.030250
    26  N   -0.258401
    27  C    0.075977
    28  C   -0.002684
    29  C    0.010141
    30  C    0.142537
    31  C   -0.052910
    32  C   -0.024399
    33  C   -0.060075
    34  N   -0.315647
    35  C    0.109645
    36  C    0.047822
    37  C   -0.038258
    38  C    0.152059
    39  C   -0.038901
    40  C    0.323072
    41  O   -0.508094
    42  C    0.067511
    43  C    0.481814
    44  O   -0.540951
    45  O   -0.268759
    46  C    0.073257
    47  C    0.104409
    48  C   -0.096715
    49  C    0.021804
    50  C   -0.043993
    51  C   -0.019969
    52  C   -0.042725
    53  C   -0.035818
    54  C   -0.020563
    55  C   -0.061857
    56  C   -0.054300
    57  C   -0.044341
    58  C   -0.031921
    59  C   -0.006637
    60  C   -0.063133
    61  C   -0.041682
    62  C   -0.049109
    63  C   -0.027670
    64  C   -0.003257
    65  C   -0.060258
    66  C   -0.065006
    67  H    0.019370
    68  H    0.048875
    69  H    0.041379
    70  H    0.056996
    71  H    0.019499
    72  H    0.023097
    73  H    0.027386
    74  H    0.030640
    75  H    0.030071
    76  H    0.018204
    77  H    0.023211
    78  H    0.046858
    79  H    0.024061
    80  H    0.020077
    81  H    0.031162
    82  H    0.043175
    83  H    0.029383
    84  H    0.032412
    85  H    0.034775
    86  H    0.035268
    87  H    0.030685
    88  H    0.009861
    89  H    0.017593
    90  H    0.019246
    91  H    0.019215
    92  H    0.018455
    93  H    0.026042
    94  H    0.027973
    95  H    0.040994
    96  H    0.015260
    97  H    0.047675
    98  H    0.050079
    99  H    0.040579
   100  H    0.051641
   101  H    0.036087
   102  H    0.053259
   103  H    0.034212
   104  H    0.019324
   105  H    0.035014
   106  H    0.018905
   107  H    0.035183
   108  H    0.028827
   109  H    0.014961
   110  H    0.013286
   111  H    0.013204
   112  H    0.025786
   113  H    0.019138
   114  H    0.023773
   115  H    0.032137
   116  H    0.012204
   117  H    0.029512
   118  H    0.005957
   119  H    0.016383
   120  H    0.027915
   121  H    0.024872
   122  H    0.024704
   123  H    0.020339
   124  H    0.017530
   125  H    0.020431
   126  H    0.017779
   127  H    0.015361
   128  H    0.014008
   129  H    0.012992
   130  H    0.020394
   131  H    0.020455
   132  H    0.022390
   133  H    0.015891
   134  H    0.029383
   135  H    0.024031
   136  H    0.002762
   137  H    0.028742
   138  H    0.013917
   139  H    0.017233
   140  H    0.018815
 Sum of Mulliken charges =  -0.00000

 Dipole moment (field-independent basis, Debye):
    X=             -4.8683    Y=              0.0323    Z=              3.5561  Tot=              6.0289
 N-N= 4.247292314676D+03 E-N= 0.000000000000D+00  KE=-9.169329734428D+03
 Leave Link  601 at Wed May  4 10:23:39 2022, MaxMem=  6710886400 cpu:               0.8 elap:               0.0
 (Enter /sw/apps/gaussian-16.0/g16/l9999.exe)
 1\1\GINC-BP1-COMPUTE096\SP\RZINDO CIS\STO-3G\C55H74Mg1N4O6\OF15641\04-
 May-2022\0\\#p ZINDO=(nstates=5)\\step_1551_chromophore_4 ZINDO\\0,1\M
 g,0,9.264,3.12,28.321\C,0,10.436,1.758,31.188\C,0,7.628,5.537,30.194\C
 ,0,7.695,4.254,25.51\C,0,10.779,0.425,26.455\N,0,8.895,3.485,30.456\C,
 0,9.612,2.865,31.477\C,0,9.441,3.551,32.832\C,0,8.275,4.623,32.473\C,0
 ,8.246,4.589,30.942\C,0,6.871,4.45,33.171\C,0,10.671,4.174,33.448\C,0,
 11.014,3.66,34.858\C,0,9.789,3.697,35.884\O,0,8.772,3.064,35.865\O,0,1

 Normal termination of Gaussian 16 at Wed May  4 10:23:39 2022.
