 Gaussian 16, Revision A.03,
 Gaussian 16:  ES64L-G16RevA.03 25-Dec-2016

 ------------------------------
 #p blyp/Def2SVP td=(nstates=5)
 ------------------------------

 -------------------------------------------------
 step_551_chromophore_5 TDDFT with blyp functional
 -------------------------------------------------
 Symbolic Z-matrix:
 Charge =  0 Multiplicity = 1

                         Standard orientation:
 ---------------------------------------------------------------------
 Center     Atomic      Atomic             Coordinates (Angstroms)
 Number     Number       Type             X           Y           Z
 ---------------------------------------------------------------------
      1         12           0        5.534464    0.500912   -0.299597
      2          6           0        4.149332   -2.661696    0.206789
      3          6           0        3.125961    1.152600   -2.844471
      4          6           0        5.981701    3.815156    0.045675
      5          6           0        7.322879   -0.041360    2.729950
      6          7           0        3.934265   -0.672003   -1.299289
      7          6           0        3.524260   -1.987172   -0.847587
      8          6           0        2.273200   -2.363438   -1.644290
      9          6           0        2.036285   -1.252394   -2.722690
     10          6           0        3.086599   -0.117535   -2.232391
     11          6           0        2.367131   -1.623818   -4.211391
     12          6           0        1.066343   -2.650312   -0.754547
     13          6           0        0.074827   -3.602463   -1.500662
     14          6           0       -1.035955   -2.847489   -2.265004
     15          8           0       -0.884461   -2.209647   -3.286191
     16          8           0       -2.314818   -2.979837   -1.672614
     17          7           0        4.822225    2.237885   -1.403943
     18          6           0        3.919025    2.282889   -2.445516
     19          6           0        3.904648    3.624811   -2.920243
     20          6           0        4.622972    4.422562   -2.136796
     21          6           0        5.178219    3.484373   -1.096630
     22          6           0        3.013033    4.054382   -4.083488
     23          6           0        4.756803    5.828777   -2.302980
     24          8           0        4.485505    6.417004   -3.335633
     25          6           0        5.307535    6.695562   -1.171866
     26          7           0        6.558983    1.704464    1.214296
     27          6           0        6.596443    3.027582    1.109321
     28          6           0        7.359526    3.741368    2.212594
     29          6           0        7.745746    2.478854    3.148354
     30          6           0        7.211455    1.307718    2.299941
     31          6           0        8.548842    4.553047    1.583577
     32          6           0        7.137594    2.393881    4.615547
     33          6           0        8.132066    1.944239    5.658673
     34          7           0        5.884233   -1.123912    1.051582
     35          6           0        6.652432   -1.237843    2.179584
     36          6           0        6.566984   -2.571924    2.679360
     37          6           0        5.645939   -3.146497    1.909227
     38          6           0        5.187785   -2.243447    0.973408
     39          6           0        7.265101   -3.077162    3.925774
     40          6           0        4.795810   -4.376769    1.815805
     41          8           0        4.755138   -5.426446    2.439452
     42          6           0        3.782216   -4.070770    0.709418
     43          6           0        3.765260   -5.207449   -0.320283
     44          8           0        2.723802   -5.697189   -0.708187
     45          8           0        4.990631   -5.474134   -0.943458
     46          6           0        4.847077   -6.186146   -2.233776
     47          6           0       -3.403953   -2.511562   -2.538764
     48          6           0       -3.834017   -1.123197   -2.045530
     49          6           0       -4.556666   -0.745730   -0.954767
     50          6           0       -5.139100   -1.737215   -0.023317
     51          6           0       -4.846898    0.747579   -0.739788
     52          6           0       -6.215819    1.232175   -1.020439
     53          6           0       -6.667401    2.507463   -0.259435
     54          6           0       -8.014284    2.306890    0.487486
     55          6           0       -8.588005    3.570243    1.206853
     56          6           0       -7.694273    1.295722    1.712193
     57          6           0       -8.946830    0.473589    2.172177
     58          6           0       -9.553926   -0.491897    1.093333
     59          6           0      -10.952232    0.048513    0.471198
     60          6           0      -10.780616    0.199089   -1.060694
     61          6           0      -12.134084   -0.897844    0.814979
     62          6           0      -12.949412   -0.405908    2.013116
     63          6           0      -14.531310   -0.399549    1.666485
     64          6           0      -15.137013    1.052574    1.605332
     65          6           0      -16.475932    1.021456    2.301044
     66          6           0      -15.212362    1.479905    0.107324
     67          1           0        2.417155    1.445105   -3.623054
     68          1           0        6.020152    4.881520    0.277678
     69          1           0        7.917804   -0.246212    3.622647
     70          1           0        2.615495   -3.306931   -2.068566
     71          1           0        1.090109   -0.712530   -2.684924
     72          1           0        2.942771   -2.546883   -4.276713
     73          1           0        3.068073   -0.899647   -4.627737
     74          1           0        1.480538   -1.526604   -4.838649
     75          1           0        0.615847   -1.658451   -0.740556
     76          1           0        1.369411   -2.834154    0.275945
     77          1           0       -0.363101   -4.312825   -0.800508
     78          1           0        0.604451   -4.105972   -2.309239
     79          1           0        2.117423    4.539076   -3.694242
     80          1           0        2.715056    3.094550   -4.505812
     81          1           0        3.395469    4.601729   -4.945655
     82          1           0        6.356310    6.426003   -1.046013
     83          1           0        4.890487    6.504949   -0.183233
     84          1           0        5.090810    7.735362   -1.418027
     85          1           0        6.775370    4.482011    2.758493
     86          1           0        8.827849    2.403665    3.046697
     87          1           0        8.523481    4.782156    0.517726
     88          1           0        9.443739    4.009740    1.886579
     89          1           0        8.704107    5.482891    2.130569
     90          1           0        6.331373    1.671479    4.745567
     91          1           0        6.770039    3.339250    5.015898
     92          1           0        7.801561    1.039888    6.169422
     93          1           0        8.216679    2.658462    6.477518
     94          1           0        9.098852    1.749827    5.194224
     95          1           0        8.334776   -3.110826    3.722627
     96          1           0        6.859213   -4.068126    4.131765
     97          1           0        7.065515   -2.399601    4.755366
     98          1           0        2.804244   -4.011889    1.187001
     99          1           0        3.923547   -6.088210   -2.803421
    100          1           0        5.040245   -7.231961   -1.995733
    101          1           0        5.665045   -5.787491   -2.834986
    102          1           0       -4.204666   -3.230107   -2.364644
    103          1           0       -3.130880   -2.489250   -3.593812
    104          1           0       -3.540922   -0.328803   -2.732219
    105          1           0       -5.749861   -2.507206   -0.494871
    106          1           0       -5.831422   -1.232266    0.651737
    107          1           0       -4.550994   -2.335424    0.673105
    108          1           0       -4.147119    1.254500   -1.402957
    109          1           0       -4.617458    1.067038    0.276210
    110          1           0       -6.855463    0.354764   -0.930780
    111          1           0       -6.231498    1.431651   -2.091689
    112          1           0       -6.723878    3.386944   -0.899943
    113          1           0       -5.966124    2.926075    0.462535
    114          1           0       -8.707720    1.936408   -0.266407
    115          1           0       -8.772550    3.312101    2.249581
    116          1           0       -9.559940    3.862843    0.809454
    117          1           0       -7.902178    4.412144    1.119859
    118          1           0       -7.275016    1.808678    2.577901
    119          1           0       -6.831935    0.646432    1.562721
    120          1           0       -9.733861    1.117968    2.560542
    121          1           0       -8.472250   -0.187133    2.897203
    122          1           0       -9.827034   -1.377035    1.668793
    123          1           0       -8.779855   -0.732748    0.365179
    124          1           0      -11.212642    1.049161    0.814714
    125          1           0       -9.758402    0.040563   -1.401916
    126          1           0      -11.171285    1.172281   -1.358941
    127          1           0      -11.383897   -0.552830   -1.568572
    128          1           0      -11.742633   -1.846962    1.182543
    129          1           0      -12.805271   -1.036946   -0.032492
    130          1           0      -12.739659    0.608464    2.351464
    131          1           0      -12.727318   -1.081802    2.838763
    132          1           0      -14.902348   -1.090507    2.424728
    133          1           0      -14.732521   -1.011943    0.787927
    134          1           0      -14.512469    1.757571    2.152911
    135          1           0      -16.895346    0.018918    2.212319
    136          1           0      -17.143009    1.734532    1.815170
    137          1           0      -16.375751    1.355351    3.333310
    138          1           0      -16.223622    1.687585   -0.242884
    139          1           0      -14.824102    0.746732   -0.598976
    140          1           0      -14.510509    2.292460   -0.079560
 ---------------------------------------------------------------------

 SCF Done:  E(RB-LYP) =  -3007.34536941     A.U. after   20 cycles

 Excitation energies and oscillator strengths:

 Excited State   1:      Singlet-A      1.8252 eV  679.29 nm  f=0.2981  <S**2>=0.000
     245 -> 248       -0.20154
     246 -> 247        0.68695
     246 <- 247       -0.14330
 This state for optimization and/or second-order correction.
 Total Energy, E(TD-HF/TD-DFT) =  -3007.27829472
 Copying the excited state density for this state as the 1-particle RhoCI density.

 Excited State   2:      Singlet-A      1.8761 eV  660.86 nm  f=0.0014  <S**2>=0.000
     244 -> 247        0.70593

 Excited State   3:      Singlet-A      2.0432 eV  606.83 nm  f=0.0110  <S**2>=0.000
     243 -> 247        0.62579
     245 -> 247        0.29752
     246 -> 248        0.13290

 Excited State   4:      Singlet-A      2.0595 eV  602.02 nm  f=0.0476  <S**2>=0.000
     243 -> 247       -0.32827
     245 -> 247        0.56117
     246 -> 248        0.26333

 Excited State   5:      Singlet-A      2.4206 eV  512.20 nm  f=0.0004  <S**2>=0.000
     242 -> 247        0.70698

 The electronic state is 1-A.
 Alpha  occ. eigenvalues --  -46.29056 -18.82303 -18.81310 -18.77434 -18.77363
 Alpha  occ. eigenvalues --  -18.76143 -18.74921 -14.03871 -14.03675 -14.01515
 Alpha  occ. eigenvalues --  -14.00758 -10.04613 -10.04204  -9.99798  -9.98907
 Alpha  occ. eigenvalues --   -9.97951  -9.97411  -9.97259  -9.97042  -9.96959
 Alpha  occ. eigenvalues --   -9.96772  -9.96551  -9.95674  -9.95495  -9.95083
 Alpha  occ. eigenvalues --   -9.94942  -9.94357  -9.93864  -9.93787  -9.93737
 Alpha  occ. eigenvalues --   -9.93726  -9.93709  -9.93445  -9.93408  -9.93350
 Alpha  occ. eigenvalues --   -9.93327  -9.93179  -9.93143  -9.93037  -9.92878
 Alpha  occ. eigenvalues --   -9.92594  -9.92377  -9.92342  -9.92260  -9.91923
 Alpha  occ. eigenvalues --   -9.91857  -9.91716  -9.91613  -9.91574  -9.91536
 Alpha  occ. eigenvalues --   -9.91472  -9.91446  -9.91414  -9.91409  -9.91393
 Alpha  occ. eigenvalues --   -9.91322  -9.91304  -9.91287  -9.90950  -9.90873
 Alpha  occ. eigenvalues --   -9.90856  -9.90784  -9.90589  -9.90506  -9.90468
 Alpha  occ. eigenvalues --   -9.90378  -2.93356  -1.73794  -1.73226  -1.73071
 Alpha  occ. eigenvalues --   -0.97516  -0.97109  -0.91691  -0.91517  -0.89966
 Alpha  occ. eigenvalues --   -0.89703  -0.88149  -0.87512  -0.86599  -0.83255
 Alpha  occ. eigenvalues --   -0.76014  -0.73518  -0.72679  -0.72297  -0.72234
 Alpha  occ. eigenvalues --   -0.71775  -0.71360  -0.70998  -0.70879  -0.70309
 Alpha  occ. eigenvalues --   -0.70002  -0.68243  -0.67999  -0.67613  -0.66920
 Alpha  occ. eigenvalues --   -0.65983  -0.65781  -0.64878  -0.64536  -0.64314
 Alpha  occ. eigenvalues --   -0.63947  -0.62425  -0.62311  -0.61563  -0.61200
 Alpha  occ. eigenvalues --   -0.60589  -0.60301  -0.60019  -0.58984  -0.58318
 Alpha  occ. eigenvalues --   -0.58237  -0.57642  -0.56869  -0.55678  -0.54580
 Alpha  occ. eigenvalues --   -0.54275  -0.53257  -0.52809  -0.52511  -0.52012
 Alpha  occ. eigenvalues --   -0.51216  -0.51029  -0.50891  -0.50568  -0.49981
 Alpha  occ. eigenvalues --   -0.49377  -0.49243  -0.48961  -0.48815  -0.46595
 Alpha  occ. eigenvalues --   -0.46315  -0.45975  -0.45686  -0.45139  -0.44442
 Alpha  occ. eigenvalues --   -0.44112  -0.43669  -0.43365  -0.42610  -0.42138
 Alpha  occ. eigenvalues --   -0.41994  -0.41703  -0.41422  -0.41258  -0.41037
 Alpha  occ. eigenvalues --   -0.40603  -0.40383  -0.40191  -0.39995  -0.39951
 Alpha  occ. eigenvalues --   -0.39776  -0.39625  -0.39538  -0.39433  -0.39305
 Alpha  occ. eigenvalues --   -0.39020  -0.38837  -0.38717  -0.38396  -0.38155
 Alpha  occ. eigenvalues --   -0.37862  -0.37552  -0.37478  -0.37338  -0.37275
 Alpha  occ. eigenvalues --   -0.36961  -0.36900  -0.36748  -0.36502  -0.36349
 Alpha  occ. eigenvalues --   -0.36134  -0.35919  -0.35829  -0.35504  -0.35155
 Alpha  occ. eigenvalues --   -0.35127  -0.35000  -0.34948  -0.34744  -0.34666
 Alpha  occ. eigenvalues --   -0.34359  -0.34232  -0.34117  -0.34031  -0.33953
 Alpha  occ. eigenvalues --   -0.33849  -0.33597  -0.33563  -0.33427  -0.33235
 Alpha  occ. eigenvalues --   -0.33154  -0.32938  -0.32755  -0.32661  -0.32435
 Alpha  occ. eigenvalues --   -0.32220  -0.31895  -0.31637  -0.31534  -0.31298
 Alpha  occ. eigenvalues --   -0.31175  -0.30801  -0.30683  -0.30620  -0.30466
 Alpha  occ. eigenvalues --   -0.30244  -0.30182  -0.30153  -0.29996  -0.29955
 Alpha  occ. eigenvalues --   -0.29598  -0.29372  -0.29295  -0.29238  -0.28907
 Alpha  occ. eigenvalues --   -0.28749  -0.28564  -0.28485  -0.28328  -0.27943
 Alpha  occ. eigenvalues --   -0.27532  -0.27453  -0.27124  -0.26825  -0.26718
 Alpha  occ. eigenvalues --   -0.26201  -0.26138  -0.25713  -0.25640  -0.25117
 Alpha  occ. eigenvalues --   -0.25084  -0.24293  -0.23869  -0.23469  -0.23404
 Alpha  occ. eigenvalues --   -0.23323  -0.22661  -0.22319  -0.22259  -0.21541
 Alpha  occ. eigenvalues --   -0.20923  -0.20367  -0.18907  -0.18273  -0.17457
 Alpha  occ. eigenvalues --   -0.15865
 Alpha virt. eigenvalues --   -0.11473  -0.07261  -0.05976  -0.04326  -0.03688
 Alpha virt. eigenvalues --   -0.03494  -0.03156  -0.02892  -0.01343   0.00139
 Alpha virt. eigenvalues --    0.00740   0.01913   0.02299   0.02541   0.02690

 Mulliken charges:
               1
     1  Mg   0.695610
     2  C   -0.003864
     3  C   -0.017422
     4  C   -0.046773
     5  C   -0.058060
     6  N   -0.261113
     7  C   -0.113559
     8  C    0.045710
     9  C   -0.009528
    10  C    0.028137
    11  C    0.140721
    12  C    0.120200
    13  C    0.214758
    14  C    0.045729
    15  O   -0.188940
    16  O   -0.290003
    17  N   -0.244557
    18  C    0.054145
    19  C   -0.134422
    20  C    0.146798
    21  C    0.089208
    22  C    0.181907
    23  C   -0.153428
    24  O   -0.159457
    25  C    0.120561
    26  N   -0.157256
    27  C   -0.022718
    28  C   -0.022228
    29  C    0.090724
    30  C   -0.025740
    31  C    0.111113
    32  C    0.107410
    33  C    0.044960
    34  N   -0.209445
    35  C    0.041885
    36  C   -0.217075
    37  C    0.074809
    38  C    0.096292
    39  C    0.182862
    40  C   -0.036400
    41  O   -0.119733
    42  C    0.087675
    43  C    0.130312
    44  O   -0.176947
    45  O   -0.296934
    46  C    0.208828
    47  C    0.362839
    48  C   -0.129836
    49  C   -0.123582
    50  C    0.138121
    51  C    0.140195
    52  C    0.105215
    53  C    0.120864
    54  C   -0.089671
    55  C    0.122204
    56  C    0.059409
    57  C    0.086839
    58  C    0.104532
    59  C   -0.096249
    60  C    0.107133
    61  C    0.125484
    62  C    0.039339
    63  C    0.060197
    64  C   -0.069676
    65  C    0.123050
    66  C    0.104426
    67  H   -0.050508
    68  H   -0.078907
    69  H   -0.071206
    70  H   -0.020510
    71  H   -0.005050
    72  H   -0.020164
    73  H   -0.026423
    74  H    0.010649
    75  H   -0.019254
    76  H   -0.019254
    77  H   -0.006407
    78  H    0.005140
    79  H    0.005973
    80  H   -0.038145
    81  H    0.012411
    82  H    0.011099
    83  H    0.001394
    84  H   -0.007347
    85  H   -0.012326
    86  H   -0.018639
    87  H    0.020512
    88  H   -0.024955
    89  H   -0.017810
    90  H   -0.003605
    91  H   -0.019088
    92  H   -0.012249
    93  H   -0.013063
    94  H   -0.005131
    95  H   -0.000009
    96  H    0.008147
    97  H    0.000363
    98  H    0.005642
    99  H    0.029118
   100  H    0.020540
   101  H    0.011898
   102  H   -0.022106
   103  H   -0.004552
   104  H   -0.038430
   105  H   -0.010784
   106  H   -0.034071
   107  H    0.002863
   108  H   -0.038122
   109  H   -0.031329
   110  H   -0.025330
   111  H   -0.039324
   112  H   -0.046589
   113  H   -0.043041
   114  H   -0.019856
   115  H   -0.010914
   116  H   -0.021476
   117  H   -0.018251
   118  H   -0.046514
   119  H   -0.053403
   120  H   -0.020527
   121  H   -0.037942
   122  H   -0.036699
   123  H   -0.022499
   124  H   -0.028711
   125  H   -0.010168
   126  H   -0.016556
   127  H   -0.030506
   128  H   -0.032067
   129  H   -0.024638
   130  H   -0.028023
   131  H   -0.034125
   132  H   -0.040851
   133  H   -0.033274
   134  H   -0.029466
   135  H   -0.009100
   136  H   -0.030278
   137  H   -0.014852
   138  H   -0.014199
   139  H   -0.024419
   140  H   -0.018294
 Sum of Mulliken charges =  -0.00000

 Dipole moment (field-independent basis, Debye):
    X=              0.7269    Y=              1.7294    Z=              1.9406  Tot=              2.6991
 Quadrupole moment (field-independent basis, Debye-Ang):
   XX=           -364.7736   YY=           -441.5185   ZZ=           -404.3515
   XY=             12.1756   XZ=             11.8102   YZ=             40.6485

 Normal termination of Gaussian 16 at Thu May  5 04:56:51 2022.
