 Gaussian 16, Revision A.03,
 Gaussian 16:  ES64L-G16RevA.03 25-Dec-2016

 -----------------------------------
 #p cam-b3lyp/Def2SVP td=(nstates=5)
 -----------------------------------

 ------------------------------------------------------
 step_551_chromophore_5 TDDFT with cam-b3lyp functional
 ------------------------------------------------------
 Symbolic Z-matrix:
 Charge =  0 Multiplicity = 1

                         Standard orientation:
 ---------------------------------------------------------------------
 Center     Atomic      Atomic             Coordinates (Angstroms)
 Number     Number       Type             X           Y           Z
 ---------------------------------------------------------------------
      1         12           0        5.534464    0.500912   -0.299597
      2          6           0        4.149332   -2.661696    0.206789
      3          6           0        3.125961    1.152600   -2.844471
      4          6           0        5.981701    3.815156    0.045675
      5          6           0        7.322879   -0.041360    2.729950
      6          7           0        3.934265   -0.672003   -1.299289
      7          6           0        3.524260   -1.987172   -0.847587
      8          6           0        2.273200   -2.363438   -1.644290
      9          6           0        2.036285   -1.252394   -2.722690
     10          6           0        3.086599   -0.117535   -2.232391
     11          6           0        2.367131   -1.623818   -4.211391
     12          6           0        1.066343   -2.650312   -0.754547
     13          6           0        0.074827   -3.602463   -1.500662
     14          6           0       -1.035955   -2.847489   -2.265004
     15          8           0       -0.884461   -2.209647   -3.286191
     16          8           0       -2.314818   -2.979837   -1.672614
     17          7           0        4.822225    2.237885   -1.403943
     18          6           0        3.919025    2.282889   -2.445516
     19          6           0        3.904648    3.624811   -2.920243
     20          6           0        4.622972    4.422562   -2.136796
     21          6           0        5.178219    3.484373   -1.096630
     22          6           0        3.013033    4.054382   -4.083488
     23          6           0        4.756803    5.828777   -2.302980
     24          8           0        4.485505    6.417004   -3.335633
     25          6           0        5.307535    6.695562   -1.171866
     26          7           0        6.558983    1.704464    1.214296
     27          6           0        6.596443    3.027582    1.109321
     28          6           0        7.359526    3.741368    2.212594
     29          6           0        7.745746    2.478854    3.148354
     30          6           0        7.211455    1.307718    2.299941
     31          6           0        8.548842    4.553047    1.583577
     32          6           0        7.137594    2.393881    4.615547
     33          6           0        8.132066    1.944239    5.658673
     34          7           0        5.884233   -1.123912    1.051582
     35          6           0        6.652432   -1.237843    2.179584
     36          6           0        6.566984   -2.571924    2.679360
     37          6           0        5.645939   -3.146497    1.909227
     38          6           0        5.187785   -2.243447    0.973408
     39          6           0        7.265101   -3.077162    3.925774
     40          6           0        4.795810   -4.376769    1.815805
     41          8           0        4.755138   -5.426446    2.439452
     42          6           0        3.782216   -4.070770    0.709418
     43          6           0        3.765260   -5.207449   -0.320283
     44          8           0        2.723802   -5.697189   -0.708187
     45          8           0        4.990631   -5.474134   -0.943458
     46          6           0        4.847077   -6.186146   -2.233776
     47          6           0       -3.403953   -2.511562   -2.538764
     48          6           0       -3.834017   -1.123197   -2.045530
     49          6           0       -4.556666   -0.745730   -0.954767
     50          6           0       -5.139100   -1.737215   -0.023317
     51          6           0       -4.846898    0.747579   -0.739788
     52          6           0       -6.215819    1.232175   -1.020439
     53          6           0       -6.667401    2.507463   -0.259435
     54          6           0       -8.014284    2.306890    0.487486
     55          6           0       -8.588005    3.570243    1.206853
     56          6           0       -7.694273    1.295722    1.712193
     57          6           0       -8.946830    0.473589    2.172177
     58          6           0       -9.553926   -0.491897    1.093333
     59          6           0      -10.952232    0.048513    0.471198
     60          6           0      -10.780616    0.199089   -1.060694
     61          6           0      -12.134084   -0.897844    0.814979
     62          6           0      -12.949412   -0.405908    2.013116
     63          6           0      -14.531310   -0.399549    1.666485
     64          6           0      -15.137013    1.052574    1.605332
     65          6           0      -16.475932    1.021456    2.301044
     66          6           0      -15.212362    1.479905    0.107324
     67          1           0        2.417155    1.445105   -3.623054
     68          1           0        6.020152    4.881520    0.277678
     69          1           0        7.917804   -0.246212    3.622647
     70          1           0        2.615495   -3.306931   -2.068566
     71          1           0        1.090109   -0.712530   -2.684924
     72          1           0        2.942771   -2.546883   -4.276713
     73          1           0        3.068073   -0.899647   -4.627737
     74          1           0        1.480538   -1.526604   -4.838649
     75          1           0        0.615847   -1.658451   -0.740556
     76          1           0        1.369411   -2.834154    0.275945
     77          1           0       -0.363101   -4.312825   -0.800508
     78          1           0        0.604451   -4.105972   -2.309239
     79          1           0        2.117423    4.539076   -3.694242
     80          1           0        2.715056    3.094550   -4.505812
     81          1           0        3.395469    4.601729   -4.945655
     82          1           0        6.356310    6.426003   -1.046013
     83          1           0        4.890487    6.504949   -0.183233
     84          1           0        5.090810    7.735362   -1.418027
     85          1           0        6.775370    4.482011    2.758493
     86          1           0        8.827849    2.403665    3.046697
     87          1           0        8.523481    4.782156    0.517726
     88          1           0        9.443739    4.009740    1.886579
     89          1           0        8.704107    5.482891    2.130569
     90          1           0        6.331373    1.671479    4.745567
     91          1           0        6.770039    3.339250    5.015898
     92          1           0        7.801561    1.039888    6.169422
     93          1           0        8.216679    2.658462    6.477518
     94          1           0        9.098852    1.749827    5.194224
     95          1           0        8.334776   -3.110826    3.722627
     96          1           0        6.859213   -4.068126    4.131765
     97          1           0        7.065515   -2.399601    4.755366
     98          1           0        2.804244   -4.011889    1.187001
     99          1           0        3.923547   -6.088210   -2.803421
    100          1           0        5.040245   -7.231961   -1.995733
    101          1           0        5.665045   -5.787491   -2.834986
    102          1           0       -4.204666   -3.230107   -2.364644
    103          1           0       -3.130880   -2.489250   -3.593812
    104          1           0       -3.540922   -0.328803   -2.732219
    105          1           0       -5.749861   -2.507206   -0.494871
    106          1           0       -5.831422   -1.232266    0.651737
    107          1           0       -4.550994   -2.335424    0.673105
    108          1           0       -4.147119    1.254500   -1.402957
    109          1           0       -4.617458    1.067038    0.276210
    110          1           0       -6.855463    0.354764   -0.930780
    111          1           0       -6.231498    1.431651   -2.091689
    112          1           0       -6.723878    3.386944   -0.899943
    113          1           0       -5.966124    2.926075    0.462535
    114          1           0       -8.707720    1.936408   -0.266407
    115          1           0       -8.772550    3.312101    2.249581
    116          1           0       -9.559940    3.862843    0.809454
    117          1           0       -7.902178    4.412144    1.119859
    118          1           0       -7.275016    1.808678    2.577901
    119          1           0       -6.831935    0.646432    1.562721
    120          1           0       -9.733861    1.117968    2.560542
    121          1           0       -8.472250   -0.187133    2.897203
    122          1           0       -9.827034   -1.377035    1.668793
    123          1           0       -8.779855   -0.732748    0.365179
    124          1           0      -11.212642    1.049161    0.814714
    125          1           0       -9.758402    0.040563   -1.401916
    126          1           0      -11.171285    1.172281   -1.358941
    127          1           0      -11.383897   -0.552830   -1.568572
    128          1           0      -11.742633   -1.846962    1.182543
    129          1           0      -12.805271   -1.036946   -0.032492
    130          1           0      -12.739659    0.608464    2.351464
    131          1           0      -12.727318   -1.081802    2.838763
    132          1           0      -14.902348   -1.090507    2.424728
    133          1           0      -14.732521   -1.011943    0.787927
    134          1           0      -14.512469    1.757571    2.152911
    135          1           0      -16.895346    0.018918    2.212319
    136          1           0      -17.143009    1.734532    1.815170
    137          1           0      -16.375751    1.355351    3.333310
    138          1           0      -16.223622    1.687585   -0.242884
    139          1           0      -14.824102    0.746732   -0.598976
    140          1           0      -14.510509    2.292460   -0.079560
 ---------------------------------------------------------------------

 SCF Done:  E(RCAM-B3LYP) =  -3007.13856313     A.U. after   17 cycles

 Excitation energies and oscillator strengths:

 Excited State   1:      Singlet-A      1.7511 eV  708.05 nm  f=0.3695  <S**2>=0.000
     245 -> 248        0.18341
     246 -> 247        0.68470
     245 <- 248        0.10490
 This state for optimization and/or second-order correction.
 Total Energy, E(TD-HF/TD-DFT) =  -3007.07421292
 Copying the excited state density for this state as the 1-particle RhoCI density.

 Excited State   2:      Singlet-A      2.2753 eV  544.92 nm  f=0.0741  <S**2>=0.000
     245 -> 247        0.61816
     246 -> 248       -0.33168

 Excited State   3:      Singlet-A      3.4682 eV  357.49 nm  f=0.6957  <S**2>=0.000
     240 -> 247        0.17107
     245 -> 247        0.31276
     246 -> 248        0.60342
     245 <- 247       -0.11047

 Excited State   4:      Singlet-A      3.5197 eV  352.26 nm  f=0.0002  <S**2>=0.000
     241 -> 247        0.55422
     241 -> 248       -0.16144
     241 -> 249       -0.28130
     241 -> 251       -0.23465

 Excited State   5:      Singlet-A      3.6423 eV  340.40 nm  f=0.0297  <S**2>=0.000
     239 -> 247       -0.14910
     240 -> 247       -0.15046
     243 -> 247        0.64139

 The electronic state is 1-A.
 Alpha  occ. eigenvalues --  -46.90767 -19.25059 -19.24066 -19.20449 -19.20430
 Alpha  occ. eigenvalues --  -19.19175 -19.18467 -14.42724 -14.42616 -14.40222
 Alpha  occ. eigenvalues --  -14.38992 -10.40005 -10.39553 -10.34927 -10.34349
 Alpha  occ. eigenvalues --  -10.32080 -10.31880 -10.31797 -10.31505 -10.31460
 Alpha  occ. eigenvalues --  -10.31286 -10.30894 -10.30539 -10.29263 -10.29046
 Alpha  occ. eigenvalues --  -10.29028 -10.28615 -10.28005 -10.27958 -10.27871
 Alpha  occ. eigenvalues --  -10.27714 -10.27683 -10.27637 -10.27483 -10.27466
 Alpha  occ. eigenvalues --  -10.27458 -10.27233 -10.27164 -10.27000 -10.26863
 Alpha  occ. eigenvalues --  -10.26446 -10.26221 -10.26137 -10.25942 -10.25839
 Alpha  occ. eigenvalues --  -10.25741 -10.25724 -10.25615 -10.25481 -10.25359
 Alpha  occ. eigenvalues --  -10.25354 -10.25280 -10.25128 -10.25089 -10.25070
 Alpha  occ. eigenvalues --  -10.25028 -10.25006 -10.24968 -10.24660 -10.24478
 Alpha  occ. eigenvalues --  -10.24469 -10.24440 -10.24229 -10.24211 -10.24046
 Alpha  occ. eigenvalues --  -10.23959  -3.18952  -1.93871  -1.93388  -1.93244
 Alpha  occ. eigenvalues --   -1.15953  -1.15545  -1.10265  -1.09941  -1.07748
 Alpha  occ. eigenvalues --   -1.07467  -1.05878  -1.04958  -1.04612  -1.00805
 Alpha  occ. eigenvalues --   -0.92991  -0.90362  -0.89417  -0.88980  -0.88925
 Alpha  occ. eigenvalues --   -0.88667  -0.88013  -0.87888  -0.87366  -0.86827
 Alpha  occ. eigenvalues --   -0.86567  -0.84564  -0.84220  -0.83773  -0.83116
 Alpha  occ. eigenvalues --   -0.82004  -0.81846  -0.80993  -0.80292  -0.80154
 Alpha  occ. eigenvalues --   -0.79645  -0.77956  -0.77804  -0.77408  -0.76584
 Alpha  occ. eigenvalues --   -0.75946  -0.75647  -0.75324  -0.74235  -0.73453
 Alpha  occ. eigenvalues --   -0.73308  -0.72614  -0.71875  -0.70523  -0.69281
 Alpha  occ. eigenvalues --   -0.68994  -0.67717  -0.67270  -0.66637  -0.66350
 Alpha  occ. eigenvalues --   -0.65413  -0.65276  -0.64939  -0.64528  -0.64014
 Alpha  occ. eigenvalues --   -0.63175  -0.62886  -0.62861  -0.62661  -0.60298
 Alpha  occ. eigenvalues --   -0.59942  -0.59582  -0.59058  -0.58534  -0.57968
 Alpha  occ. eigenvalues --   -0.57579  -0.57017  -0.56754  -0.55662  -0.55101
 Alpha  occ. eigenvalues --   -0.54932  -0.54752  -0.54578  -0.54370  -0.53925
 Alpha  occ. eigenvalues --   -0.53498  -0.53336  -0.53138  -0.52720  -0.52541
 Alpha  occ. eigenvalues --   -0.52431  -0.52266  -0.52064  -0.51949  -0.51902
 Alpha  occ. eigenvalues --   -0.51800  -0.51446  -0.51305  -0.50770  -0.50507
 Alpha  occ. eigenvalues --   -0.50136  -0.50044  -0.49739  -0.49582  -0.49514
 Alpha  occ. eigenvalues --   -0.49375  -0.49237  -0.48947  -0.48786  -0.48677
 Alpha  occ. eigenvalues --   -0.48524  -0.48336  -0.48047  -0.47888  -0.47519
 Alpha  occ. eigenvalues --   -0.47156  -0.46945  -0.46797  -0.46722  -0.46483
 Alpha  occ. eigenvalues --   -0.46458  -0.46114  -0.45964  -0.45918  -0.45734
 Alpha  occ. eigenvalues --   -0.45600  -0.45462  -0.45324  -0.45288  -0.45001
 Alpha  occ. eigenvalues --   -0.44795  -0.44685  -0.44413  -0.44092  -0.43981
 Alpha  occ. eigenvalues --   -0.43784  -0.43740  -0.43272  -0.43146  -0.42848
 Alpha  occ. eigenvalues --   -0.42757  -0.42514  -0.42227  -0.42051  -0.41937
 Alpha  occ. eigenvalues --   -0.41694  -0.41608  -0.41443  -0.41350  -0.41254
 Alpha  occ. eigenvalues --   -0.40940  -0.40496  -0.40456  -0.40371  -0.40198
 Alpha  occ. eigenvalues --   -0.39796  -0.39556  -0.39517  -0.39299  -0.38825
 Alpha  occ. eigenvalues --   -0.38524  -0.38382  -0.38035  -0.37944  -0.37606
 Alpha  occ. eigenvalues --   -0.36926  -0.36821  -0.36686  -0.36394  -0.36326
 Alpha  occ. eigenvalues --   -0.35737  -0.35462  -0.34851  -0.34587  -0.33931
 Alpha  occ. eigenvalues --   -0.33821  -0.33689  -0.33133  -0.32062  -0.31086
 Alpha  occ. eigenvalues --   -0.30996  -0.30772  -0.30184  -0.29916  -0.24316
 Alpha  occ. eigenvalues --   -0.21136
 Alpha virt. eigenvalues --   -0.08481  -0.02208   0.00535   0.01567   0.02719
 Alpha virt. eigenvalues --    0.04337   0.04422   0.04776   0.05534   0.06763
 Alpha virt. eigenvalues --    0.07842   0.08375   0.08569   0.08915   0.08959

 Mulliken charges:
               1
     1  Mg   0.823838
     2  C   -0.036521
     3  C   -0.039250
     4  C   -0.074511
     5  C   -0.062685
     6  N   -0.330746
     7  C   -0.062541
     8  C    0.000182
     9  C   -0.064801
    10  C    0.056719
    11  C    0.082007
    12  C    0.060707
    13  C    0.139067
    14  C    0.132444
    15  O   -0.231961
    16  O   -0.354116
    17  N   -0.331891
    18  C    0.065341
    19  C   -0.137280
    20  C    0.069691
    21  C    0.129650
    22  C    0.130702
    23  C   -0.074437
    24  O   -0.198044
    25  C    0.039419
    26  N   -0.230929
    27  C    0.007417
    28  C   -0.071150
    29  C    0.030193
    30  C   -0.006088
    31  C    0.051946
    32  C    0.047331
    33  C   -0.016494
    34  N   -0.296686
    35  C    0.043506
    36  C   -0.216029
    37  C   -0.005539
    38  C    0.126951
    39  C    0.132650
    40  C    0.068774
    41  O   -0.159950
    42  C    0.011506
    43  C    0.216687
    44  O   -0.216747
    45  O   -0.358435
    46  C    0.169984
    47  C    0.318397
    48  C   -0.146455
    49  C   -0.145583
    50  C    0.076290
    51  C    0.084005
    52  C    0.046801
    53  C    0.067557
    54  C   -0.142393
    55  C    0.066131
    56  C    0.008301
    57  C    0.037147
    58  C    0.056101
    59  C   -0.150205
    60  C    0.050367
    61  C    0.071893
    62  C   -0.008638
    63  C    0.003849
    64  C   -0.131227
    65  C    0.062685
    66  C    0.046430
    67  H   -0.014469
    68  H   -0.045310
    69  H   -0.035816
    70  H    0.009454
    71  H    0.029210
    72  H    0.005766
    73  H    0.000009
    74  H    0.036468
    75  H    0.011326
    76  H    0.012233
    77  H    0.031319
    78  H    0.036229
    79  H    0.034665
    80  H   -0.012649
    81  H    0.044282
    82  H    0.036934
    83  H    0.030339
    84  H    0.029822
    85  H    0.021685
    86  H    0.015241
    87  H    0.043895
    88  H    0.001538
    89  H    0.008581
    90  H    0.027382
    91  H    0.008904
    92  H    0.011165
    93  H    0.011806
    94  H    0.016599
    95  H    0.024430
    96  H    0.034497
    97  H    0.022467
    98  H    0.046444
    99  H    0.050543
   100  H    0.042963
   101  H    0.034741
   102  H    0.008453
   103  H    0.029932
   104  H   -0.006795
   105  H    0.013643
   106  H   -0.013095
   107  H    0.030911
   108  H   -0.007146
   109  H   -0.002257
   110  H   -0.001985
   111  H   -0.008538
   112  H   -0.015117
   113  H   -0.014643
   114  H    0.007890
   115  H    0.012339
   116  H    0.002503
   117  H    0.006173
   118  H   -0.014948
   119  H   -0.029771
   120  H    0.003464
   121  H   -0.008043
   122  H   -0.007964
   123  H    0.000748
   124  H   -0.001015
   125  H    0.010508
   126  H    0.006525
   127  H   -0.004585
   128  H   -0.003129
   129  H    0.001317
   130  H   -0.003616
   131  H   -0.004961
   132  H   -0.009972
   133  H   -0.005287
   134  H    0.002203
   135  H    0.013931
   136  H   -0.005298
   137  H    0.009794
   138  H    0.010353
   139  H   -0.001764
   140  H    0.005215
 Sum of Mulliken charges =  -0.00000

 Dipole moment (field-independent basis, Debye):
    X=              0.7065    Y=              2.7476    Z=              1.5059  Tot=              3.2119
 Quadrupole moment (field-independent basis, Debye-Ang):
   XX=           -366.3450   YY=           -437.8906   ZZ=           -402.5680
   XY=             18.1678   XZ=             10.8208   YZ=             41.2613

 Normal termination of Gaussian 16 at Thu May  5 03:38:44 2022.
