 Gaussian 16, Revision A.03,
 Gaussian 16:  ES64L-G16RevA.03 25-Dec-2016

 ---------------------------------
 #p PBE1PBE/Def2SVP td=(nstates=5)
 ---------------------------------

 ----------------------------------------------------
 step_551_chromophore_5 TDDFT with PBE1PBE functional
 ----------------------------------------------------
 Symbolic Z-matrix:
 Charge =  0 Multiplicity = 1

                         Standard orientation:
 ---------------------------------------------------------------------
 Center     Atomic      Atomic             Coordinates (Angstroms)
 Number     Number       Type             X           Y           Z
 ---------------------------------------------------------------------
      1         12           0        5.534464    0.500912   -0.299597
      2          6           0        4.149332   -2.661696    0.206789
      3          6           0        3.125961    1.152600   -2.844471
      4          6           0        5.981701    3.815156    0.045675
      5          6           0        7.322879   -0.041360    2.729950
      6          7           0        3.934265   -0.672003   -1.299289
      7          6           0        3.524260   -1.987172   -0.847587
      8          6           0        2.273200   -2.363438   -1.644290
      9          6           0        2.036285   -1.252394   -2.722690
     10          6           0        3.086599   -0.117535   -2.232391
     11          6           0        2.367131   -1.623818   -4.211391
     12          6           0        1.066343   -2.650312   -0.754547
     13          6           0        0.074827   -3.602463   -1.500662
     14          6           0       -1.035955   -2.847489   -2.265004
     15          8           0       -0.884461   -2.209647   -3.286191
     16          8           0       -2.314818   -2.979837   -1.672614
     17          7           0        4.822225    2.237885   -1.403943
     18          6           0        3.919025    2.282889   -2.445516
     19          6           0        3.904648    3.624811   -2.920243
     20          6           0        4.622972    4.422562   -2.136796
     21          6           0        5.178219    3.484373   -1.096630
     22          6           0        3.013033    4.054382   -4.083488
     23          6           0        4.756803    5.828777   -2.302980
     24          8           0        4.485505    6.417004   -3.335633
     25          6           0        5.307535    6.695562   -1.171866
     26          7           0        6.558983    1.704464    1.214296
     27          6           0        6.596443    3.027582    1.109321
     28          6           0        7.359526    3.741368    2.212594
     29          6           0        7.745746    2.478854    3.148354
     30          6           0        7.211455    1.307718    2.299941
     31          6           0        8.548842    4.553047    1.583577
     32          6           0        7.137594    2.393881    4.615547
     33          6           0        8.132066    1.944239    5.658673
     34          7           0        5.884233   -1.123912    1.051582
     35          6           0        6.652432   -1.237843    2.179584
     36          6           0        6.566984   -2.571924    2.679360
     37          6           0        5.645939   -3.146497    1.909227
     38          6           0        5.187785   -2.243447    0.973408
     39          6           0        7.265101   -3.077162    3.925774
     40          6           0        4.795810   -4.376769    1.815805
     41          8           0        4.755138   -5.426446    2.439452
     42          6           0        3.782216   -4.070770    0.709418
     43          6           0        3.765260   -5.207449   -0.320283
     44          8           0        2.723802   -5.697189   -0.708187
     45          8           0        4.990631   -5.474134   -0.943458
     46          6           0        4.847077   -6.186146   -2.233776
     47          6           0       -3.403953   -2.511562   -2.538764
     48          6           0       -3.834017   -1.123197   -2.045530
     49          6           0       -4.556666   -0.745730   -0.954767
     50          6           0       -5.139100   -1.737215   -0.023317
     51          6           0       -4.846898    0.747579   -0.739788
     52          6           0       -6.215819    1.232175   -1.020439
     53          6           0       -6.667401    2.507463   -0.259435
     54          6           0       -8.014284    2.306890    0.487486
     55          6           0       -8.588005    3.570243    1.206853
     56          6           0       -7.694273    1.295722    1.712193
     57          6           0       -8.946830    0.473589    2.172177
     58          6           0       -9.553926   -0.491897    1.093333
     59          6           0      -10.952232    0.048513    0.471198
     60          6           0      -10.780616    0.199089   -1.060694
     61          6           0      -12.134084   -0.897844    0.814979
     62          6           0      -12.949412   -0.405908    2.013116
     63          6           0      -14.531310   -0.399549    1.666485
     64          6           0      -15.137013    1.052574    1.605332
     65          6           0      -16.475932    1.021456    2.301044
     66          6           0      -15.212362    1.479905    0.107324
     67          1           0        2.417155    1.445105   -3.623054
     68          1           0        6.020152    4.881520    0.277678
     69          1           0        7.917804   -0.246212    3.622647
     70          1           0        2.615495   -3.306931   -2.068566
     71          1           0        1.090109   -0.712530   -2.684924
     72          1           0        2.942771   -2.546883   -4.276713
     73          1           0        3.068073   -0.899647   -4.627737
     74          1           0        1.480538   -1.526604   -4.838649
     75          1           0        0.615847   -1.658451   -0.740556
     76          1           0        1.369411   -2.834154    0.275945
     77          1           0       -0.363101   -4.312825   -0.800508
     78          1           0        0.604451   -4.105972   -2.309239
     79          1           0        2.117423    4.539076   -3.694242
     80          1           0        2.715056    3.094550   -4.505812
     81          1           0        3.395469    4.601729   -4.945655
     82          1           0        6.356310    6.426003   -1.046013
     83          1           0        4.890487    6.504949   -0.183233
     84          1           0        5.090810    7.735362   -1.418027
     85          1           0        6.775370    4.482011    2.758493
     86          1           0        8.827849    2.403665    3.046697
     87          1           0        8.523481    4.782156    0.517726
     88          1           0        9.443739    4.009740    1.886579
     89          1           0        8.704107    5.482891    2.130569
     90          1           0        6.331373    1.671479    4.745567
     91          1           0        6.770039    3.339250    5.015898
     92          1           0        7.801561    1.039888    6.169422
     93          1           0        8.216679    2.658462    6.477518
     94          1           0        9.098852    1.749827    5.194224
     95          1           0        8.334776   -3.110826    3.722627
     96          1           0        6.859213   -4.068126    4.131765
     97          1           0        7.065515   -2.399601    4.755366
     98          1           0        2.804244   -4.011889    1.187001
     99          1           0        3.923547   -6.088210   -2.803421
    100          1           0        5.040245   -7.231961   -1.995733
    101          1           0        5.665045   -5.787491   -2.834986
    102          1           0       -4.204666   -3.230107   -2.364644
    103          1           0       -3.130880   -2.489250   -3.593812
    104          1           0       -3.540922   -0.328803   -2.732219
    105          1           0       -5.749861   -2.507206   -0.494871
    106          1           0       -5.831422   -1.232266    0.651737
    107          1           0       -4.550994   -2.335424    0.673105
    108          1           0       -4.147119    1.254500   -1.402957
    109          1           0       -4.617458    1.067038    0.276210
    110          1           0       -6.855463    0.354764   -0.930780
    111          1           0       -6.231498    1.431651   -2.091689
    112          1           0       -6.723878    3.386944   -0.899943
    113          1           0       -5.966124    2.926075    0.462535
    114          1           0       -8.707720    1.936408   -0.266407
    115          1           0       -8.772550    3.312101    2.249581
    116          1           0       -9.559940    3.862843    0.809454
    117          1           0       -7.902178    4.412144    1.119859
    118          1           0       -7.275016    1.808678    2.577901
    119          1           0       -6.831935    0.646432    1.562721
    120          1           0       -9.733861    1.117968    2.560542
    121          1           0       -8.472250   -0.187133    2.897203
    122          1           0       -9.827034   -1.377035    1.668793
    123          1           0       -8.779855   -0.732748    0.365179
    124          1           0      -11.212642    1.049161    0.814714
    125          1           0       -9.758402    0.040563   -1.401916
    126          1           0      -11.171285    1.172281   -1.358941
    127          1           0      -11.383897   -0.552830   -1.568572
    128          1           0      -11.742633   -1.846962    1.182543
    129          1           0      -12.805271   -1.036946   -0.032492
    130          1           0      -12.739659    0.608464    2.351464
    131          1           0      -12.727318   -1.081802    2.838763
    132          1           0      -14.902348   -1.090507    2.424728
    133          1           0      -14.732521   -1.011943    0.787927
    134          1           0      -14.512469    1.757571    2.152911
    135          1           0      -16.895346    0.018918    2.212319
    136          1           0      -17.143009    1.734532    1.815170
    137          1           0      -16.375751    1.355351    3.333310
    138          1           0      -16.223622    1.687585   -0.242884
    139          1           0      -14.824102    0.746732   -0.598976
    140          1           0      -14.510509    2.292460   -0.079560
 ---------------------------------------------------------------------

 SCF Done:  E(RPBE1PBE) =  -3005.32510887     A.U. after   15 cycles

 Excitation energies and oscillator strengths:

 Excited State   1:      Singlet-A      1.8802 eV  659.40 nm  f=0.3608  <S**2>=0.000
     245 -> 248       -0.17991
     246 -> 247        0.69074
     246 <- 247       -0.10066
 This state for optimization and/or second-order correction.
 Total Energy, E(TD-HF/TD-DFT) =  -3005.25601112
 Copying the excited state density for this state as the 1-particle RhoCI density.

 Excited State   2:      Singlet-A      2.2796 eV  543.88 nm  f=0.0767  <S**2>=0.000
     245 -> 247        0.63246
     246 -> 248        0.30803

 Excited State   3:      Singlet-A      3.0098 eV  411.93 nm  f=0.0001  <S**2>=0.000
     243 -> 247        0.66766
     243 -> 248       -0.10535
     243 -> 249       -0.15283
     243 -> 250       -0.12257

 Excited State   4:      Singlet-A      3.1582 eV  392.58 nm  f=0.0000  <S**2>=0.000
     241 -> 247        0.17354
     242 -> 247        0.65080
     242 -> 249        0.15115

 Excited State   5:      Singlet-A      3.2730 eV  378.81 nm  f=0.1119  <S**2>=0.000
     241 -> 247        0.58055
     242 -> 247       -0.15426
     245 -> 247       -0.13532
     246 -> 248        0.31061

 The electronic state is 1-A.
 Alpha  occ. eigenvalues --  -46.94137 -19.25786 -19.24790 -19.20737 -19.20696
 Alpha  occ. eigenvalues --  -19.19574 -19.18453 -14.42182 -14.42179 -14.39707
 Alpha  occ. eigenvalues --  -14.38749 -10.37127 -10.36603 -10.32259 -10.31228
 Alpha  occ. eigenvalues --  -10.29599 -10.29455 -10.29273 -10.29087 -10.28867
 Alpha  occ. eigenvalues --  -10.28855 -10.28816 -10.27868 -10.27349 -10.26976
 Alpha  occ. eigenvalues --  -10.26820 -10.26356 -10.25814 -10.25796 -10.25516
 Alpha  occ. eigenvalues --  -10.25398 -10.25279 -10.25248 -10.25210 -10.25150
 Alpha  occ. eigenvalues --  -10.25115 -10.24895 -10.24840 -10.24697 -10.24429
 Alpha  occ. eigenvalues --  -10.24332 -10.23845 -10.23617 -10.23566 -10.23458
 Alpha  occ. eigenvalues --  -10.23339 -10.22961 -10.22959 -10.22924 -10.22896
 Alpha  occ. eigenvalues --  -10.22805 -10.22685 -10.22664 -10.22651 -10.22649
 Alpha  occ. eigenvalues --  -10.22626 -10.22537 -10.22517 -10.22288 -10.22154
 Alpha  occ. eigenvalues --  -10.22037 -10.21865 -10.21827 -10.21797 -10.21416
 Alpha  occ. eigenvalues --  -10.21357  -3.15911  -1.88768  -1.88266  -1.88124
 Alpha  occ. eigenvalues --   -1.10781  -1.10322  -1.04851  -1.04768  -1.02667
 Alpha  occ. eigenvalues --   -1.02339  -1.00558  -0.99854  -0.99069  -0.95347
 Alpha  occ. eigenvalues --   -0.87498  -0.84470  -0.83666  -0.83196  -0.83053
 Alpha  occ. eigenvalues --   -0.82863  -0.82111  -0.82075  -0.81853  -0.80948
 Alpha  occ. eigenvalues --   -0.80872  -0.78755  -0.78449  -0.78071  -0.77340
 Alpha  occ. eigenvalues --   -0.76223  -0.76063  -0.75151  -0.74580  -0.74369
 Alpha  occ. eigenvalues --   -0.73871  -0.72291  -0.72132  -0.71521  -0.70946
 Alpha  occ. eigenvalues --   -0.70114  -0.69729  -0.69666  -0.68358  -0.67778
 Alpha  occ. eigenvalues --   -0.67604  -0.66932  -0.66285  -0.64802  -0.63621
 Alpha  occ. eigenvalues --   -0.63381  -0.62269  -0.61502  -0.61041  -0.60589
 Alpha  occ. eigenvalues --   -0.59908  -0.59457  -0.59416  -0.59097  -0.58125
 Alpha  occ. eigenvalues --   -0.57596  -0.57474  -0.57115  -0.56868  -0.54784
 Alpha  occ. eigenvalues --   -0.54529  -0.54159  -0.53480  -0.53183  -0.52505
 Alpha  occ. eigenvalues --   -0.52012  -0.51564  -0.51251  -0.50300  -0.49710
 Alpha  occ. eigenvalues --   -0.49316  -0.49218  -0.49194  -0.48963  -0.48311
 Alpha  occ. eigenvalues --   -0.48005  -0.47824  -0.47776  -0.47199  -0.47084
 Alpha  occ. eigenvalues --   -0.46902  -0.46848  -0.46573  -0.46513  -0.46409
 Alpha  occ. eigenvalues --   -0.46145  -0.46031  -0.45879  -0.45399  -0.45074
 Alpha  occ. eigenvalues --   -0.44887  -0.44469  -0.44330  -0.44185  -0.44125
 Alpha  occ. eigenvalues --   -0.43934  -0.43873  -0.43628  -0.43358  -0.43265
 Alpha  occ. eigenvalues --   -0.43094  -0.42957  -0.42703  -0.42450  -0.42195
 Alpha  occ. eigenvalues --   -0.41903  -0.41571  -0.41421  -0.41393  -0.41079
 Alpha  occ. eigenvalues --   -0.41012  -0.40793  -0.40718  -0.40576  -0.40386
 Alpha  occ. eigenvalues --   -0.40238  -0.40180  -0.40097  -0.39877  -0.39774
 Alpha  occ. eigenvalues --   -0.39515  -0.39467  -0.39121  -0.39029  -0.38755
 Alpha  occ. eigenvalues --   -0.38630  -0.38408  -0.38030  -0.37950  -0.37697
 Alpha  occ. eigenvalues --   -0.37644  -0.37225  -0.37007  -0.36870  -0.36672
 Alpha  occ. eigenvalues --   -0.36513  -0.36398  -0.36203  -0.36160  -0.35930
 Alpha  occ. eigenvalues --   -0.35754  -0.35344  -0.35296  -0.35132  -0.35072
 Alpha  occ. eigenvalues --   -0.34767  -0.34465  -0.34350  -0.34074  -0.33541
 Alpha  occ. eigenvalues --   -0.33493  -0.33164  -0.33011  -0.32721  -0.32394
 Alpha  occ. eigenvalues --   -0.31880  -0.31775  -0.31705  -0.31456  -0.31225
 Alpha  occ. eigenvalues --   -0.30578  -0.30446  -0.29761  -0.29595  -0.28957
 Alpha  occ. eigenvalues --   -0.28765  -0.28683  -0.28672  -0.27566  -0.26693
 Alpha  occ. eigenvalues --   -0.25962  -0.25711  -0.25482  -0.25242  -0.21192
 Alpha  occ. eigenvalues --   -0.18784
 Alpha virt. eigenvalues --   -0.11023  -0.05679  -0.03645  -0.01722  -0.01257
 Alpha virt. eigenvalues --   -0.00393  -0.00073   0.00196   0.01510   0.03038
 Alpha virt. eigenvalues --    0.03492   0.04835   0.05185   0.05367   0.05627

 Mulliken charges:
               1
     1  Mg   0.958248
     2  C   -0.055465
     3  C   -0.037294
     4  C   -0.066993
     5  C   -0.058886
     6  N   -0.427364
     7  C    0.026349
     8  C   -0.070565
     9  C   -0.140681
    10  C    0.094388
    11  C    0.026393
    12  C    0.002758
    13  C    0.060535
    14  C    0.198592
    15  O   -0.262400
    16  O   -0.381102
    17  N   -0.443438
    18  C    0.088677
    19  C   -0.158496
    20  C    0.008087
    21  C    0.164315
    22  C    0.075311
    23  C   -0.022589
    24  O   -0.235963
    25  C   -0.037708
    26  N   -0.338255
    27  C    0.042241
    28  C   -0.138366
    29  C   -0.048702
    30  C    0.034379
    31  C   -0.005225
    32  C   -0.014233
    33  C   -0.086475
    34  N   -0.426464
    35  C    0.076704
    36  C   -0.237722
    37  C   -0.058277
    38  C    0.175399
    39  C    0.077059
    40  C    0.177216
    41  O   -0.206805
    42  C   -0.095918
    43  C    0.303008
    44  O   -0.250902
    45  O   -0.388019
    46  C    0.114046
    47  C    0.264760
    48  C   -0.151953
    49  C   -0.188256
    50  C    0.011787
    51  C    0.019086
    52  C   -0.022485
    53  C    0.015895
    54  C   -0.231804
    55  C    0.009258
    56  C   -0.056421
    57  C   -0.027216
    58  C    0.000787
    59  C   -0.232784
    60  C   -0.011206
    61  C    0.015765
    62  C   -0.064793
    63  C   -0.048862
    64  C   -0.227228
    65  C    0.001120
    66  C   -0.009712
    67  H    0.015614
    68  H   -0.011683
    69  H   -0.000509
    70  H    0.051727
    71  H    0.064271
    72  H    0.032805
    73  H    0.028915
    74  H    0.063082
    75  H    0.047618
    76  H    0.044706
    77  H    0.062616
    78  H    0.068352
    79  H    0.061797
    80  H    0.015089
    81  H    0.069738
    82  H    0.063701
    83  H    0.056544
    84  H    0.057103
    85  H    0.056689
    86  H    0.052068
    87  H    0.070570
    88  H    0.029194
    89  H    0.036568
    90  H    0.059402
    91  H    0.042073
    92  H    0.038065
    93  H    0.040115
    94  H    0.043367
    95  H    0.053473
    96  H    0.063509
    97  H    0.050324
    98  H    0.084749
    99  H    0.070947
   100  H    0.065707
   101  H    0.057174
   102  H    0.036629
   103  H    0.056740
   104  H    0.022807
   105  H    0.040823
   106  H    0.019431
   107  H    0.058127
   108  H    0.025815
   109  H    0.031286
   110  H    0.034284
   111  H    0.025902
   112  H    0.018007
   113  H    0.016769
   114  H    0.052263
   115  H    0.039385
   116  H    0.030054
   117  H    0.033249
   118  H    0.018411
   119  H    0.008618
   120  H    0.035156
   121  H    0.026035
   122  H    0.025406
   123  H    0.034525
   124  H    0.035947
   125  H    0.037022
   126  H    0.033886
   127  H    0.023539
   128  H    0.029351
   129  H    0.032530
   130  H    0.027103
   131  H    0.027506
   132  H    0.022645
   133  H    0.025581
   134  H    0.038200
   135  H    0.041195
   136  H    0.022864
   137  H    0.038039
   138  H    0.036490
   139  H    0.025346
   140  H    0.032420
 Sum of Mulliken charges =  -0.00000

 Dipole moment (field-independent basis, Debye):
    X=              0.8255    Y=              2.3203    Z=              1.8993  Tot=              3.1101
 Quadrupole moment (field-independent basis, Debye-Ang):
   XX=           -360.9124   YY=           -435.7471   ZZ=           -398.6121
   XY=             16.2373   XZ=             13.6873   YZ=             41.9764

 Normal termination of Gaussian 16 at Thu May  5 04:07:06 2022.
