 Gaussian 16, Revision A.03,
 Gaussian 16:  ES64L-G16RevA.03 25-Dec-2016

 --------------------------------
 #p wB97XD/Def2SVP td=(nstates=5)
 --------------------------------

 ---------------------------------------------------
 step_551_chromophore_5 TDDFT with wB97XD functional
 ---------------------------------------------------
 Symbolic Z-matrix:
 Charge =  0 Multiplicity = 1

                         Standard orientation:
 ---------------------------------------------------------------------
 Center     Atomic      Atomic             Coordinates (Angstroms)
 Number     Number       Type             X           Y           Z
 ---------------------------------------------------------------------
      1         12           0        5.534464    0.500912   -0.299597
      2          6           0        4.149332   -2.661696    0.206789
      3          6           0        3.125961    1.152600   -2.844471
      4          6           0        5.981701    3.815156    0.045675
      5          6           0        7.322879   -0.041360    2.729950
      6          7           0        3.934265   -0.672003   -1.299289
      7          6           0        3.524260   -1.987172   -0.847587
      8          6           0        2.273200   -2.363438   -1.644290
      9          6           0        2.036285   -1.252394   -2.722690
     10          6           0        3.086599   -0.117535   -2.232391
     11          6           0        2.367131   -1.623818   -4.211391
     12          6           0        1.066343   -2.650312   -0.754547
     13          6           0        0.074827   -3.602463   -1.500662
     14          6           0       -1.035955   -2.847489   -2.265004
     15          8           0       -0.884461   -2.209647   -3.286191
     16          8           0       -2.314818   -2.979837   -1.672614
     17          7           0        4.822225    2.237885   -1.403943
     18          6           0        3.919025    2.282889   -2.445516
     19          6           0        3.904648    3.624811   -2.920243
     20          6           0        4.622972    4.422562   -2.136796
     21          6           0        5.178219    3.484373   -1.096630
     22          6           0        3.013033    4.054382   -4.083488
     23          6           0        4.756803    5.828777   -2.302980
     24          8           0        4.485505    6.417004   -3.335633
     25          6           0        5.307535    6.695562   -1.171866
     26          7           0        6.558983    1.704464    1.214296
     27          6           0        6.596443    3.027582    1.109321
     28          6           0        7.359526    3.741368    2.212594
     29          6           0        7.745746    2.478854    3.148354
     30          6           0        7.211455    1.307718    2.299941
     31          6           0        8.548842    4.553047    1.583577
     32          6           0        7.137594    2.393881    4.615547
     33          6           0        8.132066    1.944239    5.658673
     34          7           0        5.884233   -1.123912    1.051582
     35          6           0        6.652432   -1.237843    2.179584
     36          6           0        6.566984   -2.571924    2.679360
     37          6           0        5.645939   -3.146497    1.909227
     38          6           0        5.187785   -2.243447    0.973408
     39          6           0        7.265101   -3.077162    3.925774
     40          6           0        4.795810   -4.376769    1.815805
     41          8           0        4.755138   -5.426446    2.439452
     42          6           0        3.782216   -4.070770    0.709418
     43          6           0        3.765260   -5.207449   -0.320283
     44          8           0        2.723802   -5.697189   -0.708187
     45          8           0        4.990631   -5.474134   -0.943458
     46          6           0        4.847077   -6.186146   -2.233776
     47          6           0       -3.403953   -2.511562   -2.538764
     48          6           0       -3.834017   -1.123197   -2.045530
     49          6           0       -4.556666   -0.745730   -0.954767
     50          6           0       -5.139100   -1.737215   -0.023317
     51          6           0       -4.846898    0.747579   -0.739788
     52          6           0       -6.215819    1.232175   -1.020439
     53          6           0       -6.667401    2.507463   -0.259435
     54          6           0       -8.014284    2.306890    0.487486
     55          6           0       -8.588005    3.570243    1.206853
     56          6           0       -7.694273    1.295722    1.712193
     57          6           0       -8.946830    0.473589    2.172177
     58          6           0       -9.553926   -0.491897    1.093333
     59          6           0      -10.952232    0.048513    0.471198
     60          6           0      -10.780616    0.199089   -1.060694
     61          6           0      -12.134084   -0.897844    0.814979
     62          6           0      -12.949412   -0.405908    2.013116
     63          6           0      -14.531310   -0.399549    1.666485
     64          6           0      -15.137013    1.052574    1.605332
     65          6           0      -16.475932    1.021456    2.301044
     66          6           0      -15.212362    1.479905    0.107324
     67          1           0        2.417155    1.445105   -3.623054
     68          1           0        6.020152    4.881520    0.277678
     69          1           0        7.917804   -0.246212    3.622647
     70          1           0        2.615495   -3.306931   -2.068566
     71          1           0        1.090109   -0.712530   -2.684924
     72          1           0        2.942771   -2.546883   -4.276713
     73          1           0        3.068073   -0.899647   -4.627737
     74          1           0        1.480538   -1.526604   -4.838649
     75          1           0        0.615847   -1.658451   -0.740556
     76          1           0        1.369411   -2.834154    0.275945
     77          1           0       -0.363101   -4.312825   -0.800508
     78          1           0        0.604451   -4.105972   -2.309239
     79          1           0        2.117423    4.539076   -3.694242
     80          1           0        2.715056    3.094550   -4.505812
     81          1           0        3.395469    4.601729   -4.945655
     82          1           0        6.356310    6.426003   -1.046013
     83          1           0        4.890487    6.504949   -0.183233
     84          1           0        5.090810    7.735362   -1.418027
     85          1           0        6.775370    4.482011    2.758493
     86          1           0        8.827849    2.403665    3.046697
     87          1           0        8.523481    4.782156    0.517726
     88          1           0        9.443739    4.009740    1.886579
     89          1           0        8.704107    5.482891    2.130569
     90          1           0        6.331373    1.671479    4.745567
     91          1           0        6.770039    3.339250    5.015898
     92          1           0        7.801561    1.039888    6.169422
     93          1           0        8.216679    2.658462    6.477518
     94          1           0        9.098852    1.749827    5.194224
     95          1           0        8.334776   -3.110826    3.722627
     96          1           0        6.859213   -4.068126    4.131765
     97          1           0        7.065515   -2.399601    4.755366
     98          1           0        2.804244   -4.011889    1.187001
     99          1           0        3.923547   -6.088210   -2.803421
    100          1           0        5.040245   -7.231961   -1.995733
    101          1           0        5.665045   -5.787491   -2.834986
    102          1           0       -4.204666   -3.230107   -2.364644
    103          1           0       -3.130880   -2.489250   -3.593812
    104          1           0       -3.540922   -0.328803   -2.732219
    105          1           0       -5.749861   -2.507206   -0.494871
    106          1           0       -5.831422   -1.232266    0.651737
    107          1           0       -4.550994   -2.335424    0.673105
    108          1           0       -4.147119    1.254500   -1.402957
    109          1           0       -4.617458    1.067038    0.276210
    110          1           0       -6.855463    0.354764   -0.930780
    111          1           0       -6.231498    1.431651   -2.091689
    112          1           0       -6.723878    3.386944   -0.899943
    113          1           0       -5.966124    2.926075    0.462535
    114          1           0       -8.707720    1.936408   -0.266407
    115          1           0       -8.772550    3.312101    2.249581
    116          1           0       -9.559940    3.862843    0.809454
    117          1           0       -7.902178    4.412144    1.119859
    118          1           0       -7.275016    1.808678    2.577901
    119          1           0       -6.831935    0.646432    1.562721
    120          1           0       -9.733861    1.117968    2.560542
    121          1           0       -8.472250   -0.187133    2.897203
    122          1           0       -9.827034   -1.377035    1.668793
    123          1           0       -8.779855   -0.732748    0.365179
    124          1           0      -11.212642    1.049161    0.814714
    125          1           0       -9.758402    0.040563   -1.401916
    126          1           0      -11.171285    1.172281   -1.358941
    127          1           0      -11.383897   -0.552830   -1.568572
    128          1           0      -11.742633   -1.846962    1.182543
    129          1           0      -12.805271   -1.036946   -0.032492
    130          1           0      -12.739659    0.608464    2.351464
    131          1           0      -12.727318   -1.081802    2.838763
    132          1           0      -14.902348   -1.090507    2.424728
    133          1           0      -14.732521   -1.011943    0.787927
    134          1           0      -14.512469    1.757571    2.152911
    135          1           0      -16.895346    0.018918    2.212319
    136          1           0      -17.143009    1.734532    1.815170
    137          1           0      -16.375751    1.355351    3.333310
    138          1           0      -16.223622    1.687585   -0.242884
    139          1           0      -14.824102    0.746732   -0.598976
    140          1           0      -14.510509    2.292460   -0.079560
 ---------------------------------------------------------------------

 SCF Done:  E(RwB97XD) =  -3007.84045745     A.U. after   19 cycles

 Excitation energies and oscillator strengths:

 Excited State   1:      Singlet-A      1.7098 eV  725.15 nm  f=0.3674  <S**2>=0.000
     245 -> 248        0.18740
     246 -> 247        0.68273
     245 <- 248        0.11283
 This state for optimization and/or second-order correction.
 Total Energy, E(TD-HF/TD-DFT) =  -3007.77762473
 Copying the excited state density for this state as the 1-particle RhoCI density.

 Excited State   2:      Singlet-A      2.2257 eV  557.05 nm  f=0.0730  <S**2>=0.000
     245 -> 247        0.61698
     246 -> 248       -0.33197

 Excited State   3:      Singlet-A      3.4806 eV  356.22 nm  f=0.6922  <S**2>=0.000
     239 -> 247        0.10127
     240 -> 247       -0.19839
     245 -> 247        0.30603
     246 -> 248        0.59560
     245 <- 247       -0.11418

 Excited State   4:      Singlet-A      3.5180 eV  352.43 nm  f=0.0001  <S**2>=0.000
     241 -> 247        0.54144
     241 -> 248       -0.16092
     241 -> 249       -0.31882
     241 -> 251       -0.24118

 Excited State   5:      Singlet-A      3.6762 eV  337.26 nm  f=0.0488  <S**2>=0.000
     239 -> 247       -0.16325
     240 -> 247        0.20351
     242 -> 247       -0.12929
     243 -> 247        0.59944
     246 -> 248        0.12441

 The electronic state is 1-A.
 Alpha  occ. eigenvalues --  -46.97085 -19.30263 -19.29307 -19.25356 -19.25345
 Alpha  occ. eigenvalues --  -19.24157 -19.23549 -14.47280 -14.47248 -14.44846
 Alpha  occ. eigenvalues --  -14.43529 -10.43853 -10.43360 -10.38891 -10.38346
 Alpha  occ. eigenvalues --  -10.36161 -10.36010 -10.35652 -10.35512 -10.35341
 Alpha  occ. eigenvalues --  -10.35296 -10.34844 -10.34691 -10.33201 -10.33110
 Alpha  occ. eigenvalues --  -10.33093 -10.32637 -10.32102 -10.32064 -10.32029
 Alpha  occ. eigenvalues --  -10.31829 -10.31679 -10.31592 -10.31584 -10.31500
 Alpha  occ. eigenvalues --  -10.31356 -10.31234 -10.31122 -10.30919 -10.30764
 Alpha  occ. eigenvalues --  -10.30426 -10.30348 -10.30142 -10.29886 -10.29721
 Alpha  occ. eigenvalues --  -10.29657 -10.29651 -10.29605 -10.29291 -10.29279
 Alpha  occ. eigenvalues --  -10.29251 -10.29107 -10.29049 -10.29036 -10.29028
 Alpha  occ. eigenvalues --  -10.28975 -10.28929 -10.28888 -10.28606 -10.28380
 Alpha  occ. eigenvalues --  -10.28303 -10.28246 -10.28151 -10.28142 -10.27843
 Alpha  occ. eigenvalues --  -10.27786  -3.22765  -1.96363  -1.95857  -1.95714
 Alpha  occ. eigenvalues --   -1.18087  -1.17681  -1.12531  -1.12115  -1.09936
 Alpha  occ. eigenvalues --   -1.09664  -1.07875  -1.06960  -1.06725  -1.02798
 Alpha  occ. eigenvalues --   -0.94930  -0.92145  -0.91262  -0.90813  -0.90727
 Alpha  occ. eigenvalues --   -0.90616  -0.89902  -0.89774  -0.89263  -0.88605
 Alpha  occ. eigenvalues --   -0.88504  -0.86440  -0.86082  -0.85641  -0.85010
 Alpha  occ. eigenvalues --   -0.83854  -0.83752  -0.82923  -0.82191  -0.82027
 Alpha  occ. eigenvalues --   -0.81504  -0.79864  -0.79713  -0.79362  -0.78493
 Alpha  occ. eigenvalues --   -0.77779  -0.77422  -0.77270  -0.76043  -0.75316
 Alpha  occ. eigenvalues --   -0.75240  -0.74525  -0.73882  -0.72435  -0.71280
 Alpha  occ. eigenvalues --   -0.70911  -0.69732  -0.69141  -0.68531  -0.68216
 Alpha  occ. eigenvalues --   -0.67406  -0.67104  -0.66886  -0.66538  -0.65803
 Alpha  occ. eigenvalues --   -0.65093  -0.64833  -0.64725  -0.64512  -0.62316
 Alpha  occ. eigenvalues --   -0.61960  -0.61562  -0.60964  -0.60502  -0.59933
 Alpha  occ. eigenvalues --   -0.59456  -0.58956  -0.58761  -0.57612  -0.57049
 Alpha  occ. eigenvalues --   -0.56783  -0.56594  -0.56526  -0.56326  -0.55769
 Alpha  occ. eigenvalues --   -0.55465  -0.55220  -0.55072  -0.54677  -0.54430
 Alpha  occ. eigenvalues --   -0.54290  -0.54140  -0.53936  -0.53858  -0.53798
 Alpha  occ. eigenvalues --   -0.53757  -0.53348  -0.53215  -0.52665  -0.52386
 Alpha  occ. eigenvalues --   -0.52087  -0.52009  -0.51619  -0.51510  -0.51405
 Alpha  occ. eigenvalues --   -0.51255  -0.51138  -0.50853  -0.50663  -0.50651
 Alpha  occ. eigenvalues --   -0.50447  -0.50272  -0.49949  -0.49760  -0.49414
 Alpha  occ. eigenvalues --   -0.49073  -0.48937  -0.48655  -0.48625  -0.48418
 Alpha  occ. eigenvalues --   -0.48333  -0.48088  -0.47835  -0.47788  -0.47618
 Alpha  occ. eigenvalues --   -0.47451  -0.47344  -0.47269  -0.47137  -0.46934
 Alpha  occ. eigenvalues --   -0.46675  -0.46637  -0.46301  -0.46006  -0.45842
 Alpha  occ. eigenvalues --   -0.45707  -0.45636  -0.45182  -0.45051  -0.44795
 Alpha  occ. eigenvalues --   -0.44679  -0.44372  -0.44159  -0.44056  -0.43903
 Alpha  occ. eigenvalues --   -0.43611  -0.43494  -0.43297  -0.43258  -0.43088
 Alpha  occ. eigenvalues --   -0.42821  -0.42416  -0.42350  -0.42224  -0.42085
 Alpha  occ. eigenvalues --   -0.41666  -0.41460  -0.41378  -0.41130  -0.40645
 Alpha  occ. eigenvalues --   -0.40464  -0.40223  -0.39945  -0.39787  -0.39449
 Alpha  occ. eigenvalues --   -0.38930  -0.38772  -0.38617  -0.38430  -0.38174
 Alpha  occ. eigenvalues --   -0.37572  -0.37406  -0.36791  -0.36536  -0.35886
 Alpha  occ. eigenvalues --   -0.35674  -0.35533  -0.35364  -0.34292  -0.33266
 Alpha  occ. eigenvalues --   -0.32974  -0.32701  -0.32312  -0.31948  -0.26261
 Alpha  occ. eigenvalues --   -0.22951
 Alpha virt. eigenvalues --   -0.06815  -0.00293   0.02661   0.04764   0.04806
 Alpha virt. eigenvalues --    0.06547   0.06634   0.07026   0.08169   0.09372
 Alpha virt. eigenvalues --    0.10218   0.11558   0.11913   0.12073   0.12248

 Mulliken charges:
               1
     1  Mg   0.953824
     2  C   -0.055336
     3  C   -0.057005
     4  C   -0.083608
     5  C   -0.070170
     6  N   -0.398777
     7  C   -0.012872
     8  C   -0.036571
     9  C   -0.118397
    10  C    0.086509
    11  C    0.036981
    12  C    0.018021
    13  C    0.077017
    14  C    0.186798
    15  O   -0.260438
    16  O   -0.381987
    17  N   -0.412832
    18  C    0.084812
    19  C   -0.150647
    20  C    0.018460
    21  C    0.159598
    22  C    0.085193
    23  C   -0.026343
    24  O   -0.229204
    25  C   -0.020538
    26  N   -0.303595
    27  C    0.034887
    28  C   -0.120291
    29  C   -0.020840
    30  C    0.019471
    31  C    0.005946
    32  C    0.000457
    33  C   -0.072190
    34  N   -0.385697
    35  C    0.058267
    36  C   -0.231367
    37  C   -0.053025
    38  C    0.158056
    39  C    0.087917
    40  C    0.151891
    41  O   -0.197936
    42  C   -0.057189
    43  C    0.281134
    44  O   -0.246395
    45  O   -0.387679
    46  C    0.129742
    47  C    0.283863
    48  C   -0.163807
    49  C   -0.175188
    50  C    0.026879
    51  C    0.038976
    52  C    0.000599
    53  C    0.029536
    54  C   -0.198199
    55  C    0.020141
    56  C   -0.028237
    57  C   -0.009519
    58  C    0.019523
    59  C   -0.205024
    60  C    0.002987
    61  C    0.035740
    62  C   -0.050022
    63  C   -0.034924
    64  C   -0.197002
    65  C    0.013489
    66  C    0.000562
    67  H    0.010620
    68  H   -0.025366
    69  H   -0.008933
    70  H    0.029506
    71  H    0.053979
    72  H    0.028262
    73  H    0.020609
    74  H    0.059710
    75  H    0.036105
    76  H    0.036680
    77  H    0.060301
    78  H    0.061262
    79  H    0.059078
    80  H    0.009143
    81  H    0.069107
    82  H    0.056528
    83  H    0.051342
    84  H    0.056832
    85  H    0.048800
    86  H    0.038502
    87  H    0.063874
    88  H    0.023272
    89  H    0.031711
    90  H    0.051067
    91  H    0.034279
    92  H    0.032576
    93  H    0.034852
    94  H    0.036423
    95  H    0.047235
    96  H    0.058947
    97  H    0.043499
    98  H    0.076579
    99  H    0.066502
   100  H    0.061606
   101  H    0.053326
   102  H    0.032035
   103  H    0.052790
   104  H    0.018872
   105  H    0.034786
   106  H    0.008007
   107  H    0.055074
   108  H    0.018313
   109  H    0.021719
   110  H    0.015448
   111  H    0.018549
   112  H    0.011191
   113  H    0.006531
   114  H    0.030989
   115  H    0.031139
   116  H    0.025161
   117  H    0.028399
   118  H    0.009303
   119  H   -0.011159
   120  H    0.024635
   121  H    0.018864
   122  H    0.015686
   123  H    0.020984
   124  H    0.020237
   125  H    0.029701
   126  H    0.028887
   127  H    0.017744
   128  H    0.020373
   129  H    0.019522
   130  H    0.015047
   131  H    0.020921
   132  H    0.014418
   133  H    0.015791
   134  H    0.028348
   135  H    0.034448
   136  H    0.016296
   137  H    0.032915
   138  H    0.031320
   139  H    0.017537
   140  H    0.026939
 Sum of Mulliken charges =  -0.00000

 Dipole moment (field-independent basis, Debye):
    X=              0.6964    Y=              2.9737    Z=              1.4003  Tot=              3.3599
 Quadrupole moment (field-independent basis, Debye-Ang):
   XX=           -362.4963   YY=           -433.7187   ZZ=           -398.3614
   XY=             19.2498   XZ=             10.8793   YZ=             41.3406

 Normal termination of Gaussian 16 at Thu May  5 04:40:53 2022.
