 Gaussian 16, Revision A.03,
 Gaussian 16:  ES64L-G16RevA.03 25-Dec-2016

 --------------------
 #p ZINDO=(nstates=5)
 --------------------

 ----------------------------
 step_551_chromophore_5 ZINDO
 ----------------------------
 Symbolic Z-matrix:
 Charge =  0 Multiplicity = 1

                         Standard orientation:
 ---------------------------------------------------------------------
 Center     Atomic      Atomic             Coordinates (Angstroms)
 Number     Number       Type             X           Y           Z
 ---------------------------------------------------------------------
      1         12           0        5.534464    0.500912   -0.299597
      2          6           0        4.149332   -2.661696    0.206789
      3          6           0        3.125961    1.152600   -2.844471
      4          6           0        5.981701    3.815156    0.045675
      5          6           0        7.322879   -0.041360    2.729950
      6          7           0        3.934265   -0.672003   -1.299289
      7          6           0        3.524260   -1.987172   -0.847587
      8          6           0        2.273200   -2.363438   -1.644290
      9          6           0        2.036285   -1.252394   -2.722690
     10          6           0        3.086599   -0.117535   -2.232391
     11          6           0        2.367131   -1.623818   -4.211391
     12          6           0        1.066343   -2.650312   -0.754547
     13          6           0        0.074827   -3.602463   -1.500662
     14          6           0       -1.035955   -2.847489   -2.265004
     15          8           0       -0.884461   -2.209647   -3.286191
     16          8           0       -2.314818   -2.979837   -1.672614
     17          7           0        4.822225    2.237885   -1.403943
     18          6           0        3.919025    2.282889   -2.445516
     19          6           0        3.904648    3.624811   -2.920243
     20          6           0        4.622972    4.422562   -2.136796
     21          6           0        5.178219    3.484373   -1.096630
     22          6           0        3.013033    4.054382   -4.083488
     23          6           0        4.756803    5.828777   -2.302980
     24          8           0        4.485505    6.417004   -3.335633
     25          6           0        5.307535    6.695562   -1.171866
     26          7           0        6.558983    1.704464    1.214296
     27          6           0        6.596443    3.027582    1.109321
     28          6           0        7.359526    3.741368    2.212594
     29          6           0        7.745746    2.478854    3.148354
     30          6           0        7.211455    1.307718    2.299941
     31          6           0        8.548842    4.553047    1.583577
     32          6           0        7.137594    2.393881    4.615547
     33          6           0        8.132066    1.944239    5.658673
     34          7           0        5.884233   -1.123912    1.051582
     35          6           0        6.652432   -1.237843    2.179584
     36          6           0        6.566984   -2.571924    2.679360
     37          6           0        5.645939   -3.146497    1.909227
     38          6           0        5.187785   -2.243447    0.973408
     39          6           0        7.265101   -3.077162    3.925774
     40          6           0        4.795810   -4.376769    1.815805
     41          8           0        4.755138   -5.426446    2.439452
     42          6           0        3.782216   -4.070770    0.709418
     43          6           0        3.765260   -5.207449   -0.320283
     44          8           0        2.723802   -5.697189   -0.708187
     45          8           0        4.990631   -5.474134   -0.943458
     46          6           0        4.847077   -6.186146   -2.233776
     47          6           0       -3.403953   -2.511562   -2.538764
     48          6           0       -3.834017   -1.123197   -2.045530
     49          6           0       -4.556666   -0.745730   -0.954767
     50          6           0       -5.139100   -1.737215   -0.023317
     51          6           0       -4.846898    0.747579   -0.739788
     52          6           0       -6.215819    1.232175   -1.020439
     53          6           0       -6.667401    2.507463   -0.259435
     54          6           0       -8.014284    2.306890    0.487486
     55          6           0       -8.588005    3.570243    1.206853
     56          6           0       -7.694273    1.295722    1.712193
     57          6           0       -8.946830    0.473589    2.172177
     58          6           0       -9.553926   -0.491897    1.093333
     59          6           0      -10.952232    0.048513    0.471198
     60          6           0      -10.780616    0.199089   -1.060694
     61          6           0      -12.134084   -0.897844    0.814979
     62          6           0      -12.949412   -0.405908    2.013116
     63          6           0      -14.531310   -0.399549    1.666485
     64          6           0      -15.137013    1.052574    1.605332
     65          6           0      -16.475932    1.021456    2.301044
     66          6           0      -15.212362    1.479905    0.107324
     67          1           0        2.417155    1.445105   -3.623054
     68          1           0        6.020152    4.881520    0.277678
     69          1           0        7.917804   -0.246212    3.622647
     70          1           0        2.615495   -3.306931   -2.068566
     71          1           0        1.090109   -0.712530   -2.684924
     72          1           0        2.942771   -2.546883   -4.276713
     73          1           0        3.068073   -0.899647   -4.627737
     74          1           0        1.480538   -1.526604   -4.838649
     75          1           0        0.615847   -1.658451   -0.740556
     76          1           0        1.369411   -2.834154    0.275945
     77          1           0       -0.363101   -4.312825   -0.800508
     78          1           0        0.604451   -4.105972   -2.309239
     79          1           0        2.117423    4.539076   -3.694242
     80          1           0        2.715056    3.094550   -4.505812
     81          1           0        3.395469    4.601729   -4.945655
     82          1           0        6.356310    6.426003   -1.046013
     83          1           0        4.890487    6.504949   -0.183233
     84          1           0        5.090810    7.735362   -1.418027
     85          1           0        6.775370    4.482011    2.758493
     86          1           0        8.827849    2.403665    3.046697
     87          1           0        8.523481    4.782156    0.517726
     88          1           0        9.443739    4.009740    1.886579
     89          1           0        8.704107    5.482891    2.130569
     90          1           0        6.331373    1.671479    4.745567
     91          1           0        6.770039    3.339250    5.015898
     92          1           0        7.801561    1.039888    6.169422
     93          1           0        8.216679    2.658462    6.477518
     94          1           0        9.098852    1.749827    5.194224
     95          1           0        8.334776   -3.110826    3.722627
     96          1           0        6.859213   -4.068126    4.131765
     97          1           0        7.065515   -2.399601    4.755366
     98          1           0        2.804244   -4.011889    1.187001
     99          1           0        3.923547   -6.088210   -2.803421
    100          1           0        5.040245   -7.231961   -1.995733
    101          1           0        5.665045   -5.787491   -2.834986
    102          1           0       -4.204666   -3.230107   -2.364644
    103          1           0       -3.130880   -2.489250   -3.593812
    104          1           0       -3.540922   -0.328803   -2.732219
    105          1           0       -5.749861   -2.507206   -0.494871
    106          1           0       -5.831422   -1.232266    0.651737
    107          1           0       -4.550994   -2.335424    0.673105
    108          1           0       -4.147119    1.254500   -1.402957
    109          1           0       -4.617458    1.067038    0.276210
    110          1           0       -6.855463    0.354764   -0.930780
    111          1           0       -6.231498    1.431651   -2.091689
    112          1           0       -6.723878    3.386944   -0.899943
    113          1           0       -5.966124    2.926075    0.462535
    114          1           0       -8.707720    1.936408   -0.266407
    115          1           0       -8.772550    3.312101    2.249581
    116          1           0       -9.559940    3.862843    0.809454
    117          1           0       -7.902178    4.412144    1.119859
    118          1           0       -7.275016    1.808678    2.577901
    119          1           0       -6.831935    0.646432    1.562721
    120          1           0       -9.733861    1.117968    2.560542
    121          1           0       -8.472250   -0.187133    2.897203
    122          1           0       -9.827034   -1.377035    1.668793
    123          1           0       -8.779855   -0.732748    0.365179
    124          1           0      -11.212642    1.049161    0.814714
    125          1           0       -9.758402    0.040563   -1.401916
    126          1           0      -11.171285    1.172281   -1.358941
    127          1           0      -11.383897   -0.552830   -1.568572
    128          1           0      -11.742633   -1.846962    1.182543
    129          1           0      -12.805271   -1.036946   -0.032492
    130          1           0      -12.739659    0.608464    2.351464
    131          1           0      -12.727318   -1.081802    2.838763
    132          1           0      -14.902348   -1.090507    2.424728
    133          1           0      -14.732521   -1.011943    0.787927
    134          1           0      -14.512469    1.757571    2.152911
    135          1           0      -16.895346    0.018918    2.212319
    136          1           0      -17.143009    1.734532    1.815170
    137          1           0      -16.375751    1.355351    3.333310
    138          1           0      -16.223622    1.687585   -0.242884
    139          1           0      -14.824102    0.746732   -0.598976
    140          1           0      -14.510509    2.292460   -0.079560
 ---------------------------------------------------------------------

 SCF Done:  E(RZINDO/S) =  -474.139746818     A.U. after   19 cycles

 Excitation energies and oscillator strengths:

 Excited State   1:      Singlet-A      1.3182 eV  940.52 nm  f=0.5483  <S**2>=0.000
     175 ->178         0.16804
     176 ->177         0.67049
 This state for optimization and/or second-order correction.
 Total Energy, E(CIS/TDA) =  -474.091302059
 Copying the excited state density for this state as the 1-particle RhoCI density.

 Excited State   2:      Singlet-A      1.9364 eV  640.28 nm  f=0.0047  <S**2>=0.000
     175 ->177         0.49198
     176 ->178        -0.47608

 Excited State   3:      Singlet-A      2.8910 eV  428.86 nm  f=0.0015  <S**2>=0.000
     168 ->177         0.34118
     168 ->178        -0.17569
     168 ->179        -0.38839
     168 ->181        -0.28390
     168 ->185        -0.18099
     168 ->194         0.10980

 Excited State   4:      Singlet-A      2.8954 eV  428.21 nm  f=0.0375  <S**2>=0.000
     176 ->179         0.30663
     176 ->180         0.60292
     176 ->181        -0.10403

 Excited State   5:      Singlet-A      2.9854 eV  415.30 nm  f=1.0427  <S**2>=0.000
     175 ->177         0.41417
     176 ->178         0.47595
     176 ->179         0.14191
     176 ->180        -0.20933

 The electronic state is 1-A.
 Alpha  occ. eigenvalues --   -1.86688  -1.83014  -1.78996  -1.73260  -1.71112
 Alpha  occ. eigenvalues --   -1.69482  -1.64483  -1.61882  -1.60051  -1.58332
 Alpha  occ. eigenvalues --   -1.53966  -1.50757  -1.48105  -1.47074  -1.46849
 Alpha  occ. eigenvalues --   -1.45494  -1.42210  -1.41145  -1.38913  -1.37150
 Alpha  occ. eigenvalues --   -1.35605  -1.33100  -1.32093  -1.31392  -1.28572
 Alpha  occ. eigenvalues --   -1.28032  -1.26478  -1.22910  -1.20038  -1.17673
 Alpha  occ. eigenvalues --   -1.16699  -1.16026  -1.14442  -1.13288  -1.12599
 Alpha  occ. eigenvalues --   -1.11853  -1.10422  -1.08590  -1.05483  -1.04044
 Alpha  occ. eigenvalues --   -1.02398  -1.01915  -0.98111  -0.97063  -0.95524
 Alpha  occ. eigenvalues --   -0.94820  -0.94625  -0.94097  -0.93370  -0.93302
 Alpha  occ. eigenvalues --   -0.91919  -0.91227  -0.88691  -0.88544  -0.86981
 Alpha  occ. eigenvalues --   -0.86262  -0.84833  -0.83779  -0.82567  -0.81286
 Alpha  occ. eigenvalues --   -0.79792  -0.78787  -0.78092  -0.77450  -0.77023
 Alpha  occ. eigenvalues --   -0.76242  -0.74697  -0.74259  -0.73700  -0.73256
 Alpha  occ. eigenvalues --   -0.72837  -0.72359  -0.71882  -0.71369  -0.70671
 Alpha  occ. eigenvalues --   -0.70437  -0.69080  -0.68926  -0.68246  -0.67868
 Alpha  occ. eigenvalues --   -0.67290  -0.67082  -0.66474  -0.66078  -0.65991
 Alpha  occ. eigenvalues --   -0.65537  -0.65162  -0.64374  -0.63970  -0.63636
 Alpha  occ. eigenvalues --   -0.63232  -0.62671  -0.62369  -0.62044  -0.61299
 Alpha  occ. eigenvalues --   -0.61218  -0.61133  -0.60895  -0.60387  -0.59924
 Alpha  occ. eigenvalues --   -0.59650  -0.59071  -0.58679  -0.58591  -0.58233
 Alpha  occ. eigenvalues --   -0.57872  -0.57480  -0.57074  -0.56635  -0.56245
 Alpha  occ. eigenvalues --   -0.55990  -0.55674  -0.55417  -0.54940  -0.54621
 Alpha  occ. eigenvalues --   -0.54565  -0.54308  -0.53498  -0.53229  -0.52977
 Alpha  occ. eigenvalues --   -0.52619  -0.52047  -0.51568  -0.51494  -0.51309
 Alpha  occ. eigenvalues --   -0.51200  -0.51027  -0.50999  -0.50372  -0.50004
 Alpha  occ. eigenvalues --   -0.49920  -0.49848  -0.49507  -0.49126  -0.48885
 Alpha  occ. eigenvalues --   -0.48656  -0.48368  -0.48111  -0.47789  -0.47574
 Alpha  occ. eigenvalues --   -0.47238  -0.47128  -0.47001  -0.46969  -0.46767
 Alpha  occ. eigenvalues --   -0.46390  -0.46312  -0.46172  -0.46110  -0.45475
 Alpha  occ. eigenvalues --   -0.45171  -0.44735  -0.44653  -0.44334  -0.44164
 Alpha  occ. eigenvalues --   -0.44015  -0.43417  -0.42700  -0.42222  -0.41985
 Alpha  occ. eigenvalues --   -0.41843  -0.41538  -0.41378  -0.38934  -0.38693
 Alpha  occ. eigenvalues --   -0.38222  -0.37130  -0.35972  -0.35297  -0.34582
 Alpha  occ. eigenvalues --   -0.34275  -0.32944  -0.32437  -0.32284  -0.27161
 Alpha  occ. eigenvalues --   -0.21687
 Alpha virt. eigenvalues --   -0.08115  -0.02481  -0.00448   0.00578   0.01482
 Alpha virt. eigenvalues --    0.01978   0.02350   0.02911   0.04471   0.04653
 Alpha virt. eigenvalues --    0.06304   0.06769   0.06844   0.07370   0.07954

 Mulliken charges:
               1
     1  Mg   0.434701
     2  C   -0.030695
     3  C   -0.086429
     4  C   -0.125606
     5  C   -0.079272
     6  N   -0.304850
     7  C    0.072537
     8  C    0.016444
     9  C    0.003639
    10  C    0.163569
    11  C   -0.050265
    12  C   -0.021359
    13  C    0.013492
    14  C    0.464704
    15  O   -0.517010
    16  O   -0.277499
    17  N   -0.323389
    18  C    0.133137
    19  C    0.070511
    20  C   -0.019506
    21  C    0.145276
    22  C   -0.047557
    23  C    0.336698
    24  O   -0.521746
    25  C   -0.036175
    26  N   -0.244864
    27  C    0.167037
    28  C   -0.000519
    29  C   -0.002428
    30  C    0.089401
    31  C   -0.055717
    32  C   -0.024761
    33  C   -0.057875
    34  N   -0.314957
    35  C    0.053119
    36  C    0.015122
    37  C   -0.048809
    38  C    0.105154
    39  C   -0.043272
    40  C    0.319574
    41  O   -0.521189
    42  C    0.052247
    43  C    0.483628
    44  O   -0.520503
    45  O   -0.268564
    46  C    0.077582
    47  C    0.107752
    48  C   -0.083968
    49  C    0.001378
    50  C   -0.042316
    51  C   -0.013343
    52  C   -0.021912
    53  C   -0.033075
    54  C   -0.017881
    55  C   -0.060146
    56  C   -0.043711
    57  C   -0.044072
    58  C   -0.043775
    59  C   -0.018609
    60  C   -0.063539
    61  C   -0.034377
    62  C   -0.050650
    63  C   -0.049009
    64  C   -0.001239
    65  C   -0.053554
    66  C   -0.060039
    67  H    0.039427
    68  H    0.022465
    69  H    0.024171
    70  H    0.034190
    71  H    0.046997
    72  H    0.028628
    73  H    0.013179
    74  H    0.036849
    75  H    0.018262
    76  H    0.043833
    77  H    0.042443
    78  H    0.050279
    79  H    0.037573
    80  H    0.009324
    81  H    0.050154
    82  H    0.041424
    83  H    0.027254
    84  H    0.040173
    85  H    0.036238
    86  H    0.040194
    87  H    0.037475
    88  H    0.020201
    89  H    0.013895
    90  H    0.031700
    91  H    0.018209
    92  H    0.016437
    93  H    0.016307
    94  H    0.020591
    95  H    0.029658
    96  H    0.032486
    97  H    0.027453
    98  H    0.058446
    99  H    0.053084
   100  H    0.042766
   101  H    0.026675
   102  H    0.031501
   103  H    0.056372
   104  H    0.025001
   105  H    0.022203
   106  H    0.007440
   107  H    0.034453
   108  H    0.015638
   109  H    0.021935
   110  H    0.024380
   111  H    0.011754
   112  H    0.010274
   113  H    0.017993
   114  H    0.033649
   115  H    0.021920
   116  H    0.014037
   117  H    0.022528
   118  H    0.013493
   119  H    0.016029
   120  H    0.031471
   121  H    0.013156
   122  H    0.015832
   123  H    0.031313
   124  H    0.027046
   125  H    0.021397
   126  H    0.016471
   127  H    0.013964
   128  H    0.020989
   129  H    0.026660
   130  H    0.021588
   131  H    0.016134
   132  H    0.010394
   133  H    0.022678
   134  H    0.026540
   135  H    0.023946
   136  H    0.011371
   137  H    0.018662
   138  H    0.024177
   139  H    0.014798
   140  H    0.015702
 Sum of Mulliken charges =  -0.00000

 Dipole moment (field-independent basis, Debye):
    X=              0.1311    Y=              6.2624    Z=              1.5294  Tot=              6.4478
 N-N= 4.336785851174D+03 E-N= 0.000000000000D+00  KE=-9.347653925966D+03
 Leave Link  601 at Thu May  5 04:57:04 2022, MaxMem=  6710886400 cpu:               5.1 elap:               0.2
 (Enter /sw/apps/gaussian-16.0/g16/l9999.exe)
 1\1\GINC-BP1-COMPUTE216\SP\RZINDO CIS\STO-3G\C55H74Mg1N4O6\OF15641\05-
 May-2022\0\\#p ZINDO=(nstates=5)\\step_551_chromophore_5 ZINDO\\0,1\Mg
 ,0,23.661,-6.625,46.472\C,0,26.163,-4.46,45.363\C,0,21.336,-5.079,44.2
 57\C,0,21.684,-9.343,46.558\C,0,26.269,-8.491,48.017\N,0,23.709,-4.883
 ,45.094\C,0,24.928,-4.166,44.775\C,0,24.59,-3.19,43.646\C,0,23.044,-3.
 252,43.402\C,0,22.644,-4.552,44.286\C,0,22.195,-2.031,43.904\C,0,25.43
 8,-3.411,42.396\C,0,25.526,-2.082,41.576\C,0,24.45,-1.975,40.472\O,0,2

 Normal termination of Gaussian 16 at Thu May  5 04:57:04 2022.
