 Gaussian 16, Revision A.03,
 Gaussian 16:  ES64L-G16RevA.03 25-Dec-2016

 ------------------------------
 #p blyp/Def2SVP td=(nstates=5)
 ------------------------------

 ---------------------------------------------------
 step_1401_chromophore_14 TDDFT with blyp functional
 ---------------------------------------------------
 Symbolic Z-matrix:
 Charge =  0 Multiplicity = 1

                         Standard orientation:
 ---------------------------------------------------------------------
 Center     Atomic      Atomic             Coordinates (Angstroms)
 Number     Number       Type             X           Y           Z
 ---------------------------------------------------------------------
      1         12           0        5.399492    0.732516   -0.037498
      2          6           0        4.684037   -2.610978    0.683087
      3          6           0        4.376371    0.191110   -3.303827
      4          6           0        5.199932    4.078358   -0.512473
      5          6           0        5.704466    1.370866    3.461343
      6          7           0        4.489748   -0.978269   -1.092510
      7          6           0        4.334376   -2.296560   -0.649260
      8          6           0        3.994699   -3.186525   -1.786876
      9          6           0        4.195538   -2.298607   -3.038472
     10          6           0        4.462814   -0.952562   -2.464023
     11          6           0        5.387704   -2.816449   -3.909674
     12          6           0        2.584067   -3.997810   -1.654772
     13          6           0        1.367490   -3.407678   -0.919273
     14          6           0        0.069166   -3.396421   -1.624284
     15          8           0       -0.280810   -4.044270   -2.604653
     16          8           0       -0.784422   -2.514392   -0.955029
     17          7           0        4.869301    1.975488   -1.735732
     18          6           0        4.427142    1.553701   -2.983211
     19          6           0        4.243157    2.622119   -3.871629
     20          6           0        4.556815    3.776160   -3.131615
     21          6           0        4.912451    3.340796   -1.747575
     22          6           0        3.788396    2.495916   -5.313346
     23          6           0        4.398306    5.151773   -3.620753
     24          8           0        3.946140    5.400954   -4.700295
     25          6           0        4.726704    6.284204   -2.651185
     26          7           0        5.714315    2.489399    1.206080
     27          6           0        5.530838    3.723971    0.749222
     28          6           0        5.645661    4.838607    1.814500
     29          6           0        5.837185    3.982639    3.114346
     30          6           0        5.654688    2.525130    2.601228
     31          6           0        6.683175    5.934293    1.458005
     32          6           0        4.895221    4.246698    4.377613
     33          6           0        5.606080    4.497280    5.710872
     34          7           0        5.461514   -0.363312    1.663472
     35          6           0        5.587895    0.033785    3.064402
     36          6           0        5.734818   -1.230664    3.845921
     37          6           0        5.384908   -2.196165    2.912068
     38          6           0        5.196986   -1.646608    1.638785
     39          6           0        5.886448   -1.295045    5.345798
     40          6           0        5.114975   -3.669013    2.874044
     41          8           0        5.041379   -4.432609    3.792331
     42          6           0        4.699438   -3.989507    1.384135
     43          6           0        5.657495   -5.002265    0.739576
     44          8           0        5.394883   -6.107875    0.352347
     45          8           0        6.792455   -4.269844    0.498339
     46          6           0        7.658493   -4.823400   -0.553182
     47          6           0       -1.961100   -2.292445   -1.629678
     48          6           0       -2.670759   -1.226077   -0.906928
     49          6           0       -3.736573   -0.505346   -1.388244
     50          6           0       -4.284548   -0.639813   -2.792600
     51          6           0       -4.390936    0.514105   -0.533576
     52          6           0       -5.902606    0.434048   -0.478288
     53          6           0       -6.428233    0.103518    0.929663
     54          6           0       -7.978957    0.463144    1.030405
     55          6           0       -8.185481    1.267047    2.336867
     56          6           0       -8.919372   -0.832086    1.031260
     57          6           0       -9.633942   -1.047124   -0.324377
     58          6           0      -11.042638   -1.676706   -0.342800
     59          6           0      -12.139764   -0.955290    0.506386
     60          6           0      -12.621447   -1.701154    1.816261
     61          6           0      -13.439107   -0.513499   -0.303596
     62          6           0      -13.931928    0.938496   -0.067042
     63          6           0      -15.425003    0.954944   -0.292585
     64          6           0      -16.215573    1.649681    0.840583
     65          6           0      -17.591708    0.909720    1.077076
     66          6           0      -16.323375    3.165691    0.589844
     67          1           0        4.107879    0.020441   -4.348061
     68          1           0        5.034282    5.157899   -0.539003
     69          1           0        5.851328    1.531619    4.530907
     70          1           0        4.849273   -3.850930   -1.655580
     71          1           0        3.309429   -2.176385   -3.660875
     72          1           0        5.423416   -2.662979   -4.987797
     73          1           0        5.487892   -3.874911   -3.669413
     74          1           0        6.291102   -2.301645   -3.581181
     75          1           0        2.736181   -5.039449   -1.374729
     76          1           0        2.308274   -4.300999   -2.664657
     77          1           0        1.474763   -2.341363   -0.722951
     78          1           0        1.236719   -3.898578    0.045350
     79          1           0        3.678801    3.375496   -5.947606
     80          1           0        3.062651    1.735655   -5.600453
     81          1           0        4.780651    2.320108   -5.730058
     82          1           0        5.756487    6.238896   -2.297481
     83          1           0        3.926577    6.326430   -1.912076
     84          1           0        4.616161    7.185608   -3.253620
     85          1           0        4.708718    5.394791    1.832762
     86          1           0        6.871699    4.099358    3.435638
     87          1           0        7.365134    5.919932    2.308582
     88          1           0        6.063984    6.812813    1.275063
     89          1           0        7.144457    5.701934    0.497129
     90          1           0        4.212839    3.400354    4.454298
     91          1           0        4.423011    5.180115    4.070625
     92          1           0        5.297252    5.471385    6.092425
     93          1           0        6.681262    4.506193    5.534075
     94          1           0        5.381952    3.708645    6.429845
     95          1           0        5.665198   -2.307348    5.682146
     96          1           0        5.300602   -0.570649    5.912393
     97          1           0        6.943900   -1.107494    5.532793
     98          1           0        3.705985   -4.433173    1.324492
     99          1           0        7.390696   -5.809978   -0.932449
    100          1           0        8.696340   -4.910501   -0.232070
    101          1           0        7.783431   -4.175608   -1.420915
    102          1           0       -2.479509   -3.226762   -1.412969
    103          1           0       -1.976048   -2.015898   -2.683418
    104          1           0       -2.311744   -1.018855    0.101173
    105          1           0       -4.724425    0.270785   -3.200086
    106          1           0       -5.165751   -1.280273   -2.842341
    107          1           0       -3.467053   -0.923780   -3.454942
    108          1           0       -4.143166    1.509864   -0.899706
    109          1           0       -3.935932    0.354983    0.444200
    110          1           0       -6.237508   -0.338076   -1.171167
    111          1           0       -6.313711    1.391947   -0.798391
    112          1           0       -5.850648    0.567404    1.728239
    113          1           0       -6.209694   -0.962491    1.007123
    114          1           0       -8.321985    1.065879    0.189563
    115          1           0       -9.088035    1.869745    2.235271
    116          1           0       -7.270225    1.788282    2.619764
    117          1           0       -8.268035    0.633966    3.220001
    118          1           0       -9.710331   -0.685410    1.767046
    119          1           0       -8.342761   -1.731424    1.250306
    120          1           0       -8.984427   -1.749539   -0.846554
    121          1           0       -9.756623   -0.112189   -0.870827
    122          1           0      -10.835611   -2.670756    0.054931
    123          1           0      -11.379513   -1.850804   -1.365101
    124          1           0      -11.678037    0.010722    0.709616
    125          1           0      -12.350429   -1.180004    2.734452
    126          1           0      -12.019673   -2.609056    1.815472
    127          1           0      -13.684550   -1.921876    1.911891
    128          1           0      -14.156347   -1.326070   -0.187197
    129          1           0      -13.068411   -0.677950   -1.314836
    130          1           0      -13.523250    1.654254   -0.780034
    131          1           0      -13.556674    1.182965    0.926433
    132          1           0      -15.848190   -0.041985   -0.418195
    133          1           0      -15.774385    1.446115   -1.200270
    134          1           0      -15.613550    1.496485    1.736191
    135          1           0      -18.003298    0.396756    0.208598
    136          1           0      -18.425287    1.599301    1.208166
    137          1           0      -17.572627    0.256497    1.949083
    138          1           0      -15.659169    3.493673   -0.209093
    139          1           0      -16.129450    3.773344    1.474199
    140          1           0      -17.336620    3.273486    0.203461
 ---------------------------------------------------------------------

 SCF Done:  E(RB-LYP) =  -3007.33944083     A.U. after   21 cycles

 Excitation energies and oscillator strengths:

 Excited State   1:      Singlet-A      1.7176 eV  721.86 nm  f=0.2405  <S**2>=0.000
     244 -> 247       -0.13604
     245 -> 248       -0.17757
     246 -> 247        0.67736
     246 <- 247       -0.15408
 This state for optimization and/or second-order correction.
 Total Energy, E(TD-HF/TD-DFT) =  -3007.27632104
 Copying the excited state density for this state as the 1-particle RhoCI density.

 Excited State   2:      Singlet-A      1.8152 eV  683.02 nm  f=0.0097  <S**2>=0.000
     244 -> 247        0.69307
     246 -> 247        0.12814

 Excited State   3:      Singlet-A      1.9789 eV  626.52 nm  f=0.0624  <S**2>=0.000
     242 -> 247        0.32749
     245 -> 247        0.56937
     246 -> 248        0.23482

 Excited State   4:      Singlet-A      2.0081 eV  617.43 nm  f=0.0000  <S**2>=0.000
     243 -> 247        0.70698

 Excited State   5:      Singlet-A      2.1188 eV  585.15 nm  f=0.0155  <S**2>=0.000
     242 -> 247        0.61455
     245 -> 247       -0.27471
     246 -> 248       -0.19266

 The electronic state is 1-A.
 Alpha  occ. eigenvalues --  -46.27662 -18.83383 -18.81889 -18.78335 -18.77658
 Alpha  occ. eigenvalues --  -18.76628 -18.75090 -14.03600 -14.03319 -14.01137
 Alpha  occ. eigenvalues --  -14.01089 -10.05022 -10.04429 -10.00224  -9.98805
 Alpha  occ. eigenvalues --   -9.98414  -9.97252  -9.97029  -9.96760  -9.96620
 Alpha  occ. eigenvalues --   -9.96587  -9.96273  -9.95905  -9.95062  -9.94931
 Alpha  occ. eigenvalues --   -9.94890  -9.94590  -9.94548  -9.94381  -9.94325
 Alpha  occ. eigenvalues --   -9.94137  -9.94035  -9.93911  -9.93839  -9.93671
 Alpha  occ. eigenvalues --   -9.93613  -9.93070  -9.93020  -9.92974  -9.92915
 Alpha  occ. eigenvalues --   -9.92734  -9.92309  -9.92293  -9.92280  -9.92242
 Alpha  occ. eigenvalues --   -9.92199  -9.92040  -9.92010  -9.91857  -9.91697
 Alpha  occ. eigenvalues --   -9.91330  -9.91325  -9.91233  -9.91157  -9.91135
 Alpha  occ. eigenvalues --   -9.91100  -9.91011  -9.90967  -9.90935  -9.90933
 Alpha  occ. eigenvalues --   -9.90800  -9.90740  -9.90704  -9.90655  -9.90608
 Alpha  occ. eigenvalues --   -9.90342  -2.92213  -1.72638  -1.72084  -1.71931
 Alpha  occ. eigenvalues --   -0.99209  -0.99082  -0.93280  -0.92586  -0.91890
 Alpha  occ. eigenvalues --   -0.90985  -0.86473  -0.86023  -0.85391  -0.84782
 Alpha  occ. eigenvalues --   -0.74809  -0.73755  -0.72781  -0.72447  -0.72254
 Alpha  occ. eigenvalues --   -0.72030  -0.71612  -0.71238  -0.70604  -0.70345
 Alpha  occ. eigenvalues --   -0.69936  -0.69759  -0.68102  -0.67900  -0.67499
 Alpha  occ. eigenvalues --   -0.66555  -0.66067  -0.65301  -0.65070  -0.64490
 Alpha  occ. eigenvalues --   -0.63912  -0.62724  -0.62199  -0.61772  -0.61252
 Alpha  occ. eigenvalues --   -0.60551  -0.60200  -0.59989  -0.59429  -0.59016
 Alpha  occ. eigenvalues --   -0.58457  -0.57890  -0.56946  -0.55831  -0.54643
 Alpha  occ. eigenvalues --   -0.54144  -0.53538  -0.52925  -0.51800  -0.51452
 Alpha  occ. eigenvalues --   -0.51417  -0.51218  -0.50959  -0.50244  -0.49907
 Alpha  occ. eigenvalues --   -0.49811  -0.49617  -0.49284  -0.48068  -0.46453
 Alpha  occ. eigenvalues --   -0.46210  -0.45894  -0.45379  -0.45096  -0.44790
 Alpha  occ. eigenvalues --   -0.44471  -0.44122  -0.43689  -0.43234  -0.42936
 Alpha  occ. eigenvalues --   -0.42670  -0.42052  -0.41700  -0.41637  -0.41222
 Alpha  occ. eigenvalues --   -0.40955  -0.40877  -0.40688  -0.40311  -0.40163
 Alpha  occ. eigenvalues --   -0.39956  -0.39826  -0.39644  -0.39499  -0.39241
 Alpha  occ. eigenvalues --   -0.38947  -0.38933  -0.38760  -0.38632  -0.38134
 Alpha  occ. eigenvalues --   -0.38059  -0.37870  -0.37693  -0.37283  -0.37195
 Alpha  occ. eigenvalues --   -0.37108  -0.36987  -0.36932  -0.36870  -0.36467
 Alpha  occ. eigenvalues --   -0.36215  -0.35994  -0.35833  -0.35747  -0.35662
 Alpha  occ. eigenvalues --   -0.35330  -0.35127  -0.35054  -0.34995  -0.34823
 Alpha  occ. eigenvalues --   -0.34733  -0.34592  -0.34491  -0.34333  -0.34212
 Alpha  occ. eigenvalues --   -0.33890  -0.33630  -0.33421  -0.33376  -0.33197
 Alpha  occ. eigenvalues --   -0.33060  -0.32890  -0.32736  -0.32506  -0.32397
 Alpha  occ. eigenvalues --   -0.32220  -0.32198  -0.32105  -0.32005  -0.31596
 Alpha  occ. eigenvalues --   -0.31497  -0.31437  -0.31270  -0.31164  -0.30925
 Alpha  occ. eigenvalues --   -0.30829  -0.30673  -0.30373  -0.30161  -0.30084
 Alpha  occ. eigenvalues --   -0.29760  -0.29729  -0.29334  -0.29169  -0.29106
 Alpha  occ. eigenvalues --   -0.28417  -0.28306  -0.28237  -0.28218  -0.28147
 Alpha  occ. eigenvalues --   -0.27433  -0.27211  -0.26780  -0.26646  -0.26372
 Alpha  occ. eigenvalues --   -0.26318  -0.26103  -0.26054  -0.25954  -0.25258
 Alpha  occ. eigenvalues --   -0.25064  -0.24845  -0.24397  -0.24344  -0.23973
 Alpha  occ. eigenvalues --   -0.23654  -0.23478  -0.22597  -0.21823  -0.20891
 Alpha  occ. eigenvalues --   -0.20265  -0.19239  -0.19103  -0.18295  -0.17571
 Alpha  occ. eigenvalues --   -0.15696
 Alpha virt. eigenvalues --   -0.11723  -0.07222  -0.05999  -0.04621  -0.03568
 Alpha virt. eigenvalues --   -0.03397  -0.03077  -0.02240  -0.01347  -0.00378
 Alpha virt. eigenvalues --    0.00788   0.01683   0.02149   0.02624   0.02675

 Mulliken charges:
               1
     1  Mg   0.685682
     2  C   -0.049184
     3  C   -0.075780
     4  C   -0.004955
     5  C   -0.060234
     6  N   -0.237935
     7  C   -0.113801
     8  C    0.112391
     9  C    0.000059
    10  C    0.045462
    11  C    0.108731
    12  C    0.117827
    13  C    0.127759
    14  C    0.066659
    15  O   -0.182267
    16  O   -0.267733
    17  N   -0.276021
    18  C    0.105814
    19  C   -0.103593
    20  C    0.053576
    21  C    0.102523
    22  C    0.186402
    23  C   -0.153882
    24  O   -0.129564
    25  C    0.141756
    26  N   -0.207025
    27  C   -0.032177
    28  C   -0.034665
    29  C    0.035975
    30  C    0.024912
    31  C    0.150161
    32  C    0.084417
    33  C    0.067792
    34  N   -0.312030
    35  C    0.095694
    36  C   -0.173618
    37  C    0.039209
    38  C    0.150828
    39  C    0.170120
    40  C   -0.013290
    41  O   -0.094847
    42  C    0.049091
    43  C    0.118838
    44  O   -0.130798
    45  O   -0.276362
    46  C    0.198485
    47  C    0.366228
    48  C   -0.148675
    49  C   -0.178423
    50  C    0.156055
    51  C    0.192672
    52  C    0.040205
    53  C    0.097190
    54  C   -0.056762
    55  C    0.101159
    56  C    0.111213
    57  C    0.020436
    58  C    0.120270
    59  C   -0.107474
    60  C    0.114689
    61  C    0.065767
    62  C    0.133846
    63  C    0.091549
    64  C   -0.108524
    65  C    0.099380
    66  C    0.123164
    67  H   -0.065859
    68  H   -0.092504
    69  H   -0.059936
    70  H   -0.024944
    71  H   -0.014157
    72  H    0.000399
    73  H   -0.002598
    74  H   -0.014270
    75  H   -0.019030
    76  H   -0.024094
    77  H    0.015895
    78  H    0.022993
    79  H   -0.008766
    80  H    0.014321
    81  H   -0.013245
    82  H    0.011542
    83  H    0.021289
    84  H   -0.027244
    85  H   -0.020637
    86  H   -0.021155
    87  H   -0.004832
    88  H   -0.004520
    89  H    0.000428
    90  H   -0.005765
    91  H   -0.024076
    92  H   -0.003415
    93  H   -0.014329
    94  H    0.000301
    95  H    0.007243
    96  H    0.007426
    97  H   -0.004194
    98  H   -0.008256
    99  H    0.026628
   100  H    0.008502
   101  H    0.006006
   102  H   -0.020526
   103  H   -0.003117
   104  H   -0.041800
   105  H   -0.025684
   106  H    0.007531
   107  H   -0.009528
   108  H   -0.024298
   109  H   -0.041532
   110  H   -0.028504
   111  H   -0.035227
   112  H   -0.030152
   113  H   -0.033823
   114  H   -0.028021
   115  H   -0.008146
   116  H   -0.023598
   117  H   -0.022749
   118  H   -0.031640
   119  H   -0.030369
   120  H   -0.028857
   121  H   -0.026007
   122  H   -0.047649
   123  H   -0.034557
   124  H   -0.034753
   125  H   -0.014713
   126  H   -0.024087
   127  H   -0.005804
   128  H   -0.028516
   129  H   -0.056855
   130  H   -0.025479
   131  H   -0.016251
   132  H   -0.036748
   133  H   -0.042991
   134  H   -0.039988
   135  H   -0.021111
   136  H   -0.036843
   137  H   -0.006376
   138  H   -0.021592
   139  H   -0.007770
   140  H   -0.021384
 Sum of Mulliken charges =  -0.00000

 Dipole moment (field-independent basis, Debye):
    X=              2.2802    Y=              3.6137    Z=              0.5829  Tot=              4.3125
 Quadrupole moment (field-independent basis, Debye-Ang):
   XX=           -368.2864   YY=           -437.1700   ZZ=           -413.2117
   XY=             10.7687   XZ=             -2.2391   YZ=             37.7358

 Normal termination of Gaussian 16 at Thu Apr 28 02:39:09 2022.
