 Gaussian 16, Revision A.03,
 Gaussian 16:  ES64L-G16RevA.03 25-Dec-2016

 -----------------------------------
 #p cam-b3lyp/Def2SVP td=(nstates=5)
 -----------------------------------

 --------------------------------------------------------
 step_1401_chromophore_14 TDDFT with cam-b3lyp functional
 --------------------------------------------------------
 Symbolic Z-matrix:
 Charge =  0 Multiplicity = 1

                         Standard orientation:
 ---------------------------------------------------------------------
 Center     Atomic      Atomic             Coordinates (Angstroms)
 Number     Number       Type             X           Y           Z
 ---------------------------------------------------------------------
      1         12           0        5.399492    0.732516   -0.037498
      2          6           0        4.684037   -2.610978    0.683087
      3          6           0        4.376371    0.191110   -3.303827
      4          6           0        5.199932    4.078358   -0.512473
      5          6           0        5.704466    1.370866    3.461343
      6          7           0        4.489748   -0.978269   -1.092510
      7          6           0        4.334376   -2.296560   -0.649260
      8          6           0        3.994699   -3.186525   -1.786876
      9          6           0        4.195538   -2.298607   -3.038472
     10          6           0        4.462814   -0.952562   -2.464023
     11          6           0        5.387704   -2.816449   -3.909674
     12          6           0        2.584067   -3.997810   -1.654772
     13          6           0        1.367490   -3.407678   -0.919273
     14          6           0        0.069166   -3.396421   -1.624284
     15          8           0       -0.280810   -4.044270   -2.604653
     16          8           0       -0.784422   -2.514392   -0.955029
     17          7           0        4.869301    1.975488   -1.735732
     18          6           0        4.427142    1.553701   -2.983211
     19          6           0        4.243157    2.622119   -3.871629
     20          6           0        4.556815    3.776160   -3.131615
     21          6           0        4.912451    3.340796   -1.747575
     22          6           0        3.788396    2.495916   -5.313346
     23          6           0        4.398306    5.151773   -3.620753
     24          8           0        3.946140    5.400954   -4.700295
     25          6           0        4.726704    6.284204   -2.651185
     26          7           0        5.714315    2.489399    1.206080
     27          6           0        5.530838    3.723971    0.749222
     28          6           0        5.645661    4.838607    1.814500
     29          6           0        5.837185    3.982639    3.114346
     30          6           0        5.654688    2.525130    2.601228
     31          6           0        6.683175    5.934293    1.458005
     32          6           0        4.895221    4.246698    4.377613
     33          6           0        5.606080    4.497280    5.710872
     34          7           0        5.461514   -0.363312    1.663472
     35          6           0        5.587895    0.033785    3.064402
     36          6           0        5.734818   -1.230664    3.845921
     37          6           0        5.384908   -2.196165    2.912068
     38          6           0        5.196986   -1.646608    1.638785
     39          6           0        5.886448   -1.295045    5.345798
     40          6           0        5.114975   -3.669013    2.874044
     41          8           0        5.041379   -4.432609    3.792331
     42          6           0        4.699438   -3.989507    1.384135
     43          6           0        5.657495   -5.002265    0.739576
     44          8           0        5.394883   -6.107875    0.352347
     45          8           0        6.792455   -4.269844    0.498339
     46          6           0        7.658493   -4.823400   -0.553182
     47          6           0       -1.961100   -2.292445   -1.629678
     48          6           0       -2.670759   -1.226077   -0.906928
     49          6           0       -3.736573   -0.505346   -1.388244
     50          6           0       -4.284548   -0.639813   -2.792600
     51          6           0       -4.390936    0.514105   -0.533576
     52          6           0       -5.902606    0.434048   -0.478288
     53          6           0       -6.428233    0.103518    0.929663
     54          6           0       -7.978957    0.463144    1.030405
     55          6           0       -8.185481    1.267047    2.336867
     56          6           0       -8.919372   -0.832086    1.031260
     57          6           0       -9.633942   -1.047124   -0.324377
     58          6           0      -11.042638   -1.676706   -0.342800
     59          6           0      -12.139764   -0.955290    0.506386
     60          6           0      -12.621447   -1.701154    1.816261
     61          6           0      -13.439107   -0.513499   -0.303596
     62          6           0      -13.931928    0.938496   -0.067042
     63          6           0      -15.425003    0.954944   -0.292585
     64          6           0      -16.215573    1.649681    0.840583
     65          6           0      -17.591708    0.909720    1.077076
     66          6           0      -16.323375    3.165691    0.589844
     67          1           0        4.107879    0.020441   -4.348061
     68          1           0        5.034282    5.157899   -0.539003
     69          1           0        5.851328    1.531619    4.530907
     70          1           0        4.849273   -3.850930   -1.655580
     71          1           0        3.309429   -2.176385   -3.660875
     72          1           0        5.423416   -2.662979   -4.987797
     73          1           0        5.487892   -3.874911   -3.669413
     74          1           0        6.291102   -2.301645   -3.581181
     75          1           0        2.736181   -5.039449   -1.374729
     76          1           0        2.308274   -4.300999   -2.664657
     77          1           0        1.474763   -2.341363   -0.722951
     78          1           0        1.236719   -3.898578    0.045350
     79          1           0        3.678801    3.375496   -5.947606
     80          1           0        3.062651    1.735655   -5.600453
     81          1           0        4.780651    2.320108   -5.730058
     82          1           0        5.756487    6.238896   -2.297481
     83          1           0        3.926577    6.326430   -1.912076
     84          1           0        4.616161    7.185608   -3.253620
     85          1           0        4.708718    5.394791    1.832762
     86          1           0        6.871699    4.099358    3.435638
     87          1           0        7.365134    5.919932    2.308582
     88          1           0        6.063984    6.812813    1.275063
     89          1           0        7.144457    5.701934    0.497129
     90          1           0        4.212839    3.400354    4.454298
     91          1           0        4.423011    5.180115    4.070625
     92          1           0        5.297252    5.471385    6.092425
     93          1           0        6.681262    4.506193    5.534075
     94          1           0        5.381952    3.708645    6.429845
     95          1           0        5.665198   -2.307348    5.682146
     96          1           0        5.300602   -0.570649    5.912393
     97          1           0        6.943900   -1.107494    5.532793
     98          1           0        3.705985   -4.433173    1.324492
     99          1           0        7.390696   -5.809978   -0.932449
    100          1           0        8.696340   -4.910501   -0.232070
    101          1           0        7.783431   -4.175608   -1.420915
    102          1           0       -2.479509   -3.226762   -1.412969
    103          1           0       -1.976048   -2.015898   -2.683418
    104          1           0       -2.311744   -1.018855    0.101173
    105          1           0       -4.724425    0.270785   -3.200086
    106          1           0       -5.165751   -1.280273   -2.842341
    107          1           0       -3.467053   -0.923780   -3.454942
    108          1           0       -4.143166    1.509864   -0.899706
    109          1           0       -3.935932    0.354983    0.444200
    110          1           0       -6.237508   -0.338076   -1.171167
    111          1           0       -6.313711    1.391947   -0.798391
    112          1           0       -5.850648    0.567404    1.728239
    113          1           0       -6.209694   -0.962491    1.007123
    114          1           0       -8.321985    1.065879    0.189563
    115          1           0       -9.088035    1.869745    2.235271
    116          1           0       -7.270225    1.788282    2.619764
    117          1           0       -8.268035    0.633966    3.220001
    118          1           0       -9.710331   -0.685410    1.767046
    119          1           0       -8.342761   -1.731424    1.250306
    120          1           0       -8.984427   -1.749539   -0.846554
    121          1           0       -9.756623   -0.112189   -0.870827
    122          1           0      -10.835611   -2.670756    0.054931
    123          1           0      -11.379513   -1.850804   -1.365101
    124          1           0      -11.678037    0.010722    0.709616
    125          1           0      -12.350429   -1.180004    2.734452
    126          1           0      -12.019673   -2.609056    1.815472
    127          1           0      -13.684550   -1.921876    1.911891
    128          1           0      -14.156347   -1.326070   -0.187197
    129          1           0      -13.068411   -0.677950   -1.314836
    130          1           0      -13.523250    1.654254   -0.780034
    131          1           0      -13.556674    1.182965    0.926433
    132          1           0      -15.848190   -0.041985   -0.418195
    133          1           0      -15.774385    1.446115   -1.200270
    134          1           0      -15.613550    1.496485    1.736191
    135          1           0      -18.003298    0.396756    0.208598
    136          1           0      -18.425287    1.599301    1.208166
    137          1           0      -17.572627    0.256497    1.949083
    138          1           0      -15.659169    3.493673   -0.209093
    139          1           0      -16.129450    3.773344    1.474199
    140          1           0      -17.336620    3.273486    0.203461
 ---------------------------------------------------------------------

 SCF Done:  E(RCAM-B3LYP) =  -3007.13237496     A.U. after   17 cycles

 Excitation energies and oscillator strengths:

 Excited State   1:      Singlet-A      1.6008 eV  774.53 nm  f=0.3365  <S**2>=0.000
     245 -> 248       -0.17389
     246 -> 247        0.68846
     245 <- 248       -0.11137
 This state for optimization and/or second-order correction.
 Total Energy, E(TD-HF/TD-DFT) =  -3007.07354789
 Copying the excited state density for this state as the 1-particle RhoCI density.

 Excited State   2:      Singlet-A      2.2253 eV  557.16 nm  f=0.0686  <S**2>=0.000
     245 -> 247        0.61480
     246 -> 248        0.33893

 Excited State   3:      Singlet-A      3.2762 eV  378.44 nm  f=0.0469  <S**2>=0.000
     243 -> 247        0.64760
     246 -> 248       -0.24203

 Excited State   4:      Singlet-A      3.4118 eV  363.40 nm  f=0.5404  <S**2>=0.000
     242 -> 247       -0.32972
     243 -> 247        0.21826
     245 -> 247       -0.26966
     246 -> 248        0.50229

 Excited State   5:      Singlet-A      3.5473 eV  349.52 nm  f=0.3702  <S**2>=0.000
     242 -> 247        0.57284
     243 -> 247        0.11731
     245 -> 247       -0.21200
     246 -> 248        0.26152

 The electronic state is 1-A.
 Alpha  occ. eigenvalues --  -46.89264 -19.26350 -19.24725 -19.21554 -19.20679
 Alpha  occ. eigenvalues --  -19.19946 -19.18246 -14.42595 -14.42146 -14.39599
 Alpha  occ. eigenvalues --  -14.39595 -10.40545 -10.39770 -10.35625 -10.33872
 Alpha  occ. eigenvalues --  -10.32465 -10.31822 -10.31592 -10.31166 -10.31101
 Alpha  occ. eigenvalues --  -10.30675 -10.30538 -10.30284 -10.29271 -10.29148
 Alpha  occ. eigenvalues --  -10.29142 -10.29044 -10.28981 -10.28501 -10.28340
 Alpha  occ. eigenvalues --  -10.28337 -10.28198 -10.28071 -10.27879 -10.27839
 Alpha  occ. eigenvalues --  -10.27790 -10.27207 -10.26813 -10.26805 -10.26642
 Alpha  occ. eigenvalues --  -10.26469 -10.26319 -10.26304 -10.26260 -10.26060
 Alpha  occ. eigenvalues --  -10.25972 -10.25958 -10.25654 -10.25628 -10.25400
 Alpha  occ. eigenvalues --  -10.25396 -10.25321 -10.24925 -10.24894 -10.24849
 Alpha  occ. eigenvalues --  -10.24832 -10.24719 -10.24647 -10.24641 -10.24530
 Alpha  occ. eigenvalues --  -10.24397 -10.24312 -10.24304 -10.24287 -10.24216
 Alpha  occ. eigenvalues --  -10.23955  -3.17714  -1.92617  -1.92152  -1.92020
 Alpha  occ. eigenvalues --   -1.17727  -1.17657  -1.11855  -1.11017  -1.09936
 Alpha  occ. eigenvalues --   -1.08911  -1.04233  -1.03717  -1.02996  -1.02323
 Alpha  occ. eigenvalues --   -0.91932  -0.90609  -0.89518  -0.89203  -0.88951
 Alpha  occ. eigenvalues --   -0.88711  -0.88257  -0.87841  -0.87129  -0.86903
 Alpha  occ. eigenvalues --   -0.86439  -0.86299  -0.84376  -0.84099  -0.83730
 Alpha  occ. eigenvalues --   -0.82596  -0.82151  -0.81116  -0.80983  -0.80353
 Alpha  occ. eigenvalues --   -0.79682  -0.78360  -0.77741  -0.77423  -0.76776
 Alpha  occ. eigenvalues --   -0.75899  -0.75510  -0.75331  -0.74713  -0.74143
 Alpha  occ. eigenvalues --   -0.73651  -0.72936  -0.71844  -0.70626  -0.69274
 Alpha  occ. eigenvalues --   -0.68816  -0.68085  -0.67346  -0.66015  -0.65576
 Alpha  occ. eigenvalues --   -0.65442  -0.65260  -0.65088  -0.64338  -0.63885
 Alpha  occ. eigenvalues --   -0.63807  -0.63412  -0.63266  -0.61900  -0.60126
 Alpha  occ. eigenvalues --   -0.59829  -0.59387  -0.58888  -0.58607  -0.58217
 Alpha  occ. eigenvalues --   -0.57908  -0.57586  -0.57102  -0.56398  -0.56203
 Alpha  occ. eigenvalues --   -0.55692  -0.55422  -0.54926  -0.54587  -0.54399
 Alpha  occ. eigenvalues --   -0.54025  -0.53589  -0.53485  -0.53164  -0.52729
 Alpha  occ. eigenvalues --   -0.52658  -0.52538  -0.52366  -0.52027  -0.51666
 Alpha  occ. eigenvalues --   -0.51605  -0.51425  -0.51306  -0.51172  -0.50681
 Alpha  occ. eigenvalues --   -0.50432  -0.50212  -0.50031  -0.49799  -0.49558
 Alpha  occ. eigenvalues --   -0.49454  -0.49389  -0.49191  -0.49042  -0.48946
 Alpha  occ. eigenvalues --   -0.48480  -0.48280  -0.47984  -0.47791  -0.47776
 Alpha  occ. eigenvalues --   -0.47371  -0.47118  -0.47034  -0.46840  -0.46762
 Alpha  occ. eigenvalues --   -0.46642  -0.46516  -0.46413  -0.46355  -0.45977
 Alpha  occ. eigenvalues --   -0.45928  -0.45540  -0.45234  -0.45069  -0.44947
 Alpha  occ. eigenvalues --   -0.44866  -0.44659  -0.44387  -0.44180  -0.43992
 Alpha  occ. eigenvalues --   -0.43910  -0.43709  -0.43549  -0.43521  -0.43334
 Alpha  occ. eigenvalues --   -0.43283  -0.42973  -0.42845  -0.42808  -0.42424
 Alpha  occ. eigenvalues --   -0.42188  -0.42079  -0.41710  -0.41498  -0.41338
 Alpha  occ. eigenvalues --   -0.41097  -0.40826  -0.40503  -0.40450  -0.40263
 Alpha  occ. eigenvalues --   -0.39492  -0.39292  -0.39159  -0.39115  -0.39040
 Alpha  occ. eigenvalues --   -0.38289  -0.38072  -0.38007  -0.37829  -0.37599
 Alpha  occ. eigenvalues --   -0.37207  -0.37072  -0.36820  -0.36798  -0.36506
 Alpha  occ. eigenvalues --   -0.35981  -0.35835  -0.35353  -0.34880  -0.34831
 Alpha  occ. eigenvalues --   -0.34740  -0.34411  -0.33122  -0.31383  -0.30972
 Alpha  occ. eigenvalues --   -0.30412  -0.30228  -0.29553  -0.28496  -0.24497
 Alpha  occ. eigenvalues --   -0.20859
 Alpha virt. eigenvalues --   -0.08865  -0.02216   0.00627   0.01814   0.02429
 Alpha virt. eigenvalues --    0.04202   0.04525   0.05041   0.06157   0.06174
 Alpha virt. eigenvalues --    0.07315   0.07952   0.08588   0.08712   0.08827

 Mulliken charges:
               1
     1  Mg   0.816875
     2  C   -0.072092
     3  C   -0.083311
     4  C   -0.036039
     5  C   -0.072653
     6  N   -0.303983
     7  C   -0.069670
     8  C    0.057887
     9  C   -0.063009
    10  C    0.063999
    11  C    0.055797
    12  C    0.061221
    13  C    0.052542
    14  C    0.153250
    15  O   -0.223131
    16  O   -0.330612
    17  N   -0.359492
    18  C    0.111894
    19  C   -0.106775
    20  C   -0.019842
    21  C    0.134121
    22  C    0.120452
    23  C   -0.069706
    24  O   -0.172803
    25  C    0.052503
    26  N   -0.280299
    27  C   -0.002621
    28  C   -0.085534
    29  C   -0.016324
    30  C    0.045171
    31  C    0.091403
    32  C    0.023771
    33  C    0.007167
    34  N   -0.401581
    35  C    0.101466
    36  C   -0.160849
    37  C   -0.043811
    38  C    0.191225
    39  C    0.111266
    40  C    0.086113
    41  O   -0.132480
    42  C   -0.018912
    43  C    0.202695
    44  O   -0.171277
    45  O   -0.337425
    46  C    0.161382
    47  C    0.321612
    48  C   -0.164200
    49  C   -0.196374
    50  C    0.088634
    51  C    0.130110
    52  C   -0.014765
    53  C    0.047538
    54  C   -0.114520
    55  C    0.043678
    56  C    0.059306
    57  C   -0.028370
    58  C    0.069848
    59  C   -0.165590
    60  C    0.056956
    61  C    0.018463
    62  C    0.075525
    63  C    0.034610
    64  C   -0.164589
    65  C    0.037013
    66  C    0.062550
    67  H   -0.028669
    68  H   -0.057181
    69  H   -0.025076
    70  H    0.007784
    71  H    0.021208
    72  H    0.025994
    73  H    0.020009
    74  H    0.009740
    75  H    0.013112
    76  H    0.012371
    77  H    0.049293
    78  H    0.053995
    79  H    0.027578
    80  H    0.040041
    81  H    0.014878
    82  H    0.038721
    83  H    0.048713
    84  H    0.010629
    85  H    0.013541
    86  H    0.011929
    87  H    0.019462
    88  H    0.018279
    89  H    0.025844
    90  H    0.024370
    91  H    0.004944
    92  H    0.020881
    93  H    0.008447
    94  H    0.022322
    95  H    0.035635
    96  H    0.031782
    97  H    0.022191
    98  H    0.031512
    99  H    0.052647
   100  H    0.031856
   101  H    0.025168
   102  H    0.011640
   103  H    0.022240
   104  H   -0.004312
   105  H    0.002381
   106  H    0.031644
   107  H    0.014991
   108  H    0.006906
   109  H   -0.011231
   110  H   -0.003588
   111  H   -0.005745
   112  H   -0.002215
   113  H   -0.005972
   114  H    0.002732
   115  H    0.015200
   116  H    0.001139
   117  H    0.001626
   118  H   -0.005431
   119  H   -0.001934
   120  H   -0.001610
   121  H   -0.001096
   122  H   -0.019233
   123  H   -0.004150
   124  H   -0.006072
   125  H    0.008353
   126  H   -0.000337
   127  H    0.017474
   128  H   -0.001429
   129  H   -0.026841
   130  H    0.003230
   131  H    0.010218
   132  H   -0.006255
   133  H   -0.013854
   134  H   -0.008357
   135  H    0.002871
   136  H   -0.011146
   137  H    0.017839
   138  H    0.002568
   139  H    0.016646
   140  H    0.001753
 Sum of Mulliken charges =  -0.00000

 Dipole moment (field-independent basis, Debye):
    X=              2.5304    Y=              3.8385    Z=              0.4643  Tot=              4.6210
 Quadrupole moment (field-independent basis, Debye-Ang):
   XX=           -366.1651   YY=           -434.4128   ZZ=           -411.4359
   XY=             11.5488   XZ=             -2.8465   YZ=             38.4002

 Normal termination of Gaussian 16 at Thu Apr 28 01:13:32 2022.
