 Gaussian 16, Revision A.03,
 Gaussian 16:  ES64L-G16RevA.03 25-Dec-2016

 ---------------------------------
 #p PBE1PBE/Def2SVP td=(nstates=5)
 ---------------------------------

 ------------------------------------------------------
 step_1401_chromophore_14 TDDFT with PBE1PBE functional
 ------------------------------------------------------
 Symbolic Z-matrix:
 Charge =  0 Multiplicity = 1

                         Standard orientation:
 ---------------------------------------------------------------------
 Center     Atomic      Atomic             Coordinates (Angstroms)
 Number     Number       Type             X           Y           Z
 ---------------------------------------------------------------------
      1         12           0        5.399492    0.732516   -0.037498
      2          6           0        4.684037   -2.610978    0.683087
      3          6           0        4.376371    0.191110   -3.303827
      4          6           0        5.199932    4.078358   -0.512473
      5          6           0        5.704466    1.370866    3.461343
      6          7           0        4.489748   -0.978269   -1.092510
      7          6           0        4.334376   -2.296560   -0.649260
      8          6           0        3.994699   -3.186525   -1.786876
      9          6           0        4.195538   -2.298607   -3.038472
     10          6           0        4.462814   -0.952562   -2.464023
     11          6           0        5.387704   -2.816449   -3.909674
     12          6           0        2.584067   -3.997810   -1.654772
     13          6           0        1.367490   -3.407678   -0.919273
     14          6           0        0.069166   -3.396421   -1.624284
     15          8           0       -0.280810   -4.044270   -2.604653
     16          8           0       -0.784422   -2.514392   -0.955029
     17          7           0        4.869301    1.975488   -1.735732
     18          6           0        4.427142    1.553701   -2.983211
     19          6           0        4.243157    2.622119   -3.871629
     20          6           0        4.556815    3.776160   -3.131615
     21          6           0        4.912451    3.340796   -1.747575
     22          6           0        3.788396    2.495916   -5.313346
     23          6           0        4.398306    5.151773   -3.620753
     24          8           0        3.946140    5.400954   -4.700295
     25          6           0        4.726704    6.284204   -2.651185
     26          7           0        5.714315    2.489399    1.206080
     27          6           0        5.530838    3.723971    0.749222
     28          6           0        5.645661    4.838607    1.814500
     29          6           0        5.837185    3.982639    3.114346
     30          6           0        5.654688    2.525130    2.601228
     31          6           0        6.683175    5.934293    1.458005
     32          6           0        4.895221    4.246698    4.377613
     33          6           0        5.606080    4.497280    5.710872
     34          7           0        5.461514   -0.363312    1.663472
     35          6           0        5.587895    0.033785    3.064402
     36          6           0        5.734818   -1.230664    3.845921
     37          6           0        5.384908   -2.196165    2.912068
     38          6           0        5.196986   -1.646608    1.638785
     39          6           0        5.886448   -1.295045    5.345798
     40          6           0        5.114975   -3.669013    2.874044
     41          8           0        5.041379   -4.432609    3.792331
     42          6           0        4.699438   -3.989507    1.384135
     43          6           0        5.657495   -5.002265    0.739576
     44          8           0        5.394883   -6.107875    0.352347
     45          8           0        6.792455   -4.269844    0.498339
     46          6           0        7.658493   -4.823400   -0.553182
     47          6           0       -1.961100   -2.292445   -1.629678
     48          6           0       -2.670759   -1.226077   -0.906928
     49          6           0       -3.736573   -0.505346   -1.388244
     50          6           0       -4.284548   -0.639813   -2.792600
     51          6           0       -4.390936    0.514105   -0.533576
     52          6           0       -5.902606    0.434048   -0.478288
     53          6           0       -6.428233    0.103518    0.929663
     54          6           0       -7.978957    0.463144    1.030405
     55          6           0       -8.185481    1.267047    2.336867
     56          6           0       -8.919372   -0.832086    1.031260
     57          6           0       -9.633942   -1.047124   -0.324377
     58          6           0      -11.042638   -1.676706   -0.342800
     59          6           0      -12.139764   -0.955290    0.506386
     60          6           0      -12.621447   -1.701154    1.816261
     61          6           0      -13.439107   -0.513499   -0.303596
     62          6           0      -13.931928    0.938496   -0.067042
     63          6           0      -15.425003    0.954944   -0.292585
     64          6           0      -16.215573    1.649681    0.840583
     65          6           0      -17.591708    0.909720    1.077076
     66          6           0      -16.323375    3.165691    0.589844
     67          1           0        4.107879    0.020441   -4.348061
     68          1           0        5.034282    5.157899   -0.539003
     69          1           0        5.851328    1.531619    4.530907
     70          1           0        4.849273   -3.850930   -1.655580
     71          1           0        3.309429   -2.176385   -3.660875
     72          1           0        5.423416   -2.662979   -4.987797
     73          1           0        5.487892   -3.874911   -3.669413
     74          1           0        6.291102   -2.301645   -3.581181
     75          1           0        2.736181   -5.039449   -1.374729
     76          1           0        2.308274   -4.300999   -2.664657
     77          1           0        1.474763   -2.341363   -0.722951
     78          1           0        1.236719   -3.898578    0.045350
     79          1           0        3.678801    3.375496   -5.947606
     80          1           0        3.062651    1.735655   -5.600453
     81          1           0        4.780651    2.320108   -5.730058
     82          1           0        5.756487    6.238896   -2.297481
     83          1           0        3.926577    6.326430   -1.912076
     84          1           0        4.616161    7.185608   -3.253620
     85          1           0        4.708718    5.394791    1.832762
     86          1           0        6.871699    4.099358    3.435638
     87          1           0        7.365134    5.919932    2.308582
     88          1           0        6.063984    6.812813    1.275063
     89          1           0        7.144457    5.701934    0.497129
     90          1           0        4.212839    3.400354    4.454298
     91          1           0        4.423011    5.180115    4.070625
     92          1           0        5.297252    5.471385    6.092425
     93          1           0        6.681262    4.506193    5.534075
     94          1           0        5.381952    3.708645    6.429845
     95          1           0        5.665198   -2.307348    5.682146
     96          1           0        5.300602   -0.570649    5.912393
     97          1           0        6.943900   -1.107494    5.532793
     98          1           0        3.705985   -4.433173    1.324492
     99          1           0        7.390696   -5.809978   -0.932449
    100          1           0        8.696340   -4.910501   -0.232070
    101          1           0        7.783431   -4.175608   -1.420915
    102          1           0       -2.479509   -3.226762   -1.412969
    103          1           0       -1.976048   -2.015898   -2.683418
    104          1           0       -2.311744   -1.018855    0.101173
    105          1           0       -4.724425    0.270785   -3.200086
    106          1           0       -5.165751   -1.280273   -2.842341
    107          1           0       -3.467053   -0.923780   -3.454942
    108          1           0       -4.143166    1.509864   -0.899706
    109          1           0       -3.935932    0.354983    0.444200
    110          1           0       -6.237508   -0.338076   -1.171167
    111          1           0       -6.313711    1.391947   -0.798391
    112          1           0       -5.850648    0.567404    1.728239
    113          1           0       -6.209694   -0.962491    1.007123
    114          1           0       -8.321985    1.065879    0.189563
    115          1           0       -9.088035    1.869745    2.235271
    116          1           0       -7.270225    1.788282    2.619764
    117          1           0       -8.268035    0.633966    3.220001
    118          1           0       -9.710331   -0.685410    1.767046
    119          1           0       -8.342761   -1.731424    1.250306
    120          1           0       -8.984427   -1.749539   -0.846554
    121          1           0       -9.756623   -0.112189   -0.870827
    122          1           0      -10.835611   -2.670756    0.054931
    123          1           0      -11.379513   -1.850804   -1.365101
    124          1           0      -11.678037    0.010722    0.709616
    125          1           0      -12.350429   -1.180004    2.734452
    126          1           0      -12.019673   -2.609056    1.815472
    127          1           0      -13.684550   -1.921876    1.911891
    128          1           0      -14.156347   -1.326070   -0.187197
    129          1           0      -13.068411   -0.677950   -1.314836
    130          1           0      -13.523250    1.654254   -0.780034
    131          1           0      -13.556674    1.182965    0.926433
    132          1           0      -15.848190   -0.041985   -0.418195
    133          1           0      -15.774385    1.446115   -1.200270
    134          1           0      -15.613550    1.496485    1.736191
    135          1           0      -18.003298    0.396756    0.208598
    136          1           0      -18.425287    1.599301    1.208166
    137          1           0      -17.572627    0.256497    1.949083
    138          1           0      -15.659169    3.493673   -0.209093
    139          1           0      -16.129450    3.773344    1.474199
    140          1           0      -17.336620    3.273486    0.203461
 ---------------------------------------------------------------------

 SCF Done:  E(RPBE1PBE) =  -3005.32270745     A.U. after   16 cycles

 Excitation energies and oscillator strengths:

 Excited State   1:      Singlet-A      1.7666 eV  701.82 nm  f=0.3211  <S**2>=0.000
     245 -> 248        0.16719
     246 -> 247        0.69632
     246 <- 247       -0.11723
 This state for optimization and/or second-order correction.
 Total Energy, E(TD-HF/TD-DFT) =  -3005.25778618
 Copying the excited state density for this state as the 1-particle RhoCI density.

 Excited State   2:      Singlet-A      2.2371 eV  554.21 nm  f=0.0741  <S**2>=0.000
     245 -> 247        0.62921
     246 -> 248       -0.31261

 Excited State   3:      Singlet-A      2.9376 eV  422.07 nm  f=0.0003  <S**2>=0.000
     242 -> 247        0.60764
     242 -> 250       -0.11034
     243 -> 247       -0.31462

 Excited State   4:      Singlet-A      2.9520 eV  420.00 nm  f=0.0002  <S**2>=0.000
     242 -> 247        0.31677
     243 -> 247        0.61305

 Excited State   5:      Singlet-A      3.0070 eV  412.31 nm  f=0.0000  <S**2>=0.000
     244 -> 247        0.70696

 The electronic state is 1-A.
 Alpha  occ. eigenvalues --  -46.92649 -19.26985 -19.25405 -19.21756 -19.20934
 Alpha  occ. eigenvalues --  -19.20097 -19.18439 -14.42094 -14.41671 -14.39267
 Alpha  occ. eigenvalues --  -14.39233 -10.37533 -10.36778 -10.32752 -10.30971
 Alpha  occ. eigenvalues --  -10.29670 -10.29618 -10.29329 -10.28839 -10.28806
 Alpha  occ. eigenvalues --  -10.28462 -10.27956 -10.27907 -10.26972 -10.26944
 Alpha  occ. eigenvalues --  -10.26812 -10.26796 -10.26649 -10.26221 -10.26211
 Alpha  occ. eigenvalues --  -10.26120 -10.25804 -10.25714 -10.25530 -10.25493
 Alpha  occ. eigenvalues --  -10.25446 -10.24789 -10.24458 -10.24304 -10.24151
 Alpha  occ. eigenvalues --  -10.24010 -10.23980 -10.23965 -10.23906 -10.23803
 Alpha  occ. eigenvalues --  -10.23449 -10.23399 -10.23364 -10.23068 -10.23049
 Alpha  occ. eigenvalues --  -10.23032 -10.22713 -10.22479 -10.22445 -10.22397
 Alpha  occ. eigenvalues --  -10.22387 -10.22253 -10.22211 -10.22181 -10.22058
 Alpha  occ. eigenvalues --  -10.21883 -10.21796 -10.21718 -10.21708 -10.21584
 Alpha  occ. eigenvalues --  -10.21506  -3.14681  -1.87524  -1.87039  -1.86910
 Alpha  occ. eigenvalues --   -1.12482  -1.12463  -1.06580  -1.05756  -1.04755
 Alpha  occ. eigenvalues --   -1.03752  -0.98822  -0.98313  -0.97656  -0.96979
 Alpha  occ. eigenvalues --   -0.86221  -0.84750  -0.83721  -0.83293  -0.83231
 Alpha  occ. eigenvalues --   -0.83030  -0.82390  -0.82112  -0.81424  -0.81159
 Alpha  occ. eigenvalues --   -0.80722  -0.80500  -0.78585  -0.78393  -0.77936
 Alpha  occ. eigenvalues --   -0.76786  -0.76394  -0.75398  -0.75225  -0.74593
 Alpha  occ. eigenvalues --   -0.73845  -0.72629  -0.72066  -0.71683  -0.71065
 Alpha  occ. eigenvalues --   -0.70076  -0.69853  -0.69410  -0.68829  -0.68457
 Alpha  occ. eigenvalues --   -0.67828  -0.67361  -0.66281  -0.64939  -0.63631
 Alpha  occ. eigenvalues --   -0.63225  -0.62310  -0.61871  -0.60424  -0.59926
 Alpha  occ. eigenvalues --   -0.59894  -0.59772  -0.59361  -0.58852  -0.58247
 Alpha  occ. eigenvalues --   -0.57999  -0.57968  -0.57410  -0.56082  -0.54605
 Alpha  occ. eigenvalues --   -0.54336  -0.53942  -0.53460  -0.53160  -0.52558
 Alpha  occ. eigenvalues --   -0.52428  -0.51992  -0.51584  -0.51008  -0.50769
 Alpha  occ. eigenvalues --   -0.50198  -0.49998  -0.49454  -0.49134  -0.48974
 Alpha  occ. eigenvalues --   -0.48500  -0.47996  -0.47852  -0.47696  -0.47370
 Alpha  occ. eigenvalues --   -0.47218  -0.46954  -0.46841  -0.46506  -0.46221
 Alpha  occ. eigenvalues --   -0.46090  -0.45968  -0.45908  -0.45702  -0.45284
 Alpha  occ. eigenvalues --   -0.44994  -0.44788  -0.44572  -0.44404  -0.44197
 Alpha  occ. eigenvalues --   -0.44083  -0.43933  -0.43794  -0.43611  -0.43559
 Alpha  occ. eigenvalues --   -0.43095  -0.42922  -0.42569  -0.42470  -0.42398
 Alpha  occ. eigenvalues --   -0.42047  -0.41810  -0.41726  -0.41483  -0.41406
 Alpha  occ. eigenvalues --   -0.41394  -0.41243  -0.41175  -0.40971  -0.40693
 Alpha  occ. eigenvalues --   -0.40498  -0.40262  -0.39993  -0.39810  -0.39642
 Alpha  occ. eigenvalues --   -0.39608  -0.39451  -0.39170  -0.38938  -0.38689
 Alpha  occ. eigenvalues --   -0.38670  -0.38450  -0.38326  -0.38230  -0.38100
 Alpha  occ. eigenvalues --   -0.38037  -0.37700  -0.37674  -0.37513  -0.37223
 Alpha  occ. eigenvalues --   -0.36961  -0.36895  -0.36594  -0.36412  -0.36222
 Alpha  occ. eigenvalues --   -0.35951  -0.35716  -0.35372  -0.35209  -0.35033
 Alpha  occ. eigenvalues --   -0.34396  -0.34150  -0.34091  -0.33954  -0.33826
 Alpha  occ. eigenvalues --   -0.33065  -0.32990  -0.32828  -0.32740  -0.32372
 Alpha  occ. eigenvalues --   -0.32223  -0.31879  -0.31835  -0.31658  -0.31397
 Alpha  occ. eigenvalues --   -0.30919  -0.30699  -0.30285  -0.29944  -0.29772
 Alpha  occ. eigenvalues --   -0.29594  -0.29353  -0.28724  -0.26819  -0.26242
 Alpha  occ. eigenvalues --   -0.25698  -0.25178  -0.25140  -0.23824  -0.21361
 Alpha  occ. eigenvalues --   -0.18568
 Alpha virt. eigenvalues --   -0.11320  -0.05655  -0.03629  -0.01998  -0.00938
 Alpha virt. eigenvalues --   -0.00369  -0.00085   0.00570   0.01760   0.02478
 Alpha virt. eigenvalues --    0.03538   0.04472   0.05005   0.05507   0.05616

 Mulliken charges:
               1
     1  Mg   0.960891
     2  C   -0.076188
     3  C   -0.069476
     4  C   -0.042765
     5  C   -0.069875
     6  N   -0.403957
     7  C    0.007731
     8  C   -0.024698
     9  C   -0.150356
    10  C    0.101750
    11  C    0.002034
    12  C    0.016416
    13  C   -0.026689
    14  C    0.218528
    15  O   -0.256680
    16  O   -0.364100
    17  N   -0.467060
    18  C    0.135323
    19  C   -0.135412
    20  C   -0.073097
    21  C    0.178060
    22  C    0.064832
    23  C   -0.009914
    24  O   -0.211759
    25  C   -0.030610
    26  N   -0.382927
    27  C    0.032279
    28  C   -0.153587
    29  C   -0.086960
    30  C    0.075538
    31  C    0.030246
    32  C   -0.041628
    33  C   -0.063599
    34  N   -0.527380
    35  C    0.115015
    36  C   -0.164744
    37  C   -0.107992
    38  C    0.247907
    39  C    0.051523
    40  C    0.187081
    41  O   -0.179160
    42  C   -0.124124
    43  C    0.288192
    44  O   -0.210286
    45  O   -0.363474
    46  C    0.106194
    47  C    0.279050
    48  C   -0.175633
    49  C   -0.234987
    50  C    0.025850
    51  C    0.064418
    52  C   -0.081796
    53  C   -0.003223
    54  C   -0.200232
    55  C   -0.018094
    56  C    0.006896
    57  C   -0.097920
    58  C    0.019665
    59  C   -0.250871
    60  C   -0.002567
    61  C   -0.032034
    62  C    0.009824
    63  C   -0.021561
    64  C   -0.255121
    65  C   -0.023960
    66  C    0.000592
    67  H    0.002721
    68  H   -0.022878
    69  H    0.008698
    70  H    0.056414
    71  H    0.057219
    72  H    0.052850
    73  H    0.047332
    74  H    0.037910
    75  H    0.043705
    76  H    0.043492
    77  H    0.082236
    78  H    0.085242
    79  H    0.054619
    80  H    0.065309
    81  H    0.044805
    82  H    0.065992
    83  H    0.075464
    84  H    0.040151
    85  H    0.050582
    86  H    0.049453
    87  H    0.047270
    88  H    0.045034
    89  H    0.054334
    90  H    0.056916
    91  H    0.039575
    92  H    0.048541
    93  H    0.035616
    94  H    0.048961
    95  H    0.063977
    96  H    0.057596
    97  H    0.051342
    98  H    0.070238
    99  H    0.072883
   100  H    0.054159
   101  H    0.047064
   102  H    0.042465
   103  H    0.048555
   104  H    0.025807
   105  H    0.030717
   106  H    0.058418
   107  H    0.042562
   108  H    0.041213
   109  H    0.021110
   110  H    0.031637
   111  H    0.026962
   112  H    0.028333
   113  H    0.027469
   114  H    0.038797
   115  H    0.043243
   116  H    0.029114
   117  H    0.029534
   118  H    0.030251
   119  H    0.029756
   120  H    0.032138
   121  H    0.030985
   122  H    0.013995
   123  H    0.027063
   124  H    0.034370
   125  H    0.034931
   126  H    0.027025
   127  H    0.043345
   128  H    0.029554
   129  H    0.008101
   130  H    0.035659
   131  H    0.041250
   132  H    0.026492
   133  H    0.019459
   134  H    0.030748
   135  H    0.029427
   136  H    0.016352
   137  H    0.045198
   138  H    0.030398
   139  H    0.043786
   140  H    0.029623
 Sum of Mulliken charges =  -0.00000

 Dipole moment (field-independent basis, Debye):
    X=              2.5392    Y=              3.9110    Z=              0.5039  Tot=              4.6901
 Quadrupole moment (field-independent basis, Debye-Ang):
   XX=           -362.9381   YY=           -431.2542   ZZ=           -407.0272
   XY=             12.1437   XZ=             -2.1554   YZ=             39.5750

 Normal termination of Gaussian 16 at Thu Apr 28 01:37:56 2022.
