 Gaussian 16, Revision A.03,
 Gaussian 16:  ES64L-G16RevA.03 25-Dec-2016

 --------------------------------
 #p wB97XD/Def2SVP td=(nstates=5)
 --------------------------------

 -----------------------------------------------------
 step_1401_chromophore_14 TDDFT with wB97XD functional
 -----------------------------------------------------
 Symbolic Z-matrix:
 Charge =  0 Multiplicity = 1

                         Standard orientation:
 ---------------------------------------------------------------------
 Center     Atomic      Atomic             Coordinates (Angstroms)
 Number     Number       Type             X           Y           Z
 ---------------------------------------------------------------------
      1         12           0        5.399492    0.732516   -0.037498
      2          6           0        4.684037   -2.610978    0.683087
      3          6           0        4.376371    0.191110   -3.303827
      4          6           0        5.199932    4.078358   -0.512473
      5          6           0        5.704466    1.370866    3.461343
      6          7           0        4.489748   -0.978269   -1.092510
      7          6           0        4.334376   -2.296560   -0.649260
      8          6           0        3.994699   -3.186525   -1.786876
      9          6           0        4.195538   -2.298607   -3.038472
     10          6           0        4.462814   -0.952562   -2.464023
     11          6           0        5.387704   -2.816449   -3.909674
     12          6           0        2.584067   -3.997810   -1.654772
     13          6           0        1.367490   -3.407678   -0.919273
     14          6           0        0.069166   -3.396421   -1.624284
     15          8           0       -0.280810   -4.044270   -2.604653
     16          8           0       -0.784422   -2.514392   -0.955029
     17          7           0        4.869301    1.975488   -1.735732
     18          6           0        4.427142    1.553701   -2.983211
     19          6           0        4.243157    2.622119   -3.871629
     20          6           0        4.556815    3.776160   -3.131615
     21          6           0        4.912451    3.340796   -1.747575
     22          6           0        3.788396    2.495916   -5.313346
     23          6           0        4.398306    5.151773   -3.620753
     24          8           0        3.946140    5.400954   -4.700295
     25          6           0        4.726704    6.284204   -2.651185
     26          7           0        5.714315    2.489399    1.206080
     27          6           0        5.530838    3.723971    0.749222
     28          6           0        5.645661    4.838607    1.814500
     29          6           0        5.837185    3.982639    3.114346
     30          6           0        5.654688    2.525130    2.601228
     31          6           0        6.683175    5.934293    1.458005
     32          6           0        4.895221    4.246698    4.377613
     33          6           0        5.606080    4.497280    5.710872
     34          7           0        5.461514   -0.363312    1.663472
     35          6           0        5.587895    0.033785    3.064402
     36          6           0        5.734818   -1.230664    3.845921
     37          6           0        5.384908   -2.196165    2.912068
     38          6           0        5.196986   -1.646608    1.638785
     39          6           0        5.886448   -1.295045    5.345798
     40          6           0        5.114975   -3.669013    2.874044
     41          8           0        5.041379   -4.432609    3.792331
     42          6           0        4.699438   -3.989507    1.384135
     43          6           0        5.657495   -5.002265    0.739576
     44          8           0        5.394883   -6.107875    0.352347
     45          8           0        6.792455   -4.269844    0.498339
     46          6           0        7.658493   -4.823400   -0.553182
     47          6           0       -1.961100   -2.292445   -1.629678
     48          6           0       -2.670759   -1.226077   -0.906928
     49          6           0       -3.736573   -0.505346   -1.388244
     50          6           0       -4.284548   -0.639813   -2.792600
     51          6           0       -4.390936    0.514105   -0.533576
     52          6           0       -5.902606    0.434048   -0.478288
     53          6           0       -6.428233    0.103518    0.929663
     54          6           0       -7.978957    0.463144    1.030405
     55          6           0       -8.185481    1.267047    2.336867
     56          6           0       -8.919372   -0.832086    1.031260
     57          6           0       -9.633942   -1.047124   -0.324377
     58          6           0      -11.042638   -1.676706   -0.342800
     59          6           0      -12.139764   -0.955290    0.506386
     60          6           0      -12.621447   -1.701154    1.816261
     61          6           0      -13.439107   -0.513499   -0.303596
     62          6           0      -13.931928    0.938496   -0.067042
     63          6           0      -15.425003    0.954944   -0.292585
     64          6           0      -16.215573    1.649681    0.840583
     65          6           0      -17.591708    0.909720    1.077076
     66          6           0      -16.323375    3.165691    0.589844
     67          1           0        4.107879    0.020441   -4.348061
     68          1           0        5.034282    5.157899   -0.539003
     69          1           0        5.851328    1.531619    4.530907
     70          1           0        4.849273   -3.850930   -1.655580
     71          1           0        3.309429   -2.176385   -3.660875
     72          1           0        5.423416   -2.662979   -4.987797
     73          1           0        5.487892   -3.874911   -3.669413
     74          1           0        6.291102   -2.301645   -3.581181
     75          1           0        2.736181   -5.039449   -1.374729
     76          1           0        2.308274   -4.300999   -2.664657
     77          1           0        1.474763   -2.341363   -0.722951
     78          1           0        1.236719   -3.898578    0.045350
     79          1           0        3.678801    3.375496   -5.947606
     80          1           0        3.062651    1.735655   -5.600453
     81          1           0        4.780651    2.320108   -5.730058
     82          1           0        5.756487    6.238896   -2.297481
     83          1           0        3.926577    6.326430   -1.912076
     84          1           0        4.616161    7.185608   -3.253620
     85          1           0        4.708718    5.394791    1.832762
     86          1           0        6.871699    4.099358    3.435638
     87          1           0        7.365134    5.919932    2.308582
     88          1           0        6.063984    6.812813    1.275063
     89          1           0        7.144457    5.701934    0.497129
     90          1           0        4.212839    3.400354    4.454298
     91          1           0        4.423011    5.180115    4.070625
     92          1           0        5.297252    5.471385    6.092425
     93          1           0        6.681262    4.506193    5.534075
     94          1           0        5.381952    3.708645    6.429845
     95          1           0        5.665198   -2.307348    5.682146
     96          1           0        5.300602   -0.570649    5.912393
     97          1           0        6.943900   -1.107494    5.532793
     98          1           0        3.705985   -4.433173    1.324492
     99          1           0        7.390696   -5.809978   -0.932449
    100          1           0        8.696340   -4.910501   -0.232070
    101          1           0        7.783431   -4.175608   -1.420915
    102          1           0       -2.479509   -3.226762   -1.412969
    103          1           0       -1.976048   -2.015898   -2.683418
    104          1           0       -2.311744   -1.018855    0.101173
    105          1           0       -4.724425    0.270785   -3.200086
    106          1           0       -5.165751   -1.280273   -2.842341
    107          1           0       -3.467053   -0.923780   -3.454942
    108          1           0       -4.143166    1.509864   -0.899706
    109          1           0       -3.935932    0.354983    0.444200
    110          1           0       -6.237508   -0.338076   -1.171167
    111          1           0       -6.313711    1.391947   -0.798391
    112          1           0       -5.850648    0.567404    1.728239
    113          1           0       -6.209694   -0.962491    1.007123
    114          1           0       -8.321985    1.065879    0.189563
    115          1           0       -9.088035    1.869745    2.235271
    116          1           0       -7.270225    1.788282    2.619764
    117          1           0       -8.268035    0.633966    3.220001
    118          1           0       -9.710331   -0.685410    1.767046
    119          1           0       -8.342761   -1.731424    1.250306
    120          1           0       -8.984427   -1.749539   -0.846554
    121          1           0       -9.756623   -0.112189   -0.870827
    122          1           0      -10.835611   -2.670756    0.054931
    123          1           0      -11.379513   -1.850804   -1.365101
    124          1           0      -11.678037    0.010722    0.709616
    125          1           0      -12.350429   -1.180004    2.734452
    126          1           0      -12.019673   -2.609056    1.815472
    127          1           0      -13.684550   -1.921876    1.911891
    128          1           0      -14.156347   -1.326070   -0.187197
    129          1           0      -13.068411   -0.677950   -1.314836
    130          1           0      -13.523250    1.654254   -0.780034
    131          1           0      -13.556674    1.182965    0.926433
    132          1           0      -15.848190   -0.041985   -0.418195
    133          1           0      -15.774385    1.446115   -1.200270
    134          1           0      -15.613550    1.496485    1.736191
    135          1           0      -18.003298    0.396756    0.208598
    136          1           0      -18.425287    1.599301    1.208166
    137          1           0      -17.572627    0.256497    1.949083
    138          1           0      -15.659169    3.493673   -0.209093
    139          1           0      -16.129450    3.773344    1.474199
    140          1           0      -17.336620    3.273486    0.203461
 ---------------------------------------------------------------------

 SCF Done:  E(RwB97XD) =  -3007.82874130     A.U. after   19 cycles

 Excitation energies and oscillator strengths:

 Excited State   1:      Singlet-A      1.5394 eV  805.39 nm  f=0.3355  <S**2>=0.000
     245 -> 248        0.17995
     246 -> 247        0.68619
     245 <- 248        0.12149
 This state for optimization and/or second-order correction.
 Total Energy, E(TD-HF/TD-DFT) =  -3007.77216858
 Copying the excited state density for this state as the 1-particle RhoCI density.

 Excited State   2:      Singlet-A      2.1693 eV  571.53 nm  f=0.0682  <S**2>=0.000
     245 -> 247        0.61380
     246 -> 248       -0.33985

 Excited State   3:      Singlet-A      3.2984 eV  375.89 nm  f=0.0650  <S**2>=0.000
     243 -> 247        0.63393
     246 -> 248        0.26342

 Excited State   4:      Singlet-A      3.4220 eV  362.31 nm  f=0.5000  <S**2>=0.000
     241 -> 247       -0.30586
     242 -> 247        0.18242
     243 -> 247       -0.23624
     245 -> 247        0.25695
     246 -> 248        0.48332

 Excited State   5:      Singlet-A      3.5785 eV  346.47 nm  f=0.3734  <S**2>=0.000
     241 -> 247        0.55536
     242 -> 250       -0.10010
     243 -> 247       -0.11694
     245 -> 247        0.21197
     246 -> 248        0.25645

 The electronic state is 1-A.
 Alpha  occ. eigenvalues --  -46.95598 -19.31578 -19.29957 -19.26502 -19.25601
 Alpha  occ. eigenvalues --  -19.24978 -19.23251 -14.47228 -14.46727 -14.44214
 Alpha  occ. eigenvalues --  -14.44204 -10.44406 -10.43556 -10.39641 -10.37807
 Alpha  occ. eigenvalues --  -10.36212 -10.35848 -10.35627 -10.35252 -10.35130
 Alpha  occ. eigenvalues --  -10.34734 -10.34383 -10.34288 -10.33242 -10.33237
 Alpha  occ. eigenvalues --  -10.33181 -10.33149 -10.33095 -10.32607 -10.32389
 Alpha  occ. eigenvalues --  -10.32385 -10.32349 -10.31959 -10.31919 -10.31849
 Alpha  occ. eigenvalues --  -10.31796 -10.31290 -10.30740 -10.30699 -10.30522
 Alpha  occ. eigenvalues --  -10.30365 -10.30355 -10.30336 -10.30309 -10.30065
 Alpha  occ. eigenvalues --  -10.29930 -10.29772 -10.29622 -10.29494 -10.29363
 Alpha  occ. eigenvalues --  -10.29338 -10.29281 -10.28831 -10.28829 -10.28770
 Alpha  occ. eigenvalues --  -10.28757 -10.28629 -10.28564 -10.28545 -10.28435
 Alpha  occ. eigenvalues --  -10.28227 -10.28219 -10.28132 -10.28130 -10.28013
 Alpha  occ. eigenvalues --  -10.27863  -3.21504  -1.95094  -1.94607  -1.94475
 Alpha  occ. eigenvalues --   -1.19900  -1.19836  -1.14097  -1.13223  -1.12149
 Alpha  occ. eigenvalues --   -1.11089  -1.06228  -1.05717  -1.05031  -1.04377
 Alpha  occ. eigenvalues --   -0.93890  -0.92413  -0.91361  -0.90956  -0.90829
 Alpha  occ. eigenvalues --   -0.90620  -0.90042  -0.89738  -0.89050  -0.88789
 Alpha  occ. eigenvalues --   -0.88361  -0.88163  -0.86246  -0.85999  -0.85602
 Alpha  occ. eigenvalues --   -0.84435  -0.84064  -0.83047  -0.82897  -0.82241
 Alpha  occ. eigenvalues --   -0.81506  -0.80268  -0.79661  -0.79368  -0.78724
 Alpha  occ. eigenvalues --   -0.77739  -0.77455  -0.77108  -0.76515  -0.76060
 Alpha  occ. eigenvalues --   -0.75482  -0.74919  -0.73822  -0.72543  -0.71201
 Alpha  occ. eigenvalues --   -0.70793  -0.69941  -0.69369  -0.67954  -0.67481
 Alpha  occ. eigenvalues --   -0.67385  -0.67262  -0.66964  -0.66333  -0.65774
 Alpha  occ. eigenvalues --   -0.65657  -0.65394  -0.65070  -0.63718  -0.62074
 Alpha  occ. eigenvalues --   -0.61806  -0.61372  -0.60884  -0.60571  -0.60076
 Alpha  occ. eigenvalues --   -0.59871  -0.59504  -0.59030  -0.58384  -0.58165
 Alpha  occ. eigenvalues --   -0.57637  -0.57401  -0.56877  -0.56512  -0.56332
 Alpha  occ. eigenvalues --   -0.55914  -0.55441  -0.55315  -0.55095  -0.54679
 Alpha  occ. eigenvalues --   -0.54555  -0.54468  -0.54275  -0.53896  -0.53630
 Alpha  occ. eigenvalues --   -0.53456  -0.53361  -0.53224  -0.53066  -0.52609
 Alpha  occ. eigenvalues --   -0.52347  -0.52131  -0.51914  -0.51729  -0.51512
 Alpha  occ. eigenvalues --   -0.51393  -0.51273  -0.51109  -0.50904  -0.50855
 Alpha  occ. eigenvalues --   -0.50407  -0.50183  -0.49844  -0.49722  -0.49663
 Alpha  occ. eigenvalues --   -0.49316  -0.49038  -0.48954  -0.48731  -0.48647
 Alpha  occ. eigenvalues --   -0.48587  -0.48444  -0.48333  -0.48215  -0.47932
 Alpha  occ. eigenvalues --   -0.47765  -0.47474  -0.47180  -0.46981  -0.46841
 Alpha  occ. eigenvalues --   -0.46770  -0.46590  -0.46327  -0.46115  -0.45847
 Alpha  occ. eigenvalues --   -0.45810  -0.45576  -0.45435  -0.45394  -0.45325
 Alpha  occ. eigenvalues --   -0.45275  -0.44845  -0.44788  -0.44676  -0.44364
 Alpha  occ. eigenvalues --   -0.44045  -0.44005  -0.43656  -0.43437  -0.43263
 Alpha  occ. eigenvalues --   -0.43014  -0.42719  -0.42351  -0.42331  -0.42114
 Alpha  occ. eigenvalues --   -0.41412  -0.41143  -0.41037  -0.40999  -0.40870
 Alpha  occ. eigenvalues --   -0.40112  -0.39998  -0.39915  -0.39802  -0.39445
 Alpha  occ. eigenvalues --   -0.39127  -0.38914  -0.38907  -0.38663  -0.38473
 Alpha  occ. eigenvalues --   -0.38000  -0.37670  -0.37199  -0.36767  -0.36727
 Alpha  occ. eigenvalues --   -0.36708  -0.36238  -0.35384  -0.33487  -0.33093
 Alpha  occ. eigenvalues --   -0.32378  -0.32326  -0.31747  -0.30515  -0.26416
 Alpha  occ. eigenvalues --   -0.22654
 Alpha virt. eigenvalues --   -0.07216  -0.00298   0.02700   0.04551   0.04984
 Alpha virt. eigenvalues --    0.06385   0.06796   0.07338   0.08463   0.08951
 Alpha virt. eigenvalues --    0.10043   0.11164   0.11637   0.12279   0.12373

 Mulliken charges:
               1
     1  Mg   0.952202
     2  C   -0.078254
     3  C   -0.086935
     4  C   -0.049812
     5  C   -0.086870
     6  N   -0.370794
     7  C   -0.029164
     8  C    0.014506
     9  C   -0.122993
    10  C    0.087199
    11  C    0.011369
    12  C    0.022341
    13  C   -0.009557
    14  C    0.211569
    15  O   -0.254249
    16  O   -0.362253
    17  N   -0.437165
    18  C    0.126592
    19  C   -0.122121
    20  C   -0.066914
    21  C    0.164246
    22  C    0.071424
    23  C   -0.016493
    24  O   -0.206806
    25  C   -0.013121
    26  N   -0.352901
    27  C    0.025390
    28  C   -0.131885
    29  C   -0.063334
    30  C    0.069981
    31  C    0.042446
    32  C   -0.024633
    33  C   -0.047460
    34  N   -0.491673
    35  C    0.110926
    36  C   -0.165281
    37  C   -0.095557
    38  C    0.226274
    39  C    0.062900
    40  C    0.163573
    41  O   -0.169361
    42  C   -0.083614
    43  C    0.266496
    44  O   -0.204839
    45  O   -0.364668
    46  C    0.122708
    47  C    0.292743
    48  C   -0.182130
    49  C   -0.222636
    50  C    0.036451
    51  C    0.082568
    52  C   -0.060549
    53  C    0.010698
    54  C   -0.170852
    55  C   -0.003199
    56  C    0.020652
    57  C   -0.075415
    58  C    0.032525
    59  C   -0.221619
    60  C    0.010779
    61  C   -0.014486
    62  C    0.025403
    63  C   -0.003692
    64  C   -0.226316
    65  C   -0.011868
    66  C    0.012327
    67  H   -0.003351
    68  H   -0.038184
    69  H    0.001985
    70  H    0.031440
    71  H    0.048653
    72  H    0.049051
    73  H    0.041132
    74  H    0.030385
    75  H    0.039160
    76  H    0.036544
    77  H    0.073992
    78  H    0.080240
    79  H    0.052855
    80  H    0.062837
    81  H    0.037859
    82  H    0.059396
    83  H    0.070248
    84  H    0.038079
    85  H    0.039550
    86  H    0.035113
    87  H    0.041921
    88  H    0.039944
    89  H    0.046695
    90  H    0.048201
    91  H    0.030294
    92  H    0.043449
    93  H    0.028547
    94  H    0.043446
    95  H    0.060114
    96  H    0.053139
    97  H    0.045488
    98  H    0.063019
    99  H    0.069324
   100  H    0.050438
   101  H    0.042562
   102  H    0.036665
   103  H    0.040960
   104  H    0.023177
   105  H    0.025574
   106  H    0.052905
   107  H    0.036869
   108  H    0.034464
   109  H    0.010975
   110  H    0.018354
   111  H    0.018754
   112  H    0.019191
   113  H    0.017455
   114  H    0.024800
   115  H    0.038014
   116  H    0.022197
   117  H    0.022722
   118  H    0.015513
   119  H    0.022352
   120  H    0.024123
   121  H    0.020777
   122  H    0.003792
   123  H    0.020159
   124  H    0.015760
   125  H    0.029538
   126  H    0.019475
   127  H    0.038037
   128  H    0.019222
   129  H   -0.002674
   130  H    0.029255
   131  H    0.030847
   132  H    0.014711
   133  H    0.010518
   134  H    0.018251
   135  H    0.023107
   136  H    0.009857
   137  H    0.040453
   138  H    0.023810
   139  H    0.039561
   140  H    0.022098
 Sum of Mulliken charges =  -0.00000

 Dipole moment (field-independent basis, Debye):
    X=              2.5876    Y=              3.9378    Z=              0.4119  Tot=              4.7299
 Quadrupole moment (field-independent basis, Debye-Ang):
   XX=           -361.9110   YY=           -430.6222   ZZ=           -406.9236
   XY=             11.7766   XZ=             -2.9542   YZ=             38.8013

 Normal termination of Gaussian 16 at Thu Apr 28 02:20:31 2022.
