 Gaussian 16, Revision A.03,
 Gaussian 16:  ES64L-G16RevA.03 25-Dec-2016

 --------------------
 #p ZINDO=(nstates=5)
 --------------------

 ------------------------------
 step_1401_chromophore_14 ZINDO
 ------------------------------
 Symbolic Z-matrix:
 Charge =  0 Multiplicity = 1

                         Standard orientation:
 ---------------------------------------------------------------------
 Center     Atomic      Atomic             Coordinates (Angstroms)
 Number     Number       Type             X           Y           Z
 ---------------------------------------------------------------------
      1         12           0        5.399492    0.732516   -0.037498
      2          6           0        4.684037   -2.610978    0.683087
      3          6           0        4.376371    0.191110   -3.303827
      4          6           0        5.199932    4.078358   -0.512473
      5          6           0        5.704466    1.370866    3.461343
      6          7           0        4.489748   -0.978269   -1.092510
      7          6           0        4.334376   -2.296560   -0.649260
      8          6           0        3.994699   -3.186525   -1.786876
      9          6           0        4.195538   -2.298607   -3.038472
     10          6           0        4.462814   -0.952562   -2.464023
     11          6           0        5.387704   -2.816449   -3.909674
     12          6           0        2.584067   -3.997810   -1.654772
     13          6           0        1.367490   -3.407678   -0.919273
     14          6           0        0.069166   -3.396421   -1.624284
     15          8           0       -0.280810   -4.044270   -2.604653
     16          8           0       -0.784422   -2.514392   -0.955029
     17          7           0        4.869301    1.975488   -1.735732
     18          6           0        4.427142    1.553701   -2.983211
     19          6           0        4.243157    2.622119   -3.871629
     20          6           0        4.556815    3.776160   -3.131615
     21          6           0        4.912451    3.340796   -1.747575
     22          6           0        3.788396    2.495916   -5.313346
     23          6           0        4.398306    5.151773   -3.620753
     24          8           0        3.946140    5.400954   -4.700295
     25          6           0        4.726704    6.284204   -2.651185
     26          7           0        5.714315    2.489399    1.206080
     27          6           0        5.530838    3.723971    0.749222
     28          6           0        5.645661    4.838607    1.814500
     29          6           0        5.837185    3.982639    3.114346
     30          6           0        5.654688    2.525130    2.601228
     31          6           0        6.683175    5.934293    1.458005
     32          6           0        4.895221    4.246698    4.377613
     33          6           0        5.606080    4.497280    5.710872
     34          7           0        5.461514   -0.363312    1.663472
     35          6           0        5.587895    0.033785    3.064402
     36          6           0        5.734818   -1.230664    3.845921
     37          6           0        5.384908   -2.196165    2.912068
     38          6           0        5.196986   -1.646608    1.638785
     39          6           0        5.886448   -1.295045    5.345798
     40          6           0        5.114975   -3.669013    2.874044
     41          8           0        5.041379   -4.432609    3.792331
     42          6           0        4.699438   -3.989507    1.384135
     43          6           0        5.657495   -5.002265    0.739576
     44          8           0        5.394883   -6.107875    0.352347
     45          8           0        6.792455   -4.269844    0.498339
     46          6           0        7.658493   -4.823400   -0.553182
     47          6           0       -1.961100   -2.292445   -1.629678
     48          6           0       -2.670759   -1.226077   -0.906928
     49          6           0       -3.736573   -0.505346   -1.388244
     50          6           0       -4.284548   -0.639813   -2.792600
     51          6           0       -4.390936    0.514105   -0.533576
     52          6           0       -5.902606    0.434048   -0.478288
     53          6           0       -6.428233    0.103518    0.929663
     54          6           0       -7.978957    0.463144    1.030405
     55          6           0       -8.185481    1.267047    2.336867
     56          6           0       -8.919372   -0.832086    1.031260
     57          6           0       -9.633942   -1.047124   -0.324377
     58          6           0      -11.042638   -1.676706   -0.342800
     59          6           0      -12.139764   -0.955290    0.506386
     60          6           0      -12.621447   -1.701154    1.816261
     61          6           0      -13.439107   -0.513499   -0.303596
     62          6           0      -13.931928    0.938496   -0.067042
     63          6           0      -15.425003    0.954944   -0.292585
     64          6           0      -16.215573    1.649681    0.840583
     65          6           0      -17.591708    0.909720    1.077076
     66          6           0      -16.323375    3.165691    0.589844
     67          1           0        4.107879    0.020441   -4.348061
     68          1           0        5.034282    5.157899   -0.539003
     69          1           0        5.851328    1.531619    4.530907
     70          1           0        4.849273   -3.850930   -1.655580
     71          1           0        3.309429   -2.176385   -3.660875
     72          1           0        5.423416   -2.662979   -4.987797
     73          1           0        5.487892   -3.874911   -3.669413
     74          1           0        6.291102   -2.301645   -3.581181
     75          1           0        2.736181   -5.039449   -1.374729
     76          1           0        2.308274   -4.300999   -2.664657
     77          1           0        1.474763   -2.341363   -0.722951
     78          1           0        1.236719   -3.898578    0.045350
     79          1           0        3.678801    3.375496   -5.947606
     80          1           0        3.062651    1.735655   -5.600453
     81          1           0        4.780651    2.320108   -5.730058
     82          1           0        5.756487    6.238896   -2.297481
     83          1           0        3.926577    6.326430   -1.912076
     84          1           0        4.616161    7.185608   -3.253620
     85          1           0        4.708718    5.394791    1.832762
     86          1           0        6.871699    4.099358    3.435638
     87          1           0        7.365134    5.919932    2.308582
     88          1           0        6.063984    6.812813    1.275063
     89          1           0        7.144457    5.701934    0.497129
     90          1           0        4.212839    3.400354    4.454298
     91          1           0        4.423011    5.180115    4.070625
     92          1           0        5.297252    5.471385    6.092425
     93          1           0        6.681262    4.506193    5.534075
     94          1           0        5.381952    3.708645    6.429845
     95          1           0        5.665198   -2.307348    5.682146
     96          1           0        5.300602   -0.570649    5.912393
     97          1           0        6.943900   -1.107494    5.532793
     98          1           0        3.705985   -4.433173    1.324492
     99          1           0        7.390696   -5.809978   -0.932449
    100          1           0        8.696340   -4.910501   -0.232070
    101          1           0        7.783431   -4.175608   -1.420915
    102          1           0       -2.479509   -3.226762   -1.412969
    103          1           0       -1.976048   -2.015898   -2.683418
    104          1           0       -2.311744   -1.018855    0.101173
    105          1           0       -4.724425    0.270785   -3.200086
    106          1           0       -5.165751   -1.280273   -2.842341
    107          1           0       -3.467053   -0.923780   -3.454942
    108          1           0       -4.143166    1.509864   -0.899706
    109          1           0       -3.935932    0.354983    0.444200
    110          1           0       -6.237508   -0.338076   -1.171167
    111          1           0       -6.313711    1.391947   -0.798391
    112          1           0       -5.850648    0.567404    1.728239
    113          1           0       -6.209694   -0.962491    1.007123
    114          1           0       -8.321985    1.065879    0.189563
    115          1           0       -9.088035    1.869745    2.235271
    116          1           0       -7.270225    1.788282    2.619764
    117          1           0       -8.268035    0.633966    3.220001
    118          1           0       -9.710331   -0.685410    1.767046
    119          1           0       -8.342761   -1.731424    1.250306
    120          1           0       -8.984427   -1.749539   -0.846554
    121          1           0       -9.756623   -0.112189   -0.870827
    122          1           0      -10.835611   -2.670756    0.054931
    123          1           0      -11.379513   -1.850804   -1.365101
    124          1           0      -11.678037    0.010722    0.709616
    125          1           0      -12.350429   -1.180004    2.734452
    126          1           0      -12.019673   -2.609056    1.815472
    127          1           0      -13.684550   -1.921876    1.911891
    128          1           0      -14.156347   -1.326070   -0.187197
    129          1           0      -13.068411   -0.677950   -1.314836
    130          1           0      -13.523250    1.654254   -0.780034
    131          1           0      -13.556674    1.182965    0.926433
    132          1           0      -15.848190   -0.041985   -0.418195
    133          1           0      -15.774385    1.446115   -1.200270
    134          1           0      -15.613550    1.496485    1.736191
    135          1           0      -18.003298    0.396756    0.208598
    136          1           0      -18.425287    1.599301    1.208166
    137          1           0      -17.572627    0.256497    1.949083
    138          1           0      -15.659169    3.493673   -0.209093
    139          1           0      -16.129450    3.773344    1.474199
    140          1           0      -17.336620    3.273486    0.203461
 ---------------------------------------------------------------------

 SCF Done:  E(RZINDO/S) =  -474.281441921     A.U. after   20 cycles

 Excitation energies and oscillator strengths:

 Excited State   1:      Singlet-A      1.1743 eV 1055.84 nm  f=0.5729  <S**2>=0.000
     175 ->178         0.19236
     176 ->177         0.66314
 This state for optimization and/or second-order correction.
 Total Energy, E(CIS/TDA) =  -474.238288346
 Copying the excited state density for this state as the 1-particle RhoCI density.

 Excited State   2:      Singlet-A      1.8858 eV  657.48 nm  f=0.0070  <S**2>=0.000
     175 ->177         0.50118
     176 ->178        -0.47984

 Excited State   3:      Singlet-A      2.9436 eV  421.19 nm  f=0.9010  <S**2>=0.000
     175 ->177         0.38818
     176 ->178         0.42068
     176 ->179         0.32252
     176 ->184         0.11441

 Excited State   4:      Singlet-A      2.9825 eV  415.70 nm  f=0.0854  <S**2>=0.000
     170 ->177         0.24460
     170 ->179        -0.20279
     170 ->180        -0.22970
     170 ->181         0.21681
     170 ->185        -0.14081
     170 ->187         0.16916
     175 ->177        -0.10232
     176 ->178        -0.10783
     176 ->179         0.33143
     176 ->180         0.19449
     176 ->181         0.11899

 Excited State   5:      Singlet-A      3.0068 eV  412.35 nm  f=0.0937  <S**2>=0.000
     170 ->177        -0.20261
     170 ->179         0.17549
     170 ->180         0.17909
     170 ->181        -0.16935
     170 ->185         0.11458
     170 ->187        -0.14008
     176 ->179         0.38865
     176 ->180         0.23193
     176 ->181         0.23273

 The electronic state is 1-A.
 Alpha  occ. eigenvalues --   -1.83886  -1.80453  -1.80016  -1.77408  -1.72634
 Alpha  occ. eigenvalues --   -1.71310  -1.63759  -1.61183  -1.60818  -1.58301
 Alpha  occ. eigenvalues --   -1.55950  -1.51527  -1.48634  -1.48401  -1.47442
 Alpha  occ. eigenvalues --   -1.46166  -1.42271  -1.41488  -1.38737  -1.38496
 Alpha  occ. eigenvalues --   -1.36683  -1.33697  -1.33014  -1.31619  -1.28237
 Alpha  occ. eigenvalues --   -1.27306  -1.27073  -1.23445  -1.21500  -1.17966
 Alpha  occ. eigenvalues --   -1.16633  -1.15706  -1.15265  -1.14381  -1.13896
 Alpha  occ. eigenvalues --   -1.12391  -1.09953  -1.09602  -1.06400  -1.05697
 Alpha  occ. eigenvalues --   -1.04245  -1.01889  -0.99434  -0.97902  -0.97041
 Alpha  occ. eigenvalues --   -0.95617  -0.94543  -0.93789  -0.92421  -0.92133
 Alpha  occ. eigenvalues --   -0.91589  -0.89985  -0.88157  -0.87345  -0.86575
 Alpha  occ. eigenvalues --   -0.85516  -0.85194  -0.84973  -0.82914  -0.80904
 Alpha  occ. eigenvalues --   -0.79952  -0.78617  -0.77708  -0.77101  -0.76457
 Alpha  occ. eigenvalues --   -0.76307  -0.75628  -0.74253  -0.73609  -0.72972
 Alpha  occ. eigenvalues --   -0.72675  -0.72425  -0.71991  -0.71321  -0.71107
 Alpha  occ. eigenvalues --   -0.70758  -0.69258  -0.69115  -0.68501  -0.68052
 Alpha  occ. eigenvalues --   -0.67509  -0.67066  -0.66180  -0.65951  -0.65525
 Alpha  occ. eigenvalues --   -0.64966  -0.64374  -0.64301  -0.63932  -0.63770
 Alpha  occ. eigenvalues --   -0.63386  -0.62697  -0.62228  -0.62151  -0.61798
 Alpha  occ. eigenvalues --   -0.61522  -0.61430  -0.60991  -0.60441  -0.59930
 Alpha  occ. eigenvalues --   -0.59520  -0.59085  -0.59021  -0.58500  -0.58218
 Alpha  occ. eigenvalues --   -0.57787  -0.57678  -0.57242  -0.56642  -0.56269
 Alpha  occ. eigenvalues --   -0.56170  -0.55617  -0.55260  -0.55017  -0.54692
 Alpha  occ. eigenvalues --   -0.54407  -0.53922  -0.53667  -0.53524  -0.53160
 Alpha  occ. eigenvalues --   -0.53014  -0.52613  -0.52402  -0.52016  -0.51890
 Alpha  occ. eigenvalues --   -0.51566  -0.51273  -0.50833  -0.50827  -0.50435
 Alpha  occ. eigenvalues --   -0.50029  -0.49795  -0.49686  -0.49531  -0.49006
 Alpha  occ. eigenvalues --   -0.48735  -0.48004  -0.47993  -0.47584  -0.47319
 Alpha  occ. eigenvalues --   -0.47219  -0.47051  -0.46835  -0.46744  -0.46660
 Alpha  occ. eigenvalues --   -0.46497  -0.46307  -0.46280  -0.45905  -0.45455
 Alpha  occ. eigenvalues --   -0.45336  -0.45135  -0.44835  -0.44604  -0.44233
 Alpha  occ. eigenvalues --   -0.43666  -0.43310  -0.43205  -0.43143  -0.43124
 Alpha  occ. eigenvalues --   -0.42817  -0.42206  -0.41982  -0.39835  -0.39294
 Alpha  occ. eigenvalues --   -0.38723  -0.37703  -0.35387  -0.34942  -0.34658
 Alpha  occ. eigenvalues --   -0.33494  -0.32826  -0.32362  -0.30943  -0.27220
 Alpha  occ. eigenvalues --   -0.21591
 Alpha virt. eigenvalues --   -0.08744  -0.02567  -0.00447   0.01074   0.01332
 Alpha virt. eigenvalues --    0.01667   0.01847   0.02253   0.04524   0.05029
 Alpha virt. eigenvalues --    0.06133   0.06510   0.06966   0.07315   0.07691

 Mulliken charges:
               1
     1  Mg   0.432391
     2  C   -0.058372
     3  C   -0.071064
     4  C   -0.099466
     5  C   -0.061722
     6  N   -0.296197
     7  C    0.115549
     8  C    0.009853
     9  C    0.014595
    10  C    0.135315
    11  C   -0.054337
    12  C   -0.037275
    13  C    0.017691
    14  C    0.468205
    15  O   -0.515988
    16  O   -0.270962
    17  N   -0.333279
    18  C    0.103428
    19  C    0.063173
    20  C   -0.059311
    21  C    0.124385
    22  C   -0.053146
    23  C    0.328190
    24  O   -0.519920
    25  C   -0.039182
    26  N   -0.272879
    27  C    0.154679
    28  C   -0.007138
    29  C   -0.004558
    30  C    0.102294
    31  C   -0.055768
    32  C   -0.036298
    33  C   -0.055438
    34  N   -0.322157
    35  C    0.066899
    36  C    0.025711
    37  C   -0.046768
    38  C    0.133653
    39  C   -0.034053
    40  C    0.326947
    41  O   -0.492533
    42  C    0.049915
    43  C    0.487765
    44  O   -0.494801
    45  O   -0.263301
    46  C    0.068187
    47  C    0.111239
    48  C   -0.098573
    49  C   -0.021078
    50  C   -0.045858
    51  C   -0.019179
    52  C   -0.030842
    53  C   -0.037539
    54  C   -0.020665
    55  C   -0.061944
    56  C   -0.037713
    57  C   -0.037353
    58  C   -0.034107
    59  C   -0.024678
    60  C   -0.060527
    61  C   -0.049040
    62  C   -0.022706
    63  C   -0.031048
    64  C   -0.013825
    65  C   -0.064244
    66  C   -0.056573
    67  H    0.025455
    68  H    0.017194
    69  H    0.030975
    70  H    0.041672
    71  H    0.037262
    72  H    0.029196
    73  H    0.021284
    74  H    0.016953
    75  H    0.032083
    76  H    0.027022
    77  H    0.042326
    78  H    0.053791
    79  H    0.049631
    80  H    0.037399
    81  H    0.029728
    82  H    0.039710
    83  H    0.044787
    84  H    0.025055
    85  H    0.027861
    86  H    0.034135
    87  H    0.033911
    88  H    0.025872
    89  H    0.027292
    90  H    0.032725
    91  H    0.019411
    92  H    0.021860
    93  H    0.020141
    94  H    0.022898
    95  H    0.034238
    96  H    0.032946
    97  H    0.029683
    98  H    0.051026
    99  H    0.051319
   100  H    0.031852
   101  H    0.031387
   102  H    0.046499
   103  H    0.060321
   104  H    0.032634
   105  H    0.016823
   106  H    0.033171
   107  H    0.024654
   108  H    0.024798
   109  H    0.018235
   110  H    0.023917
   111  H    0.015031
   112  H    0.025867
   113  H    0.018064
   114  H    0.029044
   115  H    0.021104
   116  H    0.018151
   117  H    0.014627
   118  H    0.020878
   119  H    0.025197
   120  H    0.012963
   121  H    0.018365
   122  H    0.010118
   123  H    0.020543
   124  H    0.017361
   125  H    0.015043
   126  H    0.017222
   127  H    0.027724
   128  H    0.025231
   129  H    0.009398
   130  H    0.022706
   131  H    0.029535
   132  H    0.014438
   133  H    0.016250
   134  H    0.014841
   135  H    0.020190
   136  H    0.009761
   137  H    0.022381
   138  H    0.017285
   139  H    0.022944
   140  H    0.019951
 Sum of Mulliken charges =  -0.00000

 Dipole moment (field-independent basis, Debye):
    X=              2.8817    Y=              5.6604    Z=              0.7677  Tot=              6.3979
 N-N= 4.282641168947D+03 E-N= 0.000000000000D+00  KE=-9.239026446385D+03
 Leave Link  601 at Thu Apr 28 02:39:16 2022, MaxMem=  6710886400 cpu:               0.7 elap:               0.0
 (Enter /sw/apps/gaussian-16.0/g16/l9999.exe)
 1\1\GINC-BP1-COMPUTE137\SP\RZINDO CIS\STO-3G\C55H74Mg1N4O6\OF15641\28-
 Apr-2022\0\\#p ZINDO=(nstates=5)\\step_1401_chromophore_14 ZINDO\\0,1\
 Mg,0,46.164,44.93,43.815\C,0,42.736,44.708,43.175\C,0,46.454,41.543,43
 .142\C,0,49.517,45.292,43.521\C,0,45.897,48.489,43.747\N,0,44.763,43.3
 89,43.087\C,0,43.373,43.468,42.945\C,0,42.796,42.114,42.757\C,0,43.976
 ,41.154,43.042\C,0,45.136,42.073,43.194\C,0,43.716,40.312,44.335\C,0,4
 1.955,41.888,41.376\C,0,42.319,42.615,40.069\C,0,42.488,41.802,38.847\

 Normal termination of Gaussian 16 at Thu Apr 28 02:39:16 2022.
