 Gaussian 16, Revision A.03,
 Gaussian 16:  ES64L-G16RevA.03 25-Dec-2016

 ------------------------------
 #p blyp/Def2SVP td=(nstates=5)
 ------------------------------

 ---------------------------------------------------
 step_1651_chromophore_21 TDDFT with blyp functional
 ---------------------------------------------------
 Symbolic Z-matrix:
 Charge =  0 Multiplicity = 1

                         Standard orientation:
 ---------------------------------------------------------------------
 Center     Atomic      Atomic             Coordinates (Angstroms)
 Number     Number       Type             X           Y           Z
 ---------------------------------------------------------------------
      1         12           0        5.084703    1.180127    0.097478
      2          6           0        4.339682   -2.330302   -0.184693
      3          6           0        1.629803    1.702510   -0.018721
      4          6           0        5.773769    4.363012   -0.276787
      5          6           0        8.415954    0.347268   -0.330388
      6          7           0        3.089429   -0.171780    0.022048
      7          6           0        3.093486   -1.590625   -0.015731
      8          6           0        1.744027   -2.130372    0.358453
      9          6           0        0.851066   -0.792110    0.192979
     10          6           0        1.918746    0.338809    0.195734
     11          6           0        0.028871   -0.800976   -1.142670
     12          6           0        1.738575   -2.710312    1.765280
     13          6           0        1.050913   -4.080311    1.855089
     14          6           0        0.046607   -4.481455    0.692498
     15          8           0        0.299131   -5.172527   -0.279634
     16          8           0       -1.151412   -3.801732    0.871876
     17          7           0        3.857017    2.858112    0.048134
     18          6           0        2.428917    2.899874    0.015347
     19          6           0        2.047091    4.268115    0.188243
     20          6           0        3.226720    5.068279    0.017480
     21          6           0        4.358685    4.135012   -0.078264
     22          6           0        0.557712    4.716476    0.461655
     23          6           0        3.360799    6.609751    0.001989
     24          8           0        4.408362    7.238685   -0.029534
     25          6           0        2.099771    7.513698    0.157435
     26          7           0        6.865302    2.235835   -0.253329
     27          6           0        6.895753    3.594870   -0.350568
     28          6           0        8.340483    4.138562   -0.310350
     29          6           0        9.175546    2.809902   -0.163600
     30          6           0        8.083652    1.666248   -0.215023
     31          6           0        8.569580    4.977808   -1.580464
     32          6           0       10.035322    2.774958    1.160807
     33          6           0       11.492800    2.802885    0.848088
     34          7           0        6.188283   -0.561317   -0.160341
     35          6           0        7.554229   -0.757556   -0.311986
     36          6           0        7.888752   -2.171150   -0.412718
     37          6           0        6.640347   -2.839720   -0.295224
     38          6           0        5.621265   -1.801491   -0.274295
     39          6           0        9.259204   -2.829836   -0.442329
     40          6           0        6.017086   -4.121431   -0.319594
     41          8           0        6.498624   -5.231302   -0.491661
     42          6           0        4.444558   -3.869402   -0.124250
     43          6           0        3.668589   -4.585119   -1.228711
     44          8           0        2.978111   -4.107041   -2.129602
     45          8           0        3.702418   -5.933973   -0.818369
     46          6           0        2.866175   -6.884629   -1.603532
     47          6           0       -2.210228   -3.923082   -0.143947
     48          6           0       -3.525973   -3.630727    0.595411
     49          6           0       -4.822012   -3.894213    0.196557
     50          6           0       -5.284417   -4.668466   -1.089139
     51          6           0       -5.956650   -3.176263    0.910309
     52          6           0       -5.947020   -1.653329    0.832034
     53          6           0       -6.043902   -0.910829    2.186340
     54          6           0       -6.971143    0.401223    2.032780
     55          6           0       -6.777705    1.437750    3.103091
     56          6           0       -8.465420    0.027031    1.961004
     57          6           0       -9.277169    1.026268    1.029407
     58          6           0      -10.353233    0.245940    0.254579
     59          6           0      -11.824083    0.619701    0.531512
     60          6           0      -12.164354    0.397399    1.951426
     61          6           0      -12.904355   -0.065975   -0.424228
     62          6           0      -13.328624    0.835950   -1.620361
     63          6           0      -14.770391    1.429167   -1.695717
     64          6           0      -14.814280    2.871097   -2.217133
     65          6           0      -14.347786    3.891605   -1.145605
     66          6           0      -16.159858    3.160381   -2.758873
     67          1           0        0.584534    2.015060   -0.049439
     68          1           0        5.960885    5.436443   -0.220686
     69          1           0        9.464502    0.055178   -0.415947
     70          1           0        1.493869   -2.865857   -0.405683
     71          1           0        0.122354   -0.591918    0.979498
     72          1           0       -0.996548   -0.474701   -0.970592
     73          1           0        0.084142   -1.732575   -1.706204
     74          1           0        0.523292    0.006668   -1.680796
     75          1           0        1.267303   -1.996581    2.441058
     76          1           0        2.797611   -2.778505    2.011910
     77          1           0        0.591491   -4.320644    2.813949
     78          1           0        1.847889   -4.808438    1.998152
     79          1           0       -0.049436    3.831607    0.651766
     80          1           0        0.112995    5.279690   -0.359327
     81          1           0        0.540537    5.382602    1.324163
     82          1           0        1.481597    7.286173   -0.711136
     83          1           0        2.541591    8.498941    0.011749
     84          1           0        1.657700    7.469632    1.152119
     85          1           0        8.435606    4.846286    0.513366
     86          1           0        9.810461    2.698605   -1.042232
     87          1           0        7.673157    4.982351   -2.199581
     88          1           0        9.400580    4.532029   -2.126787
     89          1           0        8.856532    6.017056   -1.420415
     90          1           0        9.836943    1.802548    1.611130
     91          1           0        9.878488    3.624255    1.826347
     92          1           0       11.876431    1.807169    0.625802
     93          1           0       11.956224    3.205924    1.748159
     94          1           0       11.696948    3.509341    0.042663
     95          1           0       10.044769   -2.078944   -0.352889
     96          1           0        9.342692   -3.466946   -1.321650
     97          1           0        9.281361   -3.484592    0.428290
     98          1           0        4.224056   -4.192809    0.893267
     99          1           0        3.378215   -7.845740   -1.549103
    100          1           0        2.707043   -6.589619   -2.640362
    101          1           0        1.837938   -6.857922   -1.242782
    102          1           0       -2.406819   -4.983619   -0.296474
    103          1           0       -2.031747   -3.235446   -0.971622
    104          1           0       -3.432581   -3.082060    1.533094
    105          1           0       -5.709746   -3.954645   -1.793625
    106          1           0       -6.059057   -5.363380   -0.765990
    107          1           0       -4.453179   -5.221178   -1.528573
    108          1           0       -6.030633   -3.512178    1.944849
    109          1           0       -6.866730   -3.456395    0.379545
    110          1           0       -6.737847   -1.403851    0.125916
    111          1           0       -5.007970   -1.236886    0.465863
    112          1           0       -5.079885   -0.634994    2.614564
    113          1           0       -6.515427   -1.448149    3.008828
    114          1           0       -6.538787    0.783459    1.108446
    115          1           0       -7.722925    1.799941    3.504188
    116          1           0       -6.308519    2.278669    2.591910
    117          1           0       -6.106306    1.121969    3.902563
    118          1           0       -8.933039   -0.013684    2.945289
    119          1           0       -8.579814   -1.006317    1.633584
    120          1           0       -8.508023    1.458616    0.390496
    121          1           0       -9.688622    1.841306    1.626269
    122          1           0      -10.318149   -0.786902    0.600591
    123          1           0      -10.096781    0.290860   -0.803110
    124          1           0      -11.940403    1.694366    0.390082
    125          1           0      -13.076577   -0.187188    2.065183
    126          1           0      -12.338180    1.407999    2.321619
    127          1           0      -11.433625   -0.124425    2.569898
    128          1           0      -13.794060   -0.411053    0.102592
    129          1           0      -12.392096   -0.962782   -0.773113
    130          1           0      -13.239414    0.213773   -2.510464
    131          1           0      -12.570410    1.602117   -1.782491
    132          1           0      -15.161672    1.345664   -0.681772
    133          1           0      -15.343618    0.780124   -2.357053
    134          1           0      -14.170791    2.968343   -3.091929
    135          1           0      -13.592699    3.514976   -0.455747
    136          1           0      -15.284488    4.166949   -0.659755
    137          1           0      -13.975724    4.841640   -1.528997
    138          1           0      -16.164366    4.089835   -3.327946
    139          1           0      -16.749398    3.332084   -1.858194
    140          1           0      -16.697777    2.435121   -3.369956
 ---------------------------------------------------------------------

 SCF Done:  E(RB-LYP) =  -3007.37365271     A.U. after   22 cycles

 Excitation energies and oscillator strengths:

 Excited State   1:      Singlet-A      1.8353 eV  675.54 nm  f=0.2766  <S**2>=0.000
     245 -> 248        0.21245
     246 -> 247        0.67763
     246 <- 247       -0.13850
 This state for optimization and/or second-order correction.
 Total Energy, E(TD-HF/TD-DFT) =  -3007.30620526
 Copying the excited state density for this state as the 1-particle RhoCI density.

 Excited State   2:      Singlet-A      1.8961 eV  653.89 nm  f=0.0164  <S**2>=0.000
     243 -> 247       -0.21364
     244 -> 247        0.59246
     245 -> 247       -0.30559

 Excited State   3:      Singlet-A      1.9305 eV  642.23 nm  f=0.0081  <S**2>=0.000
     243 -> 247        0.58612
     244 -> 247        0.32856
     245 -> 247        0.20667

 Excited State   4:      Singlet-A      1.9997 eV  620.00 nm  f=0.0766  <S**2>=0.000
     243 -> 247       -0.32890
     244 -> 247        0.19947
     245 -> 247        0.53840
     246 -> 248       -0.20925

 Excited State   5:      Singlet-A      2.3076 eV  537.29 nm  f=0.0001  <S**2>=0.000
     242 -> 247        0.70695

 The electronic state is 1-A.
 Alpha  occ. eigenvalues --  -46.27488 -18.82658 -18.80514 -18.78151 -18.76948
 Alpha  occ. eigenvalues --  -18.75789 -18.75673 -14.02981 -14.02634 -14.01342
 Alpha  occ. eigenvalues --  -14.00833 -10.05448 -10.03707 -10.00016  -9.99496
 Alpha  occ. eigenvalues --   -9.98988  -9.96853  -9.96233  -9.96226  -9.96134
 Alpha  occ. eigenvalues --   -9.95971  -9.95879  -9.95800  -9.95679  -9.95015
 Alpha  occ. eigenvalues --   -9.94476  -9.94246  -9.94212  -9.94162  -9.94069
 Alpha  occ. eigenvalues --   -9.94067  -9.93766  -9.93741  -9.93724  -9.93625
 Alpha  occ. eigenvalues --   -9.93578  -9.93553  -9.93322  -9.93202  -9.93146
 Alpha  occ. eigenvalues --   -9.92833  -9.92440  -9.92395  -9.92318  -9.92156
 Alpha  occ. eigenvalues --   -9.91985  -9.91938  -9.91918  -9.91839  -9.91710
 Alpha  occ. eigenvalues --   -9.91693  -9.91682  -9.91546  -9.91537  -9.91475
 Alpha  occ. eigenvalues --   -9.91459  -9.91434  -9.91390  -9.91283  -9.91275
 Alpha  occ. eigenvalues --   -9.91190  -9.91149  -9.90865  -9.90745  -9.90493
 Alpha  occ. eigenvalues --   -9.90238  -2.92021  -1.72447  -1.71919  -1.71721
 Alpha  occ. eigenvalues --   -0.97870  -0.95049  -0.91637  -0.91179  -0.90710
 Alpha  occ. eigenvalues --   -0.88423  -0.86334  -0.85920  -0.85018  -0.83599
 Alpha  occ. eigenvalues --   -0.75157  -0.73683  -0.73215  -0.72979  -0.72340
 Alpha  occ. eigenvalues --   -0.71952  -0.71614  -0.71381  -0.70268  -0.69928
 Alpha  occ. eigenvalues --   -0.68987  -0.68898  -0.67892  -0.67762  -0.67010
 Alpha  occ. eigenvalues --   -0.66497  -0.65618  -0.65114  -0.64557  -0.64249
 Alpha  occ. eigenvalues --   -0.63642  -0.62370  -0.61938  -0.61225  -0.60649
 Alpha  occ. eigenvalues --   -0.60378  -0.60022  -0.59621  -0.59424  -0.59028
 Alpha  occ. eigenvalues --   -0.58329  -0.57715  -0.56455  -0.55678  -0.54109
 Alpha  occ. eigenvalues --   -0.53835  -0.53439  -0.52570  -0.52254  -0.51440
 Alpha  occ. eigenvalues --   -0.51349  -0.51292  -0.50568  -0.50017  -0.49899
 Alpha  occ. eigenvalues --   -0.49818  -0.49195  -0.48863  -0.47678  -0.46116
 Alpha  occ. eigenvalues --   -0.45984  -0.45726  -0.45444  -0.45151  -0.44056
 Alpha  occ. eigenvalues --   -0.43864  -0.43594  -0.42670  -0.42406  -0.41971
 Alpha  occ. eigenvalues --   -0.41758  -0.41646  -0.41509  -0.41281  -0.41076
 Alpha  occ. eigenvalues --   -0.41066  -0.40765  -0.40478  -0.40242  -0.40099
 Alpha  occ. eigenvalues --   -0.39872  -0.39671  -0.39548  -0.39399  -0.39306
 Alpha  occ. eigenvalues --   -0.39021  -0.38603  -0.38326  -0.38258  -0.38200
 Alpha  occ. eigenvalues --   -0.37899  -0.37767  -0.37579  -0.37439  -0.37116
 Alpha  occ. eigenvalues --   -0.36966  -0.36858  -0.36794  -0.36547  -0.36424
 Alpha  occ. eigenvalues --   -0.36282  -0.35998  -0.35676  -0.35525  -0.35428
 Alpha  occ. eigenvalues --   -0.35174  -0.34977  -0.34833  -0.34704  -0.34607
 Alpha  occ. eigenvalues --   -0.34501  -0.34332  -0.34250  -0.34112  -0.33967
 Alpha  occ. eigenvalues --   -0.33888  -0.33702  -0.33100  -0.32851  -0.32711
 Alpha  occ. eigenvalues --   -0.32679  -0.32461  -0.32351  -0.32228  -0.32103
 Alpha  occ. eigenvalues --   -0.32037  -0.31756  -0.31671  -0.31548  -0.31386
 Alpha  occ. eigenvalues --   -0.31369  -0.31281  -0.31138  -0.31080  -0.30730
 Alpha  occ. eigenvalues --   -0.30690  -0.30387  -0.30335  -0.29991  -0.29876
 Alpha  occ. eigenvalues --   -0.29665  -0.29627  -0.29586  -0.29254  -0.28860
 Alpha  occ. eigenvalues --   -0.28768  -0.28618  -0.28425  -0.28144  -0.27247
 Alpha  occ. eigenvalues --   -0.27154  -0.27079  -0.26951  -0.26887  -0.26588
 Alpha  occ. eigenvalues --   -0.26491  -0.26414  -0.26252  -0.25829  -0.25093
 Alpha  occ. eigenvalues --   -0.24789  -0.24321  -0.23890  -0.23687  -0.23472
 Alpha  occ. eigenvalues --   -0.23162  -0.22683  -0.22160  -0.21799  -0.20791
 Alpha  occ. eigenvalues --   -0.20227  -0.20046  -0.18579  -0.18507  -0.17134
 Alpha  occ. eigenvalues --   -0.16022
 Alpha virt. eigenvalues --   -0.11566  -0.07190  -0.06330  -0.04371  -0.03950
 Alpha virt. eigenvalues --   -0.03034  -0.02763  -0.02377  -0.01156   0.00510
 Alpha virt. eigenvalues --    0.01556   0.01777   0.02318   0.02655   0.02765

 Mulliken charges:
               1
     1  Mg   0.685087
     2  C   -0.021094
     3  C   -0.022090
     4  C   -0.000220
     5  C   -0.081302
     6  N   -0.150939
     7  C   -0.097303
     8  C   -0.013902
     9  C   -0.036607
    10  C    0.022031
    11  C    0.115438
    12  C    0.185975
    13  C    0.123422
    14  C    0.110489
    15  O   -0.172713
    16  O   -0.300436
    17  N   -0.340129
    18  C    0.086496
    19  C   -0.132940
    20  C    0.054171
    21  C    0.067478
    22  C    0.163243
    23  C   -0.089130
    24  O   -0.158431
    25  C    0.110142
    26  N   -0.232984
    27  C    0.017110
    28  C    0.001055
    29  C    0.041213
    30  C    0.064047
    31  C    0.123366
    32  C    0.106047
    33  C    0.057516
    34  N   -0.275617
    35  C    0.111939
    36  C   -0.173730
    37  C    0.075056
    38  C    0.105663
    39  C    0.184846
    40  C   -0.069725
    41  O   -0.120582
    42  C   -0.004802
    43  C    0.189373
    44  O   -0.182758
    45  O   -0.294028
    46  C    0.211062
    47  C    0.331739
    48  C   -0.138520
    49  C   -0.176026
    50  C    0.131388
    51  C    0.154831
    52  C    0.077245
    53  C    0.062148
    54  C   -0.114531
    55  C    0.145070
    56  C    0.058532
    57  C    0.102939
    58  C    0.105906
    59  C   -0.102615
    60  C    0.114963
    61  C    0.121991
    62  C    0.047398
    63  C    0.111684
    64  C   -0.048690
    65  C    0.095547
    66  C    0.093950
    67  H   -0.063858
    68  H   -0.049770
    69  H   -0.070848
    70  H    0.021300
    71  H   -0.030545
    72  H   -0.010424
    73  H    0.023566
    74  H   -0.010334
    75  H   -0.018829
    76  H   -0.020685
    77  H   -0.017885
    78  H   -0.018745
    79  H   -0.012183
    80  H    0.005395
    81  H   -0.000013
    82  H    0.003518
    83  H   -0.011287
    84  H    0.020394
    85  H   -0.011909
    86  H   -0.026195
    87  H    0.002972
    88  H   -0.022980
    89  H   -0.008869
    90  H   -0.022557
    91  H   -0.013674
    92  H   -0.004009
    93  H   -0.018465
    94  H   -0.010058
    95  H   -0.015000
    96  H    0.017010
    97  H    0.011609
    98  H    0.026898
    99  H    0.019312
   100  H    0.004986
   101  H    0.017345
   102  H    0.017389
   103  H    0.030775
   104  H   -0.027324
   105  H    0.008321
   106  H    0.004821
   107  H   -0.009402
   108  H   -0.008947
   109  H   -0.046960
   110  H   -0.018063
   111  H   -0.020602
   112  H   -0.035059
   113  H   -0.038085
   114  H   -0.030300
   115  H   -0.015020
   116  H   -0.027536
   117  H   -0.020263
   118  H   -0.024372
   119  H   -0.036580
   120  H   -0.035017
   121  H   -0.025033
   122  H   -0.029049
   123  H   -0.034231
   124  H   -0.033580
   125  H   -0.026860
   126  H   -0.018443
   127  H   -0.020501
   128  H   -0.034186
   129  H   -0.045187
   130  H   -0.043103
   131  H   -0.029272
   132  H   -0.036778
   133  H   -0.035831
   134  H   -0.038338
   135  H   -0.005521
   136  H   -0.024906
   137  H   -0.019326
   138  H   -0.023965
   139  H   -0.030550
   140  H   -0.014048
 Sum of Mulliken charges =  -0.00000

 Dipole moment (field-independent basis, Debye):
    X=             -3.4892    Y=              1.0797    Z=              2.8687  Tot=              4.6443
 Quadrupole moment (field-independent basis, Debye-Ang):
   XX=           -379.2192   YY=           -438.3228   ZZ=           -405.5500
   XY=             17.0602   XZ=             15.9313   YZ=             -4.8822

 Normal termination of Gaussian 16 at Wed May  4 11:44:56 2022.
