 Gaussian 16, Revision A.03,
 Gaussian 16:  ES64L-G16RevA.03 25-Dec-2016

 -----------------------------------
 #p cam-b3lyp/Def2SVP td=(nstates=5)
 -----------------------------------

 --------------------------------------------------------
 step_1651_chromophore_21 TDDFT with cam-b3lyp functional
 --------------------------------------------------------
 Symbolic Z-matrix:
 Charge =  0 Multiplicity = 1

                         Standard orientation:
 ---------------------------------------------------------------------
 Center     Atomic      Atomic             Coordinates (Angstroms)
 Number     Number       Type             X           Y           Z
 ---------------------------------------------------------------------
      1         12           0        5.084703    1.180127    0.097478
      2          6           0        4.339682   -2.330302   -0.184693
      3          6           0        1.629803    1.702510   -0.018721
      4          6           0        5.773769    4.363012   -0.276787
      5          6           0        8.415954    0.347268   -0.330388
      6          7           0        3.089429   -0.171780    0.022048
      7          6           0        3.093486   -1.590625   -0.015731
      8          6           0        1.744027   -2.130372    0.358453
      9          6           0        0.851066   -0.792110    0.192979
     10          6           0        1.918746    0.338809    0.195734
     11          6           0        0.028871   -0.800976   -1.142670
     12          6           0        1.738575   -2.710312    1.765280
     13          6           0        1.050913   -4.080311    1.855089
     14          6           0        0.046607   -4.481455    0.692498
     15          8           0        0.299131   -5.172527   -0.279634
     16          8           0       -1.151412   -3.801732    0.871876
     17          7           0        3.857017    2.858112    0.048134
     18          6           0        2.428917    2.899874    0.015347
     19          6           0        2.047091    4.268115    0.188243
     20          6           0        3.226720    5.068279    0.017480
     21          6           0        4.358685    4.135012   -0.078264
     22          6           0        0.557712    4.716476    0.461655
     23          6           0        3.360799    6.609751    0.001989
     24          8           0        4.408362    7.238685   -0.029534
     25          6           0        2.099771    7.513698    0.157435
     26          7           0        6.865302    2.235835   -0.253329
     27          6           0        6.895753    3.594870   -0.350568
     28          6           0        8.340483    4.138562   -0.310350
     29          6           0        9.175546    2.809902   -0.163600
     30          6           0        8.083652    1.666248   -0.215023
     31          6           0        8.569580    4.977808   -1.580464
     32          6           0       10.035322    2.774958    1.160807
     33          6           0       11.492800    2.802885    0.848088
     34          7           0        6.188283   -0.561317   -0.160341
     35          6           0        7.554229   -0.757556   -0.311986
     36          6           0        7.888752   -2.171150   -0.412718
     37          6           0        6.640347   -2.839720   -0.295224
     38          6           0        5.621265   -1.801491   -0.274295
     39          6           0        9.259204   -2.829836   -0.442329
     40          6           0        6.017086   -4.121431   -0.319594
     41          8           0        6.498624   -5.231302   -0.491661
     42          6           0        4.444558   -3.869402   -0.124250
     43          6           0        3.668589   -4.585119   -1.228711
     44          8           0        2.978111   -4.107041   -2.129602
     45          8           0        3.702418   -5.933973   -0.818369
     46          6           0        2.866175   -6.884629   -1.603532
     47          6           0       -2.210228   -3.923082   -0.143947
     48          6           0       -3.525973   -3.630727    0.595411
     49          6           0       -4.822012   -3.894213    0.196557
     50          6           0       -5.284417   -4.668466   -1.089139
     51          6           0       -5.956650   -3.176263    0.910309
     52          6           0       -5.947020   -1.653329    0.832034
     53          6           0       -6.043902   -0.910829    2.186340
     54          6           0       -6.971143    0.401223    2.032780
     55          6           0       -6.777705    1.437750    3.103091
     56          6           0       -8.465420    0.027031    1.961004
     57          6           0       -9.277169    1.026268    1.029407
     58          6           0      -10.353233    0.245940    0.254579
     59          6           0      -11.824083    0.619701    0.531512
     60          6           0      -12.164354    0.397399    1.951426
     61          6           0      -12.904355   -0.065975   -0.424228
     62          6           0      -13.328624    0.835950   -1.620361
     63          6           0      -14.770391    1.429167   -1.695717
     64          6           0      -14.814280    2.871097   -2.217133
     65          6           0      -14.347786    3.891605   -1.145605
     66          6           0      -16.159858    3.160381   -2.758873
     67          1           0        0.584534    2.015060   -0.049439
     68          1           0        5.960885    5.436443   -0.220686
     69          1           0        9.464502    0.055178   -0.415947
     70          1           0        1.493869   -2.865857   -0.405683
     71          1           0        0.122354   -0.591918    0.979498
     72          1           0       -0.996548   -0.474701   -0.970592
     73          1           0        0.084142   -1.732575   -1.706204
     74          1           0        0.523292    0.006668   -1.680796
     75          1           0        1.267303   -1.996581    2.441058
     76          1           0        2.797611   -2.778505    2.011910
     77          1           0        0.591491   -4.320644    2.813949
     78          1           0        1.847889   -4.808438    1.998152
     79          1           0       -0.049436    3.831607    0.651766
     80          1           0        0.112995    5.279690   -0.359327
     81          1           0        0.540537    5.382602    1.324163
     82          1           0        1.481597    7.286173   -0.711136
     83          1           0        2.541591    8.498941    0.011749
     84          1           0        1.657700    7.469632    1.152119
     85          1           0        8.435606    4.846286    0.513366
     86          1           0        9.810461    2.698605   -1.042232
     87          1           0        7.673157    4.982351   -2.199581
     88          1           0        9.400580    4.532029   -2.126787
     89          1           0        8.856532    6.017056   -1.420415
     90          1           0        9.836943    1.802548    1.611130
     91          1           0        9.878488    3.624255    1.826347
     92          1           0       11.876431    1.807169    0.625802
     93          1           0       11.956224    3.205924    1.748159
     94          1           0       11.696948    3.509341    0.042663
     95          1           0       10.044769   -2.078944   -0.352889
     96          1           0        9.342692   -3.466946   -1.321650
     97          1           0        9.281361   -3.484592    0.428290
     98          1           0        4.224056   -4.192809    0.893267
     99          1           0        3.378215   -7.845740   -1.549103
    100          1           0        2.707043   -6.589619   -2.640362
    101          1           0        1.837938   -6.857922   -1.242782
    102          1           0       -2.406819   -4.983619   -0.296474
    103          1           0       -2.031747   -3.235446   -0.971622
    104          1           0       -3.432581   -3.082060    1.533094
    105          1           0       -5.709746   -3.954645   -1.793625
    106          1           0       -6.059057   -5.363380   -0.765990
    107          1           0       -4.453179   -5.221178   -1.528573
    108          1           0       -6.030633   -3.512178    1.944849
    109          1           0       -6.866730   -3.456395    0.379545
    110          1           0       -6.737847   -1.403851    0.125916
    111          1           0       -5.007970   -1.236886    0.465863
    112          1           0       -5.079885   -0.634994    2.614564
    113          1           0       -6.515427   -1.448149    3.008828
    114          1           0       -6.538787    0.783459    1.108446
    115          1           0       -7.722925    1.799941    3.504188
    116          1           0       -6.308519    2.278669    2.591910
    117          1           0       -6.106306    1.121969    3.902563
    118          1           0       -8.933039   -0.013684    2.945289
    119          1           0       -8.579814   -1.006317    1.633584
    120          1           0       -8.508023    1.458616    0.390496
    121          1           0       -9.688622    1.841306    1.626269
    122          1           0      -10.318149   -0.786902    0.600591
    123          1           0      -10.096781    0.290860   -0.803110
    124          1           0      -11.940403    1.694366    0.390082
    125          1           0      -13.076577   -0.187188    2.065183
    126          1           0      -12.338180    1.407999    2.321619
    127          1           0      -11.433625   -0.124425    2.569898
    128          1           0      -13.794060   -0.411053    0.102592
    129          1           0      -12.392096   -0.962782   -0.773113
    130          1           0      -13.239414    0.213773   -2.510464
    131          1           0      -12.570410    1.602117   -1.782491
    132          1           0      -15.161672    1.345664   -0.681772
    133          1           0      -15.343618    0.780124   -2.357053
    134          1           0      -14.170791    2.968343   -3.091929
    135          1           0      -13.592699    3.514976   -0.455747
    136          1           0      -15.284488    4.166949   -0.659755
    137          1           0      -13.975724    4.841640   -1.528997
    138          1           0      -16.164366    4.089835   -3.327946
    139          1           0      -16.749398    3.332084   -1.858194
    140          1           0      -16.697777    2.435121   -3.369956
 ---------------------------------------------------------------------

 SCF Done:  E(RCAM-B3LYP) =  -3007.15382840     A.U. after   17 cycles

 Excitation energies and oscillator strengths:

 Excited State   1:      Singlet-A      1.7374 eV  713.62 nm  f=0.3846  <S**2>=0.000
     245 -> 248        0.19739
     246 -> 247        0.67918
     245 <- 248        0.10789
 This state for optimization and/or second-order correction.
 Total Energy, E(TD-HF/TD-DFT) =  -3007.08998042
 Copying the excited state density for this state as the 1-particle RhoCI density.

 Excited State   2:      Singlet-A      2.2055 eV  562.15 nm  f=0.1181  <S**2>=0.000
     245 -> 247        0.64089
     246 -> 248       -0.28253

 Excited State   3:      Singlet-A      3.3300 eV  372.33 nm  f=0.0164  <S**2>=0.000
     244 -> 247        0.64006
     246 -> 248        0.20771

 Excited State   4:      Singlet-A      3.3825 eV  366.54 nm  f=0.0320  <S**2>=0.000
     240 -> 247        0.40323
     240 -> 248       -0.13786
     240 -> 249        0.23354
     240 -> 251        0.13402
     242 -> 247        0.38010
     242 -> 249        0.12469
     246 -> 248        0.20431

 Excited State   5:      Singlet-A      3.4913 eV  355.13 nm  f=0.5682  <S**2>=0.000
     240 -> 247       -0.23281
     240 -> 249       -0.10383
     244 -> 247       -0.22124
     245 -> 247        0.24649
     246 -> 248        0.54211

 The electronic state is 1-A.
 Alpha  occ. eigenvalues --  -46.89031 -19.25486 -19.23434 -19.21164 -19.20193
 Alpha  occ. eigenvalues --  -19.18974 -19.18965 -14.42061 -14.41190 -14.39851
 Alpha  occ. eigenvalues --  -14.39243 -10.40833 -10.39460 -10.35234 -10.34970
 Alpha  occ. eigenvalues --  -10.33036 -10.31443 -10.30637 -10.30585 -10.30538
 Alpha  occ. eigenvalues --  -10.30288 -10.30180 -10.30113 -10.29663 -10.29405
 Alpha  occ. eigenvalues --  -10.29119 -10.28861 -10.28752 -10.28630 -10.28237
 Alpha  occ. eigenvalues --  -10.28101 -10.27963 -10.27777 -10.27733 -10.27632
 Alpha  occ. eigenvalues --  -10.27555 -10.27549 -10.27519 -10.27399 -10.26850
 Alpha  occ. eigenvalues --  -10.26588 -10.26475 -10.26213 -10.25955 -10.25852
 Alpha  occ. eigenvalues --  -10.25749 -10.25692 -10.25661 -10.25659 -10.25611
 Alpha  occ. eigenvalues --  -10.25482 -10.25470 -10.25447 -10.25403 -10.25185
 Alpha  occ. eigenvalues --  -10.25118 -10.25096 -10.25013 -10.24975 -10.24960
 Alpha  occ. eigenvalues --  -10.24819 -10.24804 -10.24545 -10.24331 -10.24063
 Alpha  occ. eigenvalues --  -10.23805  -3.17466  -1.92369  -1.91925  -1.91760
 Alpha  occ. eigenvalues --   -1.16291  -1.13635  -1.10018  -1.09677  -1.08539
 Alpha  occ. eigenvalues --   -1.06348  -1.04121  -1.03523  -1.02570  -1.01021
 Alpha  occ. eigenvalues --   -0.92401  -0.90557  -0.90047  -0.89787  -0.89064
 Alpha  occ. eigenvalues --   -0.88540  -0.88164  -0.88014  -0.86878  -0.86452
 Alpha  occ. eigenvalues --   -0.85437  -0.85231  -0.84147  -0.83898  -0.83136
 Alpha  occ. eigenvalues --   -0.82600  -0.81579  -0.81066  -0.80377  -0.80129
 Alpha  occ. eigenvalues --   -0.79651  -0.78082  -0.77611  -0.76648  -0.76009
 Alpha  occ. eigenvalues --   -0.75735  -0.75341  -0.74954  -0.74712  -0.74277
 Alpha  occ. eigenvalues --   -0.73330  -0.72766  -0.71315  -0.70487  -0.68826
 Alpha  occ. eigenvalues --   -0.68417  -0.67884  -0.66913  -0.66607  -0.65703
 Alpha  occ. eigenvalues --   -0.65585  -0.65292  -0.64690  -0.63928  -0.63863
 Alpha  occ. eigenvalues --   -0.63659  -0.63153  -0.62797  -0.61467  -0.59720
 Alpha  occ. eigenvalues --   -0.59517  -0.59179  -0.58872  -0.58472  -0.57441
 Alpha  occ. eigenvalues --   -0.57313  -0.56821  -0.55778  -0.55625  -0.55067
 Alpha  occ. eigenvalues --   -0.54952  -0.54673  -0.54417  -0.54049  -0.53926
 Alpha  occ. eigenvalues --   -0.53747  -0.53427  -0.53244  -0.53125  -0.52819
 Alpha  occ. eigenvalues --   -0.52544  -0.52372  -0.52187  -0.52119  -0.52061
 Alpha  occ. eigenvalues --   -0.51756  -0.51591  -0.51013  -0.50810  -0.50640
 Alpha  occ. eigenvalues --   -0.50591  -0.50139  -0.49937  -0.49797  -0.49468
 Alpha  occ. eigenvalues --   -0.49337  -0.49072  -0.48931  -0.48781  -0.48574
 Alpha  occ. eigenvalues --   -0.48423  -0.48234  -0.47851  -0.47775  -0.47499
 Alpha  occ. eigenvalues --   -0.47355  -0.47216  -0.46735  -0.46684  -0.46601
 Alpha  occ. eigenvalues --   -0.46467  -0.46394  -0.46203  -0.45941  -0.45848
 Alpha  occ. eigenvalues --   -0.45702  -0.45343  -0.44873  -0.44721  -0.44364
 Alpha  occ. eigenvalues --   -0.44309  -0.44277  -0.43896  -0.43829  -0.43652
 Alpha  occ. eigenvalues --   -0.43595  -0.43439  -0.43371  -0.43218  -0.42959
 Alpha  occ. eigenvalues --   -0.42878  -0.42757  -0.42633  -0.42418  -0.42289
 Alpha  occ. eigenvalues --   -0.41927  -0.41845  -0.41557  -0.41321  -0.41203
 Alpha  occ. eigenvalues --   -0.40884  -0.40745  -0.40721  -0.40667  -0.40386
 Alpha  occ. eigenvalues --   -0.40010  -0.39645  -0.39618  -0.39049  -0.38321
 Alpha  occ. eigenvalues --   -0.37998  -0.37924  -0.37856  -0.37672  -0.37640
 Alpha  occ. eigenvalues --   -0.37563  -0.37366  -0.36911  -0.36499  -0.35769
 Alpha  occ. eigenvalues --   -0.35694  -0.35232  -0.34846  -0.34768  -0.34242
 Alpha  occ. eigenvalues --   -0.34176  -0.33959  -0.32843  -0.31359  -0.30711
 Alpha  occ. eigenvalues --   -0.30539  -0.30098  -0.29630  -0.29515  -0.23829
 Alpha  occ. eigenvalues --   -0.21327
 Alpha virt. eigenvalues --   -0.08677  -0.02109   0.00119   0.02479   0.02615
 Alpha virt. eigenvalues --    0.03947   0.04505   0.04857   0.06032   0.07140
 Alpha virt. eigenvalues --    0.08139   0.08385   0.08862   0.09008   0.09203

 Mulliken charges:
               1
     1  Mg   0.815920
     2  C   -0.044360
     3  C   -0.034190
     4  C   -0.028513
     5  C   -0.091948
     6  N   -0.209763
     7  C   -0.046450
     8  C   -0.077803
     9  C   -0.081272
    10  C    0.037534
    11  C    0.058438
    12  C    0.133204
    13  C    0.061024
    14  C    0.180702
    15  O   -0.213954
    16  O   -0.364280
    17  N   -0.425268
    18  C    0.090255
    19  C   -0.139967
    20  C   -0.023224
    21  C    0.100106
    22  C    0.113416
    23  C   -0.008092
    24  O   -0.199643
    25  C    0.032421
    26  N   -0.313550
    27  C    0.040181
    28  C   -0.047328
    29  C   -0.016579
    30  C    0.084099
    31  C    0.065037
    32  C    0.049970
    33  C   -0.001821
    34  N   -0.362939
    35  C    0.117973
    36  C   -0.169629
    37  C   -0.001280
    38  C    0.139064
    39  C    0.135904
    40  C    0.031411
    41  O   -0.157331
    42  C   -0.076584
    43  C    0.274216
    44  O   -0.219220
    45  O   -0.358115
    46  C    0.174090
    47  C    0.303036
    48  C   -0.156814
    49  C   -0.197710
    50  C    0.073717
    51  C    0.092493
    52  C    0.017485
    53  C    0.017626
    54  C   -0.167760
    55  C    0.083416
    56  C    0.006176
    57  C    0.046074
    58  C    0.055688
    59  C   -0.151786
    60  C    0.052371
    61  C    0.068388
    62  C   -0.005570
    63  C    0.056591
    64  C   -0.115111
    65  C    0.040927
    66  C    0.034077
    67  H   -0.029838
    68  H   -0.011888
    69  H   -0.037499
    70  H    0.052073
    71  H    0.004267
    72  H    0.012513
    73  H    0.045394
    74  H    0.016567
    75  H    0.012788
    76  H    0.010499
    77  H    0.017435
    78  H    0.013410
    79  H    0.013786
    80  H    0.030822
    81  H    0.025007
    82  H    0.029444
    83  H    0.024278
    84  H    0.046318
    85  H    0.022388
    86  H    0.008623
    87  H    0.029646
    88  H    0.000610
    89  H    0.016041
    90  H    0.007678
    91  H    0.014119
    92  H    0.017514
    93  H    0.006639
    94  H    0.011481
    95  H    0.009320
    96  H    0.043428
    97  H    0.037247
    98  H    0.065189
    99  H    0.042022
   100  H    0.029871
   101  H    0.040042
   102  H    0.044705
   103  H    0.054152
   104  H    0.005225
   105  H    0.031261
   106  H    0.028340
   107  H    0.014093
   108  H    0.021188
   109  H   -0.015264
   110  H    0.008857
   111  H    0.008774
   112  H   -0.006632
   113  H   -0.011083
   114  H   -0.000058
   115  H    0.009375
   116  H   -0.002595
   117  H    0.004944
   118  H    0.002601
   119  H   -0.009558
   120  H   -0.004596
   121  H    0.002161
   122  H   -0.002939
   123  H   -0.005365
   124  H   -0.005830
   125  H   -0.000568
   126  H    0.006022
   127  H    0.002600
   128  H   -0.005611
   129  H   -0.014658
   130  H   -0.012816
   131  H   -0.002644
   132  H   -0.009282
   133  H   -0.005775
   134  H   -0.007448
   135  H    0.015041
   136  H   -0.001873
   137  H    0.006350
   138  H    0.002240
   139  H   -0.007878
   140  H    0.012137
 Sum of Mulliken charges =  -0.00000

 Dipole moment (field-independent basis, Debye):
    X=             -3.8679    Y=              1.2661    Z=              3.0617  Tot=              5.0929
 Quadrupole moment (field-independent basis, Debye-Ang):
   XX=           -378.9927   YY=           -434.9308   ZZ=           -405.4157
   XY=             16.2842   XZ=             16.5727   YZ=             -5.0001

 Normal termination of Gaussian 16 at Wed May  4 10:50:19 2022.
