 Gaussian 16, Revision A.03,
 Gaussian 16:  ES64L-G16RevA.03 25-Dec-2016

 ---------------------------------
 #p PBE1PBE/Def2SVP td=(nstates=5)
 ---------------------------------

 ------------------------------------------------------
 step_1651_chromophore_21 TDDFT with PBE1PBE functional
 ------------------------------------------------------
 Symbolic Z-matrix:
 Charge =  0 Multiplicity = 1

                         Standard orientation:
 ---------------------------------------------------------------------
 Center     Atomic      Atomic             Coordinates (Angstroms)
 Number     Number       Type             X           Y           Z
 ---------------------------------------------------------------------
      1         12           0        5.084703    1.180127    0.097478
      2          6           0        4.339682   -2.330302   -0.184693
      3          6           0        1.629803    1.702510   -0.018721
      4          6           0        5.773769    4.363012   -0.276787
      5          6           0        8.415954    0.347268   -0.330388
      6          7           0        3.089429   -0.171780    0.022048
      7          6           0        3.093486   -1.590625   -0.015731
      8          6           0        1.744027   -2.130372    0.358453
      9          6           0        0.851066   -0.792110    0.192979
     10          6           0        1.918746    0.338809    0.195734
     11          6           0        0.028871   -0.800976   -1.142670
     12          6           0        1.738575   -2.710312    1.765280
     13          6           0        1.050913   -4.080311    1.855089
     14          6           0        0.046607   -4.481455    0.692498
     15          8           0        0.299131   -5.172527   -0.279634
     16          8           0       -1.151412   -3.801732    0.871876
     17          7           0        3.857017    2.858112    0.048134
     18          6           0        2.428917    2.899874    0.015347
     19          6           0        2.047091    4.268115    0.188243
     20          6           0        3.226720    5.068279    0.017480
     21          6           0        4.358685    4.135012   -0.078264
     22          6           0        0.557712    4.716476    0.461655
     23          6           0        3.360799    6.609751    0.001989
     24          8           0        4.408362    7.238685   -0.029534
     25          6           0        2.099771    7.513698    0.157435
     26          7           0        6.865302    2.235835   -0.253329
     27          6           0        6.895753    3.594870   -0.350568
     28          6           0        8.340483    4.138562   -0.310350
     29          6           0        9.175546    2.809902   -0.163600
     30          6           0        8.083652    1.666248   -0.215023
     31          6           0        8.569580    4.977808   -1.580464
     32          6           0       10.035322    2.774958    1.160807
     33          6           0       11.492800    2.802885    0.848088
     34          7           0        6.188283   -0.561317   -0.160341
     35          6           0        7.554229   -0.757556   -0.311986
     36          6           0        7.888752   -2.171150   -0.412718
     37          6           0        6.640347   -2.839720   -0.295224
     38          6           0        5.621265   -1.801491   -0.274295
     39          6           0        9.259204   -2.829836   -0.442329
     40          6           0        6.017086   -4.121431   -0.319594
     41          8           0        6.498624   -5.231302   -0.491661
     42          6           0        4.444558   -3.869402   -0.124250
     43          6           0        3.668589   -4.585119   -1.228711
     44          8           0        2.978111   -4.107041   -2.129602
     45          8           0        3.702418   -5.933973   -0.818369
     46          6           0        2.866175   -6.884629   -1.603532
     47          6           0       -2.210228   -3.923082   -0.143947
     48          6           0       -3.525973   -3.630727    0.595411
     49          6           0       -4.822012   -3.894213    0.196557
     50          6           0       -5.284417   -4.668466   -1.089139
     51          6           0       -5.956650   -3.176263    0.910309
     52          6           0       -5.947020   -1.653329    0.832034
     53          6           0       -6.043902   -0.910829    2.186340
     54          6           0       -6.971143    0.401223    2.032780
     55          6           0       -6.777705    1.437750    3.103091
     56          6           0       -8.465420    0.027031    1.961004
     57          6           0       -9.277169    1.026268    1.029407
     58          6           0      -10.353233    0.245940    0.254579
     59          6           0      -11.824083    0.619701    0.531512
     60          6           0      -12.164354    0.397399    1.951426
     61          6           0      -12.904355   -0.065975   -0.424228
     62          6           0      -13.328624    0.835950   -1.620361
     63          6           0      -14.770391    1.429167   -1.695717
     64          6           0      -14.814280    2.871097   -2.217133
     65          6           0      -14.347786    3.891605   -1.145605
     66          6           0      -16.159858    3.160381   -2.758873
     67          1           0        0.584534    2.015060   -0.049439
     68          1           0        5.960885    5.436443   -0.220686
     69          1           0        9.464502    0.055178   -0.415947
     70          1           0        1.493869   -2.865857   -0.405683
     71          1           0        0.122354   -0.591918    0.979498
     72          1           0       -0.996548   -0.474701   -0.970592
     73          1           0        0.084142   -1.732575   -1.706204
     74          1           0        0.523292    0.006668   -1.680796
     75          1           0        1.267303   -1.996581    2.441058
     76          1           0        2.797611   -2.778505    2.011910
     77          1           0        0.591491   -4.320644    2.813949
     78          1           0        1.847889   -4.808438    1.998152
     79          1           0       -0.049436    3.831607    0.651766
     80          1           0        0.112995    5.279690   -0.359327
     81          1           0        0.540537    5.382602    1.324163
     82          1           0        1.481597    7.286173   -0.711136
     83          1           0        2.541591    8.498941    0.011749
     84          1           0        1.657700    7.469632    1.152119
     85          1           0        8.435606    4.846286    0.513366
     86          1           0        9.810461    2.698605   -1.042232
     87          1           0        7.673157    4.982351   -2.199581
     88          1           0        9.400580    4.532029   -2.126787
     89          1           0        8.856532    6.017056   -1.420415
     90          1           0        9.836943    1.802548    1.611130
     91          1           0        9.878488    3.624255    1.826347
     92          1           0       11.876431    1.807169    0.625802
     93          1           0       11.956224    3.205924    1.748159
     94          1           0       11.696948    3.509341    0.042663
     95          1           0       10.044769   -2.078944   -0.352889
     96          1           0        9.342692   -3.466946   -1.321650
     97          1           0        9.281361   -3.484592    0.428290
     98          1           0        4.224056   -4.192809    0.893267
     99          1           0        3.378215   -7.845740   -1.549103
    100          1           0        2.707043   -6.589619   -2.640362
    101          1           0        1.837938   -6.857922   -1.242782
    102          1           0       -2.406819   -4.983619   -0.296474
    103          1           0       -2.031747   -3.235446   -0.971622
    104          1           0       -3.432581   -3.082060    1.533094
    105          1           0       -5.709746   -3.954645   -1.793625
    106          1           0       -6.059057   -5.363380   -0.765990
    107          1           0       -4.453179   -5.221178   -1.528573
    108          1           0       -6.030633   -3.512178    1.944849
    109          1           0       -6.866730   -3.456395    0.379545
    110          1           0       -6.737847   -1.403851    0.125916
    111          1           0       -5.007970   -1.236886    0.465863
    112          1           0       -5.079885   -0.634994    2.614564
    113          1           0       -6.515427   -1.448149    3.008828
    114          1           0       -6.538787    0.783459    1.108446
    115          1           0       -7.722925    1.799941    3.504188
    116          1           0       -6.308519    2.278669    2.591910
    117          1           0       -6.106306    1.121969    3.902563
    118          1           0       -8.933039   -0.013684    2.945289
    119          1           0       -8.579814   -1.006317    1.633584
    120          1           0       -8.508023    1.458616    0.390496
    121          1           0       -9.688622    1.841306    1.626269
    122          1           0      -10.318149   -0.786902    0.600591
    123          1           0      -10.096781    0.290860   -0.803110
    124          1           0      -11.940403    1.694366    0.390082
    125          1           0      -13.076577   -0.187188    2.065183
    126          1           0      -12.338180    1.407999    2.321619
    127          1           0      -11.433625   -0.124425    2.569898
    128          1           0      -13.794060   -0.411053    0.102592
    129          1           0      -12.392096   -0.962782   -0.773113
    130          1           0      -13.239414    0.213773   -2.510464
    131          1           0      -12.570410    1.602117   -1.782491
    132          1           0      -15.161672    1.345664   -0.681772
    133          1           0      -15.343618    0.780124   -2.357053
    134          1           0      -14.170791    2.968343   -3.091929
    135          1           0      -13.592699    3.514976   -0.455747
    136          1           0      -15.284488    4.166949   -0.659755
    137          1           0      -13.975724    4.841640   -1.528997
    138          1           0      -16.164366    4.089835   -3.327946
    139          1           0      -16.749398    3.332084   -1.858194
    140          1           0      -16.697777    2.435121   -3.369956
 ---------------------------------------------------------------------

 SCF Done:  E(RPBE1PBE) =  -3005.34187930     A.U. after   15 cycles

 Excitation energies and oscillator strengths:

 Excited State   1:      Singlet-A      1.8956 eV  654.06 nm  f=0.3653  <S**2>=0.000
     245 -> 248        0.19125
     246 -> 247        0.68573
 This state for optimization and/or second-order correction.
 Total Energy, E(TD-HF/TD-DFT) =  -3005.27221717
 Copying the excited state density for this state as the 1-particle RhoCI density.

 Excited State   2:      Singlet-A      2.1962 eV  564.54 nm  f=0.1180  <S**2>=0.000
     245 -> 247        0.65364
     246 -> 248       -0.25101

 Excited State   3:      Singlet-A      2.9269 eV  423.60 nm  f=0.0000  <S**2>=0.000
     240 -> 247       -0.15872
     241 -> 247       -0.27017
     242 -> 247        0.52966
     242 -> 249        0.12007
     243 -> 247       -0.27222

 Excited State   4:      Singlet-A      3.0022 eV  412.98 nm  f=0.0010  <S**2>=0.000
     242 -> 247        0.32113
     243 -> 247        0.59466

 Excited State   5:      Singlet-A      3.0493 eV  406.60 nm  f=0.0004  <S**2>=0.000
     241 -> 247        0.59362
     242 -> 247        0.22364
     243 -> 247       -0.22105
     246 -> 248       -0.14133

 The electronic state is 1-A.
 Alpha  occ. eigenvalues --  -46.92450 -19.26172 -19.24101 -19.21398 -19.20368
 Alpha  occ. eigenvalues --  -19.19214 -19.19148 -14.41409 -14.40859 -14.39492
 Alpha  occ. eigenvalues --  -14.38973 -10.37890 -10.36416 -10.32428 -10.32049
 Alpha  occ. eigenvalues --  -10.30433 -10.29259 -10.28349 -10.28288 -10.28260
 Alpha  occ. eigenvalues --  -10.28049 -10.27922 -10.27838 -10.27108 -10.26890
 Alpha  occ. eigenvalues --  -10.26814 -10.26449 -10.26432 -10.26328 -10.25928
 Alpha  occ. eigenvalues --  -10.25708 -10.25669 -10.25604 -10.25440 -10.25326
 Alpha  occ. eigenvalues --  -10.25267 -10.25243 -10.25229 -10.24976 -10.24242
 Alpha  occ. eigenvalues --  -10.24056 -10.24016 -10.23960 -10.23591 -10.23427
 Alpha  occ. eigenvalues --  -10.23423 -10.23414 -10.23277 -10.23183 -10.23133
 Alpha  occ. eigenvalues --  -10.23116 -10.23080 -10.22958 -10.22956 -10.22868
 Alpha  occ. eigenvalues --  -10.22719 -10.22628 -10.22587 -10.22516 -10.22404
 Alpha  occ. eigenvalues --  -10.22355 -10.22190 -10.22085 -10.21711 -10.21432
 Alpha  occ. eigenvalues --  -10.21175  -3.14466  -1.87309  -1.86843  -1.86681
 Alpha  occ. eigenvalues --   -1.11070  -1.08320  -1.04789  -1.04371  -1.03394
 Alpha  occ. eigenvalues --   -1.01147  -0.98693  -0.98171  -0.97235  -0.95712
 Alpha  occ. eigenvalues --   -0.86693  -0.84668  -0.84223  -0.83917  -0.83171
 Alpha  occ. eigenvalues --   -0.82845  -0.82541  -0.82143  -0.81173  -0.80770
 Alpha  occ. eigenvalues --   -0.79707  -0.79446  -0.78348  -0.78221  -0.77359
 Alpha  occ. eigenvalues --   -0.76858  -0.75847  -0.75291  -0.74543  -0.74406
 Alpha  occ. eigenvalues --   -0.73866  -0.72350  -0.71876  -0.70991  -0.70183
 Alpha  occ. eigenvalues --   -0.69818  -0.69669  -0.69074  -0.69028  -0.68459
 Alpha  occ. eigenvalues --   -0.67667  -0.67195  -0.65776  -0.64785  -0.63274
 Alpha  occ. eigenvalues --   -0.62633  -0.62273  -0.61269  -0.60952  -0.60088
 Alpha  occ. eigenvalues --   -0.59853  -0.59702  -0.59239  -0.58520  -0.58156
 Alpha  occ. eigenvalues --   -0.57997  -0.57291  -0.56971  -0.55999  -0.54143
 Alpha  occ. eigenvalues --   -0.54092  -0.53707  -0.53388  -0.53110  -0.52006
 Alpha  occ. eigenvalues --   -0.51716  -0.51306  -0.50376  -0.50186  -0.49568
 Alpha  occ. eigenvalues --   -0.49457  -0.49294  -0.48782  -0.48590  -0.48483
 Alpha  occ. eigenvalues --   -0.48157  -0.47880  -0.47796  -0.47630  -0.47356
 Alpha  occ. eigenvalues --   -0.47128  -0.46973  -0.46748  -0.46551  -0.46465
 Alpha  occ. eigenvalues --   -0.46202  -0.46094  -0.45595  -0.45339  -0.45227
 Alpha  occ. eigenvalues --   -0.45101  -0.44714  -0.44519  -0.44457  -0.44034
 Alpha  occ. eigenvalues --   -0.43906  -0.43677  -0.43485  -0.43411  -0.43165
 Alpha  occ. eigenvalues --   -0.43008  -0.42840  -0.42499  -0.42458  -0.42166
 Alpha  occ. eigenvalues --   -0.41951  -0.41896  -0.41399  -0.41346  -0.41262
 Alpha  occ. eigenvalues --   -0.41147  -0.41085  -0.40939  -0.40720  -0.40567
 Alpha  occ. eigenvalues --   -0.40379  -0.39984  -0.39616  -0.39459  -0.39170
 Alpha  occ. eigenvalues --   -0.39076  -0.38947  -0.38680  -0.38499  -0.38465
 Alpha  occ. eigenvalues --   -0.38206  -0.38191  -0.38143  -0.38013  -0.37777
 Alpha  occ. eigenvalues --   -0.37665  -0.37507  -0.37449  -0.37149  -0.37066
 Alpha  occ. eigenvalues --   -0.36713  -0.36671  -0.36499  -0.36128  -0.35961
 Alpha  occ. eigenvalues --   -0.35757  -0.35593  -0.35574  -0.35514  -0.35263
 Alpha  occ. eigenvalues --   -0.34808  -0.34531  -0.34423  -0.33845  -0.33296
 Alpha  occ. eigenvalues --   -0.32890  -0.32868  -0.32749  -0.32683  -0.32476
 Alpha  occ. eigenvalues --   -0.32389  -0.32172  -0.32018  -0.31315  -0.30822
 Alpha  occ. eigenvalues --   -0.30588  -0.30115  -0.29710  -0.29581  -0.29296
 Alpha  occ. eigenvalues --   -0.29243  -0.28893  -0.28412  -0.27048  -0.25918
 Alpha  occ. eigenvalues --   -0.25439  -0.25340  -0.25121  -0.24915  -0.20797
 Alpha  occ. eigenvalues --   -0.18973
 Alpha virt. eigenvalues --   -0.11159  -0.05592  -0.04089  -0.01793  -0.00717
 Alpha virt. eigenvalues --   -0.00295   0.00122   0.00302   0.01726   0.03591
 Alpha virt. eigenvalues --    0.04060   0.04875   0.05288   0.05616   0.05727

 Mulliken charges:
               1
     1  Mg   0.961671
     2  C   -0.057909
     3  C   -0.046001
     4  C   -0.027289
     5  C   -0.078548
     6  N   -0.307302
     7  C    0.040302
     8  C   -0.161640
     9  C   -0.157013
    10  C    0.089047
    11  C    0.003393
    12  C    0.082166
    13  C   -0.002754
    14  C    0.232500
    15  O   -0.247230
    16  O   -0.392839
    17  N   -0.531355
    18  C    0.112479
    19  C   -0.163266
    20  C   -0.082759
    21  C    0.141728
    22  C    0.055724
    23  C    0.045951
    24  O   -0.235393
    25  C   -0.043984
    26  N   -0.420166
    27  C    0.068044
    28  C   -0.117483
    29  C   -0.089668
    30  C    0.115322
    31  C    0.010912
    32  C   -0.010265
    33  C   -0.075405
    34  N   -0.486190
    35  C    0.132970
    36  C   -0.179142
    37  C   -0.051845
    38  C    0.185172
    39  C    0.079876
    40  C    0.128408
    41  O   -0.202597
    42  C   -0.183967
    43  C    0.351784
    44  O   -0.253727
    45  O   -0.385713
    46  C    0.119096
    47  C    0.261753
    48  C   -0.169014
    49  C   -0.235272
    50  C    0.006129
    51  C    0.027501
    52  C   -0.046438
    53  C   -0.032986
    54  C   -0.255145
    55  C    0.026830
    56  C   -0.050229
    57  C   -0.012686
    58  C   -0.001868
    59  C   -0.243080
    60  C   -0.004280
    61  C    0.014757
    62  C   -0.065410
    63  C    0.000677
    64  C   -0.215376
    65  C   -0.020215
    66  C   -0.025439
    67  H    0.003018
    68  H    0.021705
    69  H   -0.003247
    70  H    0.095671
    71  H    0.039897
    72  H    0.039469
    73  H    0.070835
    74  H    0.046346
    75  H    0.044320
    76  H    0.045607
    77  H    0.048292
    78  H    0.045391
    79  H    0.040651
    80  H    0.057807
    81  H    0.053065
    82  H    0.056859
    83  H    0.052378
    84  H    0.071957
    85  H    0.057815
    86  H    0.044356
    87  H    0.057210
    88  H    0.028722
    89  H    0.043349
    90  H    0.042265
    91  H    0.045057
    92  H    0.045149
    93  H    0.035541
    94  H    0.040076
    95  H    0.036004
    96  H    0.070605
    97  H    0.064925
    98  H    0.101869
    99  H    0.063688
   100  H    0.051313
   101  H    0.064696
   102  H    0.071950
   103  H    0.080713
   104  H    0.035578
   105  H    0.059361
   106  H    0.056322
   107  H    0.041446
   108  H    0.053084
   109  H    0.017732
   110  H    0.040545
   111  H    0.041770
   112  H    0.025243
   113  H    0.021623
   114  H    0.037553
   115  H    0.036596
   116  H    0.025283
   117  H    0.031948
   118  H    0.034867
   119  H    0.023152
   120  H    0.028739
   121  H    0.033563
   122  H    0.030210
   123  H    0.027175
   124  H    0.036589
   125  H    0.026991
   126  H    0.032554
   127  H    0.031170
   128  H    0.025204
   129  H    0.018526
   130  H    0.021176
   131  H    0.029172
   132  H    0.023460
   133  H    0.026666
   134  H    0.031165
   135  H    0.044723
   136  H    0.025334
   137  H    0.034355
   138  H    0.031003
   139  H    0.020265
   140  H    0.039231
 Sum of Mulliken charges =  -0.00000

 Dipole moment (field-independent basis, Debye):
    X=             -3.7521    Y=              1.3919    Z=              3.0864  Tot=              5.0538
 Quadrupole moment (field-independent basis, Debye-Ang):
   XX=           -372.3339   YY=           -432.0422   ZZ=           -403.0373
   XY=             17.5697   XZ=             16.8595   YZ=             -4.9162

 Normal termination of Gaussian 16 at Wed May  4 11:06:21 2022.
