 Gaussian 16, Revision A.03,
 Gaussian 16:  ES64L-G16RevA.03 25-Dec-2016

 --------------------------------
 #p wB97XD/Def2SVP td=(nstates=5)
 --------------------------------

 -----------------------------------------------------
 step_1651_chromophore_21 TDDFT with wB97XD functional
 -----------------------------------------------------
 Symbolic Z-matrix:
 Charge =  0 Multiplicity = 1

                         Standard orientation:
 ---------------------------------------------------------------------
 Center     Atomic      Atomic             Coordinates (Angstroms)
 Number     Number       Type             X           Y           Z
 ---------------------------------------------------------------------
      1         12           0        5.084703    1.180127    0.097478
      2          6           0        4.339682   -2.330302   -0.184693
      3          6           0        1.629803    1.702510   -0.018721
      4          6           0        5.773769    4.363012   -0.276787
      5          6           0        8.415954    0.347268   -0.330388
      6          7           0        3.089429   -0.171780    0.022048
      7          6           0        3.093486   -1.590625   -0.015731
      8          6           0        1.744027   -2.130372    0.358453
      9          6           0        0.851066   -0.792110    0.192979
     10          6           0        1.918746    0.338809    0.195734
     11          6           0        0.028871   -0.800976   -1.142670
     12          6           0        1.738575   -2.710312    1.765280
     13          6           0        1.050913   -4.080311    1.855089
     14          6           0        0.046607   -4.481455    0.692498
     15          8           0        0.299131   -5.172527   -0.279634
     16          8           0       -1.151412   -3.801732    0.871876
     17          7           0        3.857017    2.858112    0.048134
     18          6           0        2.428917    2.899874    0.015347
     19          6           0        2.047091    4.268115    0.188243
     20          6           0        3.226720    5.068279    0.017480
     21          6           0        4.358685    4.135012   -0.078264
     22          6           0        0.557712    4.716476    0.461655
     23          6           0        3.360799    6.609751    0.001989
     24          8           0        4.408362    7.238685   -0.029534
     25          6           0        2.099771    7.513698    0.157435
     26          7           0        6.865302    2.235835   -0.253329
     27          6           0        6.895753    3.594870   -0.350568
     28          6           0        8.340483    4.138562   -0.310350
     29          6           0        9.175546    2.809902   -0.163600
     30          6           0        8.083652    1.666248   -0.215023
     31          6           0        8.569580    4.977808   -1.580464
     32          6           0       10.035322    2.774958    1.160807
     33          6           0       11.492800    2.802885    0.848088
     34          7           0        6.188283   -0.561317   -0.160341
     35          6           0        7.554229   -0.757556   -0.311986
     36          6           0        7.888752   -2.171150   -0.412718
     37          6           0        6.640347   -2.839720   -0.295224
     38          6           0        5.621265   -1.801491   -0.274295
     39          6           0        9.259204   -2.829836   -0.442329
     40          6           0        6.017086   -4.121431   -0.319594
     41          8           0        6.498624   -5.231302   -0.491661
     42          6           0        4.444558   -3.869402   -0.124250
     43          6           0        3.668589   -4.585119   -1.228711
     44          8           0        2.978111   -4.107041   -2.129602
     45          8           0        3.702418   -5.933973   -0.818369
     46          6           0        2.866175   -6.884629   -1.603532
     47          6           0       -2.210228   -3.923082   -0.143947
     48          6           0       -3.525973   -3.630727    0.595411
     49          6           0       -4.822012   -3.894213    0.196557
     50          6           0       -5.284417   -4.668466   -1.089139
     51          6           0       -5.956650   -3.176263    0.910309
     52          6           0       -5.947020   -1.653329    0.832034
     53          6           0       -6.043902   -0.910829    2.186340
     54          6           0       -6.971143    0.401223    2.032780
     55          6           0       -6.777705    1.437750    3.103091
     56          6           0       -8.465420    0.027031    1.961004
     57          6           0       -9.277169    1.026268    1.029407
     58          6           0      -10.353233    0.245940    0.254579
     59          6           0      -11.824083    0.619701    0.531512
     60          6           0      -12.164354    0.397399    1.951426
     61          6           0      -12.904355   -0.065975   -0.424228
     62          6           0      -13.328624    0.835950   -1.620361
     63          6           0      -14.770391    1.429167   -1.695717
     64          6           0      -14.814280    2.871097   -2.217133
     65          6           0      -14.347786    3.891605   -1.145605
     66          6           0      -16.159858    3.160381   -2.758873
     67          1           0        0.584534    2.015060   -0.049439
     68          1           0        5.960885    5.436443   -0.220686
     69          1           0        9.464502    0.055178   -0.415947
     70          1           0        1.493869   -2.865857   -0.405683
     71          1           0        0.122354   -0.591918    0.979498
     72          1           0       -0.996548   -0.474701   -0.970592
     73          1           0        0.084142   -1.732575   -1.706204
     74          1           0        0.523292    0.006668   -1.680796
     75          1           0        1.267303   -1.996581    2.441058
     76          1           0        2.797611   -2.778505    2.011910
     77          1           0        0.591491   -4.320644    2.813949
     78          1           0        1.847889   -4.808438    1.998152
     79          1           0       -0.049436    3.831607    0.651766
     80          1           0        0.112995    5.279690   -0.359327
     81          1           0        0.540537    5.382602    1.324163
     82          1           0        1.481597    7.286173   -0.711136
     83          1           0        2.541591    8.498941    0.011749
     84          1           0        1.657700    7.469632    1.152119
     85          1           0        8.435606    4.846286    0.513366
     86          1           0        9.810461    2.698605   -1.042232
     87          1           0        7.673157    4.982351   -2.199581
     88          1           0        9.400580    4.532029   -2.126787
     89          1           0        8.856532    6.017056   -1.420415
     90          1           0        9.836943    1.802548    1.611130
     91          1           0        9.878488    3.624255    1.826347
     92          1           0       11.876431    1.807169    0.625802
     93          1           0       11.956224    3.205924    1.748159
     94          1           0       11.696948    3.509341    0.042663
     95          1           0       10.044769   -2.078944   -0.352889
     96          1           0        9.342692   -3.466946   -1.321650
     97          1           0        9.281361   -3.484592    0.428290
     98          1           0        4.224056   -4.192809    0.893267
     99          1           0        3.378215   -7.845740   -1.549103
    100          1           0        2.707043   -6.589619   -2.640362
    101          1           0        1.837938   -6.857922   -1.242782
    102          1           0       -2.406819   -4.983619   -0.296474
    103          1           0       -2.031747   -3.235446   -0.971622
    104          1           0       -3.432581   -3.082060    1.533094
    105          1           0       -5.709746   -3.954645   -1.793625
    106          1           0       -6.059057   -5.363380   -0.765990
    107          1           0       -4.453179   -5.221178   -1.528573
    108          1           0       -6.030633   -3.512178    1.944849
    109          1           0       -6.866730   -3.456395    0.379545
    110          1           0       -6.737847   -1.403851    0.125916
    111          1           0       -5.007970   -1.236886    0.465863
    112          1           0       -5.079885   -0.634994    2.614564
    113          1           0       -6.515427   -1.448149    3.008828
    114          1           0       -6.538787    0.783459    1.108446
    115          1           0       -7.722925    1.799941    3.504188
    116          1           0       -6.308519    2.278669    2.591910
    117          1           0       -6.106306    1.121969    3.902563
    118          1           0       -8.933039   -0.013684    2.945289
    119          1           0       -8.579814   -1.006317    1.633584
    120          1           0       -8.508023    1.458616    0.390496
    121          1           0       -9.688622    1.841306    1.626269
    122          1           0      -10.318149   -0.786902    0.600591
    123          1           0      -10.096781    0.290860   -0.803110
    124          1           0      -11.940403    1.694366    0.390082
    125          1           0      -13.076577   -0.187188    2.065183
    126          1           0      -12.338180    1.407999    2.321619
    127          1           0      -11.433625   -0.124425    2.569898
    128          1           0      -13.794060   -0.411053    0.102592
    129          1           0      -12.392096   -0.962782   -0.773113
    130          1           0      -13.239414    0.213773   -2.510464
    131          1           0      -12.570410    1.602117   -1.782491
    132          1           0      -15.161672    1.345664   -0.681772
    133          1           0      -15.343618    0.780124   -2.357053
    134          1           0      -14.170791    2.968343   -3.091929
    135          1           0      -13.592699    3.514976   -0.455747
    136          1           0      -15.284488    4.166949   -0.659755
    137          1           0      -13.975724    4.841640   -1.528997
    138          1           0      -16.164366    4.089835   -3.327946
    139          1           0      -16.749398    3.332084   -1.858194
    140          1           0      -16.697777    2.435121   -3.369956
 ---------------------------------------------------------------------

 SCF Done:  E(RwB97XD) =  -3007.85225206     A.U. after   19 cycles

 Excitation energies and oscillator strengths:

 Excited State   1:      Singlet-A      1.6763 eV  739.62 nm  f=0.3827  <S**2>=0.000
     245 -> 248        0.20366
     246 -> 247        0.67708
     245 <- 248        0.11763
 This state for optimization and/or second-order correction.
 Total Energy, E(TD-HF/TD-DFT) =  -3007.79064821
 Copying the excited state density for this state as the 1-particle RhoCI density.

 Excited State   2:      Singlet-A      2.1518 eV  576.19 nm  f=0.1140  <S**2>=0.000
     245 -> 247        0.63898
     246 -> 248       -0.28481

 Excited State   3:      Singlet-A      3.3432 eV  370.86 nm  f=0.0207  <S**2>=0.000
     243 -> 247        0.36473
     244 -> 247        0.51824
     246 -> 248        0.21982

 Excited State   4:      Singlet-A      3.4016 eV  364.49 nm  f=0.0463  <S**2>=0.000
     240 -> 247        0.31926
     240 -> 248       -0.12641
     240 -> 249        0.22184
     240 -> 250        0.13357
     242 -> 247        0.42885
     242 -> 249        0.16974
     246 -> 248        0.22602

 Excited State   5:      Singlet-A      3.5040 eV  353.84 nm  f=0.5477  <S**2>=0.000
     240 -> 247       -0.27907
     240 -> 249       -0.12794
     243 -> 247       -0.12700
     244 -> 247       -0.18066
     245 -> 247        0.23943
     246 -> 248        0.52169

 The electronic state is 1-A.
 Alpha  occ. eigenvalues --  -46.95367 -19.30721 -19.28697 -19.26076 -19.25146
 Alpha  occ. eigenvalues --  -19.24060 -19.23962 -14.46668 -14.45746 -14.44474
 Alpha  occ. eigenvalues --  -14.43856 -10.44669 -10.43339 -10.39200 -10.39008
 Alpha  occ. eigenvalues --  -10.36927 -10.35497 -10.34651 -10.34632 -10.34516
 Alpha  occ. eigenvalues --  -10.34300 -10.34226 -10.34160 -10.33434 -10.33433
 Alpha  occ. eigenvalues --  -10.33280 -10.32946 -10.32910 -10.32801 -10.32153
 Alpha  occ. eigenvalues --  -10.32146 -10.31993 -10.31855 -10.31847 -10.31609
 Alpha  occ. eigenvalues --  -10.31606 -10.31594 -10.31506 -10.31427 -10.30692
 Alpha  occ. eigenvalues --  -10.30480 -10.30434 -10.30199 -10.29865 -10.29838
 Alpha  occ. eigenvalues --  -10.29790 -10.29693 -10.29562 -10.29524 -10.29514
 Alpha  occ. eigenvalues --  -10.29457 -10.29429 -10.29407 -10.29333 -10.29154
 Alpha  occ. eigenvalues --  -10.29079 -10.28953 -10.28938 -10.28890 -10.28770
 Alpha  occ. eigenvalues --  -10.28736 -10.28627 -10.28465 -10.28148 -10.27871
 Alpha  occ. eigenvalues --  -10.27619  -3.21263  -1.94850  -1.94385  -1.94221
 Alpha  occ. eigenvalues --   -1.18449  -1.15801  -1.12212  -1.11947  -1.10732
 Alpha  occ. eigenvalues --   -1.08574  -1.06119  -1.05517  -1.04607  -1.03054
 Alpha  occ. eigenvalues --   -0.94390  -0.92346  -0.91876  -0.91584  -0.90838
 Alpha  occ. eigenvalues --   -0.90397  -0.90064  -0.89807  -0.88823  -0.88403
 Alpha  occ. eigenvalues --   -0.87374  -0.87097  -0.86001  -0.85785  -0.85001
 Alpha  occ. eigenvalues --   -0.84494  -0.83488  -0.82954  -0.82215  -0.82073
 Alpha  occ. eigenvalues --   -0.81588  -0.80026  -0.79544  -0.78567  -0.77863
 Alpha  occ. eigenvalues --   -0.77520  -0.77288  -0.76766  -0.76645  -0.76123
 Alpha  occ. eigenvalues --   -0.75264  -0.74764  -0.73296  -0.72405  -0.70833
 Alpha  occ. eigenvalues --   -0.70285  -0.69797  -0.68835  -0.68536  -0.67621
 Alpha  occ. eigenvalues --   -0.67485  -0.67187  -0.66701  -0.65945  -0.65682
 Alpha  occ. eigenvalues --   -0.65633  -0.64961  -0.64622  -0.63482  -0.61649
 Alpha  occ. eigenvalues --   -0.61501  -0.61144  -0.60840  -0.60468  -0.59381
 Alpha  occ. eigenvalues --   -0.59290  -0.58729  -0.57756  -0.57581  -0.57011
 Alpha  occ. eigenvalues --   -0.56874  -0.56673  -0.56264  -0.55946  -0.55842
 Alpha  occ. eigenvalues --   -0.55601  -0.55295  -0.55170  -0.55023  -0.54724
 Alpha  occ. eigenvalues --   -0.54467  -0.54316  -0.54107  -0.54020  -0.53932
 Alpha  occ. eigenvalues --   -0.53614  -0.53496  -0.52945  -0.52788  -0.52609
 Alpha  occ. eigenvalues --   -0.52467  -0.52055  -0.51844  -0.51701  -0.51402
 Alpha  occ. eigenvalues --   -0.51265  -0.50992  -0.50810  -0.50713  -0.50476
 Alpha  occ. eigenvalues --   -0.50295  -0.50170  -0.49801  -0.49698  -0.49403
 Alpha  occ. eigenvalues --   -0.49217  -0.49148  -0.48657  -0.48607  -0.48531
 Alpha  occ. eigenvalues --   -0.48374  -0.48301  -0.48114  -0.47854  -0.47780
 Alpha  occ. eigenvalues --   -0.47585  -0.47203  -0.46828  -0.46696  -0.46290
 Alpha  occ. eigenvalues --   -0.46234  -0.46158  -0.45836  -0.45664  -0.45569
 Alpha  occ. eigenvalues --   -0.45429  -0.45395  -0.45314  -0.45123  -0.44896
 Alpha  occ. eigenvalues --   -0.44776  -0.44616  -0.44570  -0.44292  -0.44233
 Alpha  occ. eigenvalues --   -0.43802  -0.43768  -0.43474  -0.43274  -0.43067
 Alpha  occ. eigenvalues --   -0.42778  -0.42652  -0.42604  -0.42586  -0.42267
 Alpha  occ. eigenvalues --   -0.41881  -0.41504  -0.41483  -0.40891  -0.40258
 Alpha  occ. eigenvalues --   -0.39940  -0.39794  -0.39762  -0.39576  -0.39481
 Alpha  occ. eigenvalues --   -0.39433  -0.39213  -0.39067  -0.38324  -0.37684
 Alpha  occ. eigenvalues --   -0.37543  -0.37237  -0.36703  -0.36672  -0.36159
 Alpha  occ. eigenvalues --   -0.36100  -0.35936  -0.35104  -0.33592  -0.32764
 Alpha  occ. eigenvalues --   -0.32463  -0.32245  -0.31680  -0.31671  -0.25743
 Alpha  occ. eigenvalues --   -0.23130
 Alpha virt. eigenvalues --   -0.07040  -0.00197   0.02172   0.04704   0.05557
 Alpha virt. eigenvalues --    0.06203   0.06753   0.07059   0.08474   0.09974
 Alpha virt. eigenvalues --    0.10571   0.11700   0.12110   0.12354   0.12494

 Mulliken charges:
               1
     1  Mg   0.953016
     2  C   -0.056233
     3  C   -0.048804
     4  C   -0.045568
     5  C   -0.102017
     6  N   -0.271691
     7  C    0.003395
     8  C   -0.121873
     9  C   -0.131495
    10  C    0.065191
    11  C    0.013056
    12  C    0.090392
    13  C    0.009761
    14  C    0.224473
    15  O   -0.243204
    16  O   -0.391399
    17  N   -0.504873
    18  C    0.103690
    19  C   -0.155723
    20  C   -0.073713
    21  C    0.130697
    22  C    0.069251
    23  C    0.040800
    24  O   -0.230686
    25  C   -0.030482
    26  N   -0.388905
    27  C    0.064551
    28  C   -0.097752
    29  C   -0.064928
    30  C    0.107749
    31  C    0.020981
    32  C    0.003402
    33  C   -0.057972
    34  N   -0.450706
    35  C    0.131202
    36  C   -0.180975
    37  C   -0.045553
    38  C    0.169166
    39  C    0.093347
    40  C    0.109120
    41  O   -0.192407
    42  C   -0.144875
    43  C    0.332712
    44  O   -0.246691
    45  O   -0.386115
    46  C    0.135424
    47  C    0.275641
    48  C   -0.176712
    49  C   -0.225183
    50  C    0.023132
    51  C    0.045140
    52  C   -0.029662
    53  C   -0.018993
    54  C   -0.220452
    55  C    0.034391
    56  C   -0.031555
    57  C   -0.000973
    58  C    0.019249
    59  C   -0.207701
    60  C    0.005853
    61  C    0.028018
    62  C   -0.049976
    63  C    0.014873
    64  C   -0.181696
    65  C   -0.007109
    66  C   -0.013193
    67  H   -0.004961
    68  H    0.014225
    69  H   -0.011494
    70  H    0.069699
    71  H    0.031251
    72  H    0.034425
    73  H    0.066359
    74  H    0.037855
    75  H    0.038599
    76  H    0.034576
    77  H    0.044136
    78  H    0.039389
    79  H    0.035999
    80  H    0.052981
    81  H    0.046832
    82  H    0.050676
    83  H    0.050316
    84  H    0.067829
    85  H    0.048936
    86  H    0.032182
    87  H    0.050604
    88  H    0.021789
    89  H    0.038573
    90  H    0.032519
    91  H    0.038302
    92  H    0.039131
    93  H    0.029920
    94  H    0.032054
    95  H    0.031058
    96  H    0.066546
    97  H    0.059737
    98  H    0.092733
    99  H    0.061019
   100  H    0.047108
   101  H    0.059115
   102  H    0.064905
   103  H    0.076514
   104  H    0.031235
   105  H    0.053208
   106  H    0.050204
   107  H    0.036024
   108  H    0.045868
   109  H    0.010022
   110  H    0.031342
   111  H    0.031917
   112  H    0.017963
   113  H    0.010882
   114  H    0.022900
   115  H    0.030389
   116  H    0.019984
   117  H    0.027019
   118  H    0.024741
   119  H    0.009434
   120  H    0.019977
   121  H    0.025491
   122  H    0.016369
   123  H    0.020192
   124  H    0.017620
   125  H    0.021198
   126  H    0.027817
   127  H    0.022712
   128  H    0.016485
   129  H    0.010454
   130  H    0.013839
   131  H    0.017589
   132  H    0.013201
   133  H    0.019248
   134  H    0.019620
   135  H    0.036455
   136  H    0.017150
   137  H    0.029507
   138  H    0.025606
   139  H    0.010559
   140  H    0.034510
 Sum of Mulliken charges =  -0.00000

 Dipole moment (field-independent basis, Debye):
    X=             -3.9195    Y=              1.2936    Z=              3.1192  Tot=              5.1735
 Quadrupole moment (field-independent basis, Debye-Ang):
   XX=           -373.7025   YY=           -430.6644   ZZ=           -402.6428
   XY=             15.9193   XZ=             17.0600   YZ=             -4.7741

 Normal termination of Gaussian 16 at Wed May  4 11:33:20 2022.
