 Gaussian 16, Revision A.03,
 Gaussian 16:  ES64L-G16RevA.03 25-Dec-2016

 --------------------
 #p ZINDO=(nstates=5)
 --------------------

 ------------------------------
 step_1651_chromophore_21 ZINDO
 ------------------------------
 Symbolic Z-matrix:
 Charge =  0 Multiplicity = 1

                         Standard orientation:
 ---------------------------------------------------------------------
 Center     Atomic      Atomic             Coordinates (Angstroms)
 Number     Number       Type             X           Y           Z
 ---------------------------------------------------------------------
      1         12           0        5.084703    1.180127    0.097478
      2          6           0        4.339682   -2.330302   -0.184693
      3          6           0        1.629803    1.702510   -0.018721
      4          6           0        5.773769    4.363012   -0.276787
      5          6           0        8.415954    0.347268   -0.330388
      6          7           0        3.089429   -0.171780    0.022048
      7          6           0        3.093486   -1.590625   -0.015731
      8          6           0        1.744027   -2.130372    0.358453
      9          6           0        0.851066   -0.792110    0.192979
     10          6           0        1.918746    0.338809    0.195734
     11          6           0        0.028871   -0.800976   -1.142670
     12          6           0        1.738575   -2.710312    1.765280
     13          6           0        1.050913   -4.080311    1.855089
     14          6           0        0.046607   -4.481455    0.692498
     15          8           0        0.299131   -5.172527   -0.279634
     16          8           0       -1.151412   -3.801732    0.871876
     17          7           0        3.857017    2.858112    0.048134
     18          6           0        2.428917    2.899874    0.015347
     19          6           0        2.047091    4.268115    0.188243
     20          6           0        3.226720    5.068279    0.017480
     21          6           0        4.358685    4.135012   -0.078264
     22          6           0        0.557712    4.716476    0.461655
     23          6           0        3.360799    6.609751    0.001989
     24          8           0        4.408362    7.238685   -0.029534
     25          6           0        2.099771    7.513698    0.157435
     26          7           0        6.865302    2.235835   -0.253329
     27          6           0        6.895753    3.594870   -0.350568
     28          6           0        8.340483    4.138562   -0.310350
     29          6           0        9.175546    2.809902   -0.163600
     30          6           0        8.083652    1.666248   -0.215023
     31          6           0        8.569580    4.977808   -1.580464
     32          6           0       10.035322    2.774958    1.160807
     33          6           0       11.492800    2.802885    0.848088
     34          7           0        6.188283   -0.561317   -0.160341
     35          6           0        7.554229   -0.757556   -0.311986
     36          6           0        7.888752   -2.171150   -0.412718
     37          6           0        6.640347   -2.839720   -0.295224
     38          6           0        5.621265   -1.801491   -0.274295
     39          6           0        9.259204   -2.829836   -0.442329
     40          6           0        6.017086   -4.121431   -0.319594
     41          8           0        6.498624   -5.231302   -0.491661
     42          6           0        4.444558   -3.869402   -0.124250
     43          6           0        3.668589   -4.585119   -1.228711
     44          8           0        2.978111   -4.107041   -2.129602
     45          8           0        3.702418   -5.933973   -0.818369
     46          6           0        2.866175   -6.884629   -1.603532
     47          6           0       -2.210228   -3.923082   -0.143947
     48          6           0       -3.525973   -3.630727    0.595411
     49          6           0       -4.822012   -3.894213    0.196557
     50          6           0       -5.284417   -4.668466   -1.089139
     51          6           0       -5.956650   -3.176263    0.910309
     52          6           0       -5.947020   -1.653329    0.832034
     53          6           0       -6.043902   -0.910829    2.186340
     54          6           0       -6.971143    0.401223    2.032780
     55          6           0       -6.777705    1.437750    3.103091
     56          6           0       -8.465420    0.027031    1.961004
     57          6           0       -9.277169    1.026268    1.029407
     58          6           0      -10.353233    0.245940    0.254579
     59          6           0      -11.824083    0.619701    0.531512
     60          6           0      -12.164354    0.397399    1.951426
     61          6           0      -12.904355   -0.065975   -0.424228
     62          6           0      -13.328624    0.835950   -1.620361
     63          6           0      -14.770391    1.429167   -1.695717
     64          6           0      -14.814280    2.871097   -2.217133
     65          6           0      -14.347786    3.891605   -1.145605
     66          6           0      -16.159858    3.160381   -2.758873
     67          1           0        0.584534    2.015060   -0.049439
     68          1           0        5.960885    5.436443   -0.220686
     69          1           0        9.464502    0.055178   -0.415947
     70          1           0        1.493869   -2.865857   -0.405683
     71          1           0        0.122354   -0.591918    0.979498
     72          1           0       -0.996548   -0.474701   -0.970592
     73          1           0        0.084142   -1.732575   -1.706204
     74          1           0        0.523292    0.006668   -1.680796
     75          1           0        1.267303   -1.996581    2.441058
     76          1           0        2.797611   -2.778505    2.011910
     77          1           0        0.591491   -4.320644    2.813949
     78          1           0        1.847889   -4.808438    1.998152
     79          1           0       -0.049436    3.831607    0.651766
     80          1           0        0.112995    5.279690   -0.359327
     81          1           0        0.540537    5.382602    1.324163
     82          1           0        1.481597    7.286173   -0.711136
     83          1           0        2.541591    8.498941    0.011749
     84          1           0        1.657700    7.469632    1.152119
     85          1           0        8.435606    4.846286    0.513366
     86          1           0        9.810461    2.698605   -1.042232
     87          1           0        7.673157    4.982351   -2.199581
     88          1           0        9.400580    4.532029   -2.126787
     89          1           0        8.856532    6.017056   -1.420415
     90          1           0        9.836943    1.802548    1.611130
     91          1           0        9.878488    3.624255    1.826347
     92          1           0       11.876431    1.807169    0.625802
     93          1           0       11.956224    3.205924    1.748159
     94          1           0       11.696948    3.509341    0.042663
     95          1           0       10.044769   -2.078944   -0.352889
     96          1           0        9.342692   -3.466946   -1.321650
     97          1           0        9.281361   -3.484592    0.428290
     98          1           0        4.224056   -4.192809    0.893267
     99          1           0        3.378215   -7.845740   -1.549103
    100          1           0        2.707043   -6.589619   -2.640362
    101          1           0        1.837938   -6.857922   -1.242782
    102          1           0       -2.406819   -4.983619   -0.296474
    103          1           0       -2.031747   -3.235446   -0.971622
    104          1           0       -3.432581   -3.082060    1.533094
    105          1           0       -5.709746   -3.954645   -1.793625
    106          1           0       -6.059057   -5.363380   -0.765990
    107          1           0       -4.453179   -5.221178   -1.528573
    108          1           0       -6.030633   -3.512178    1.944849
    109          1           0       -6.866730   -3.456395    0.379545
    110          1           0       -6.737847   -1.403851    0.125916
    111          1           0       -5.007970   -1.236886    0.465863
    112          1           0       -5.079885   -0.634994    2.614564
    113          1           0       -6.515427   -1.448149    3.008828
    114          1           0       -6.538787    0.783459    1.108446
    115          1           0       -7.722925    1.799941    3.504188
    116          1           0       -6.308519    2.278669    2.591910
    117          1           0       -6.106306    1.121969    3.902563
    118          1           0       -8.933039   -0.013684    2.945289
    119          1           0       -8.579814   -1.006317    1.633584
    120          1           0       -8.508023    1.458616    0.390496
    121          1           0       -9.688622    1.841306    1.626269
    122          1           0      -10.318149   -0.786902    0.600591
    123          1           0      -10.096781    0.290860   -0.803110
    124          1           0      -11.940403    1.694366    0.390082
    125          1           0      -13.076577   -0.187188    2.065183
    126          1           0      -12.338180    1.407999    2.321619
    127          1           0      -11.433625   -0.124425    2.569898
    128          1           0      -13.794060   -0.411053    0.102592
    129          1           0      -12.392096   -0.962782   -0.773113
    130          1           0      -13.239414    0.213773   -2.510464
    131          1           0      -12.570410    1.602117   -1.782491
    132          1           0      -15.161672    1.345664   -0.681772
    133          1           0      -15.343618    0.780124   -2.357053
    134          1           0      -14.170791    2.968343   -3.091929
    135          1           0      -13.592699    3.514976   -0.455747
    136          1           0      -15.284488    4.166949   -0.659755
    137          1           0      -13.975724    4.841640   -1.528997
    138          1           0      -16.164366    4.089835   -3.327946
    139          1           0      -16.749398    3.332084   -1.858194
    140          1           0      -16.697777    2.435121   -3.369956
 ---------------------------------------------------------------------

 SCF Done:  E(RZINDO/S) =  -473.904783126     A.U. after   19 cycles

 Excitation energies and oscillator strengths:

 Excited State   1:      Singlet-A      1.2476 eV  993.75 nm  f=0.5859  <S**2>=0.000
     175 ->178         0.20282
     176 ->177         0.65703
 This state for optimization and/or second-order correction.
 Total Energy, E(CIS/TDA) =  -473.858933330
 Copying the excited state density for this state as the 1-particle RhoCI density.

 Excited State   2:      Singlet-A      1.8914 eV  655.52 nm  f=0.0341  <S**2>=0.000
     175 ->177         0.53649
     176 ->178        -0.43046

 Excited State   3:      Singlet-A      2.8612 eV  433.33 nm  f=0.7729  <S**2>=0.000
     175 ->177         0.33983
     176 ->178         0.49496
     176 ->179         0.30686

 Excited State   4:      Singlet-A      2.9398 eV  421.74 nm  f=0.0013  <S**2>=0.000
     168 ->177         0.35858
     168 ->178        -0.24190
     168 ->179        -0.35655
     168 ->180         0.15425
     168 ->182        -0.18995
     168 ->186        -0.19365
     168 ->198         0.10482
     171 ->177        -0.10898

 Excited State   5:      Singlet-A      2.9920 eV  414.38 nm  f=0.0114  <S**2>=0.000
     169 ->177         0.26390
     169 ->179         0.31037
     169 ->180         0.29122
     169 ->181        -0.12920
     169 ->182        -0.26387
     169 ->186         0.22029
     169 ->187         0.19082

 The electronic state is 1-A.
 Alpha  occ. eigenvalues --   -1.82299  -1.79840  -1.77889  -1.71185  -1.69259
 Alpha  occ. eigenvalues --   -1.68021  -1.65541  -1.61330  -1.57879  -1.57022
 Alpha  occ. eigenvalues --   -1.56650  -1.51667  -1.49223  -1.48402  -1.47256
 Alpha  occ. eigenvalues --   -1.44305  -1.43354  -1.39870  -1.38329  -1.36825
 Alpha  occ. eigenvalues --   -1.35311  -1.33264  -1.32505  -1.30483  -1.28723
 Alpha  occ. eigenvalues --   -1.27775  -1.24743  -1.21498  -1.19440  -1.17307
 Alpha  occ. eigenvalues --   -1.16057  -1.15278  -1.14891  -1.13891  -1.13622
 Alpha  occ. eigenvalues --   -1.11510  -1.10208  -1.09494  -1.04597  -1.02596
 Alpha  occ. eigenvalues --   -1.02155  -1.01136  -0.98197  -0.97302  -0.96470
 Alpha  occ. eigenvalues --   -0.94357  -0.93993  -0.93496  -0.92770  -0.92129
 Alpha  occ. eigenvalues --   -0.91429  -0.91035  -0.88880  -0.88517  -0.88181
 Alpha  occ. eigenvalues --   -0.86277  -0.84615  -0.83425  -0.82476  -0.80335
 Alpha  occ. eigenvalues --   -0.78732  -0.78175  -0.76868  -0.76441  -0.75831
 Alpha  occ. eigenvalues --   -0.75027  -0.74888  -0.74773  -0.73995  -0.73575
 Alpha  occ. eigenvalues --   -0.72708  -0.72015  -0.71812  -0.71606  -0.70886
 Alpha  occ. eigenvalues --   -0.70537  -0.70024  -0.69078  -0.68609  -0.68488
 Alpha  occ. eigenvalues --   -0.67913  -0.67252  -0.66886  -0.66035  -0.65888
 Alpha  occ. eigenvalues --   -0.65311  -0.64814  -0.64331  -0.63948  -0.63364
 Alpha  occ. eigenvalues --   -0.62828  -0.62719  -0.62390  -0.61888  -0.61290
 Alpha  occ. eigenvalues --   -0.61084  -0.60738  -0.60653  -0.60634  -0.60068
 Alpha  occ. eigenvalues --   -0.59888  -0.59281  -0.58961  -0.58299  -0.57764
 Alpha  occ. eigenvalues --   -0.57653  -0.57061  -0.56411  -0.56324  -0.55531
 Alpha  occ. eigenvalues --   -0.55387  -0.55018  -0.54816  -0.54605  -0.54340
 Alpha  occ. eigenvalues --   -0.53610  -0.53470  -0.53422  -0.52845  -0.52761
 Alpha  occ. eigenvalues --   -0.52327  -0.52123  -0.51892  -0.51739  -0.51589
 Alpha  occ. eigenvalues --   -0.51398  -0.51018  -0.50979  -0.50596  -0.50558
 Alpha  occ. eigenvalues --   -0.50340  -0.50039  -0.49722  -0.49623  -0.49241
 Alpha  occ. eigenvalues --   -0.49057  -0.48463  -0.48135  -0.47748  -0.47559
 Alpha  occ. eigenvalues --   -0.47338  -0.47196  -0.47001  -0.46843  -0.46396
 Alpha  occ. eigenvalues --   -0.46055  -0.45926  -0.45738  -0.45538  -0.45139
 Alpha  occ. eigenvalues --   -0.44964  -0.44818  -0.44579  -0.44531  -0.44427
 Alpha  occ. eigenvalues --   -0.43618  -0.42917  -0.42809  -0.42629  -0.42410
 Alpha  occ. eigenvalues --   -0.42169  -0.41711  -0.41420  -0.39339  -0.39053
 Alpha  occ. eigenvalues --   -0.38543  -0.37000  -0.35384  -0.34621  -0.34293
 Alpha  occ. eigenvalues --   -0.33123  -0.32338  -0.32230  -0.31493  -0.26307
 Alpha  occ. eigenvalues --   -0.21738
 Alpha virt. eigenvalues --   -0.08418  -0.02545  -0.00355   0.01397   0.01469
 Alpha virt. eigenvalues --    0.02103   0.02379   0.03075   0.03916   0.04909
 Alpha virt. eigenvalues --    0.06393   0.06718   0.07271   0.07587   0.07837

 Mulliken charges:
               1
     1  Mg   0.426936
     2  C   -0.034767
     3  C   -0.061258
     4  C   -0.069695
     5  C   -0.075274
     6  N   -0.267863
     7  C    0.107477
     8  C    0.009491
     9  C   -0.004723
    10  C    0.136003
    11  C   -0.059174
    12  C   -0.009330
    13  C   -0.002505
    14  C    0.469783
    15  O   -0.500722
    16  O   -0.284653
    17  N   -0.339462
    18  C    0.076453
    19  C    0.010139
    20  C   -0.053879
    21  C    0.144692
    22  C   -0.046770
    23  C    0.315327
    24  O   -0.518327
    25  C   -0.040608
    26  N   -0.279222
    27  C    0.140593
    28  C    0.002813
    29  C   -0.005122
    30  C    0.141843
    31  C   -0.052284
    32  C   -0.029859
    33  C   -0.055375
    34  N   -0.325683
    35  C    0.116299
    36  C    0.028207
    37  C   -0.053748
    38  C    0.106606
    39  C   -0.035641
    40  C    0.331408
    41  O   -0.513283
    42  C    0.048950
    43  C    0.485129
    44  O   -0.497452
    45  O   -0.270891
    46  C    0.067136
    47  C    0.101554
    48  C   -0.091996
    49  C   -0.028713
    50  C   -0.043613
    51  C   -0.018752
    52  C   -0.026323
    53  C   -0.044459
    54  C   -0.018743
    55  C   -0.054530
    56  C   -0.034723
    57  C   -0.039038
    58  C   -0.028767
    59  C   -0.008450
    60  C   -0.054401
    61  C   -0.038650
    62  C   -0.045152
    63  C   -0.027355
    64  C    0.004543
    65  C   -0.058987
    66  C   -0.053856
    67  H    0.017877
    68  H    0.030014
    69  H    0.022064
    70  H    0.057605
    71  H    0.025769
    72  H    0.018520
    73  H    0.037225
    74  H    0.024460
    75  H    0.027781
    76  H    0.028044
    77  H    0.033621
    78  H    0.030770
    79  H    0.025820
    80  H    0.030295
    81  H    0.027821
    82  H    0.036137
    83  H    0.034523
    84  H    0.046300
    85  H    0.038021
    86  H    0.033878
    87  H    0.028679
    88  H    0.013868
    89  H    0.022666
    90  H    0.023240
    91  H    0.031486
    92  H    0.022553
    93  H    0.011756
    94  H    0.019480
    95  H    0.025711
    96  H    0.043839
    97  H    0.034769
    98  H    0.067632
    99  H    0.039820
   100  H    0.044249
   101  H    0.049369
   102  H    0.064687
   103  H    0.068391
   104  H    0.031717
   105  H    0.033064
   106  H    0.028187
   107  H    0.023814
   108  H    0.029536
   109  H    0.012068
   110  H    0.023325
   111  H    0.019431
   112  H    0.018132
   113  H    0.013083
   114  H    0.020058
   115  H    0.020914
   116  H    0.009698
   117  H    0.020657
   118  H    0.018550
   119  H    0.014031
   120  H    0.019815
   121  H    0.023786
   122  H    0.018967
   123  H    0.015993
   124  H    0.013096
   125  H    0.013633
   126  H    0.014836
   127  H    0.019239
   128  H    0.024217
   129  H    0.014837
   130  H    0.006328
   131  H    0.019288
   132  H    0.020897
   133  H    0.018715
   134  H    0.013123
   135  H    0.024729
   136  H    0.018503
   137  H    0.015959
   138  H    0.008927
   139  H    0.010950
   140  H    0.021848
 Sum of Mulliken charges =  -0.00000

 Dipole moment (field-independent basis, Debye):
    X=             -4.6783    Y=              1.5516    Z=              5.1770  Tot=              7.1481
 N-N= 4.314162861686D+03 E-N= 0.000000000000D+00  KE=-9.302658324714D+03
 Leave Link  601 at Wed May  4 11:45:03 2022, MaxMem=  6710886400 cpu:               0.8 elap:               0.1
 (Enter /sw/apps/gaussian-16.0/g16/l9999.exe)
 1\1\GINC-BP1-COMPUTE050\SP\RZINDO CIS\STO-3G\C55H74Mg1N4O6\OF15641\04-
 May-2022\0\\#p ZINDO=(nstates=5)\\step_1651_chromophore_21 ZINDO\\0,1\
 Mg,0,16.273,52.357,24.977\C,0,17.567,50.745,27.924\C,0,13.654,53.479,2
 7.003\C,0,14.784,53.282,22.207\C,0,18.701,50.67,23.179\N,0,15.665,52.2
 51,27.308\C,0,16.428,51.577,28.297\C,0,16.03,52.034,29.67\C,0,14.622,5
 2.753,29.329\C,0,14.704,52.962,27.79\C,0,13.398,51.854,29.721\C,0,17.0
 7,52.963,30.279\C,0,17.417,52.616,31.734\C,0,16.378,51.738,32.553\O,0,

 Normal termination of Gaussian 16 at Wed May  4 11:45:03 2022.
