 Gaussian 16, Revision A.03,
 Gaussian 16:  ES64L-G16RevA.03 25-Dec-2016

 ------------------------------
 #p blyp/Def2SVP td=(nstates=5)
 ------------------------------

 ---------------------------------------------------
 step_1001_chromophore_10 TDDFT with blyp functional
 ---------------------------------------------------
 Symbolic Z-matrix:
 Charge =  0 Multiplicity = 1

                         Standard orientation:
 ---------------------------------------------------------------------
 Center     Atomic      Atomic             Coordinates (Angstroms)
 Number     Number       Type             X           Y           Z
 ---------------------------------------------------------------------
      1         12           0        5.614284    0.732130   -0.030975
      2          6           0        3.787763   -2.238213    0.477586
      3          6           0        3.087720    2.005031   -1.974302
      4          6           0        7.473798    3.454069   -0.520922
      5          6           0        8.238107   -0.806675    1.616088
      6          7           0        3.710093   -0.023835   -0.533292
      7          6           0        3.178601   -1.211412   -0.161249
      8          6           0        1.672741   -1.316156   -0.756046
      9          6           0        1.412879    0.081555   -1.403829
     10          6           0        2.787697    0.717677   -1.372210
     11          6           0        0.798563   -0.029698   -2.774982
     12          6           0        0.600451   -1.643301    0.381738
     13          6           0       -0.885546   -1.517620   -0.041621
     14          6           0       -1.719842   -2.834744   -0.256512
     15          8           0       -1.384801   -3.780880   -0.937084
     16          8           0       -2.743915   -2.875943    0.691408
     17          7           0        5.279733    2.492089   -1.052313
     18          6           0        4.223522    2.806909   -1.814489
     19          6           0        4.388464    4.129673   -2.404287
     20          6           0        5.620711    4.636835   -1.909196
     21          6           0        6.226858    3.516826   -1.102537
     22          6           0        3.499109    4.742526   -3.435403
     23          6           0        6.250234    5.989937   -1.932548
     24          8           0        7.348291    6.211516   -1.528722
     25          6           0        5.318998    7.144561   -2.312761
     26          7           0        7.656733    1.188337    0.397370
     27          6           0        8.064099    2.482433    0.257552
     28          6           0        9.506556    2.584281    0.826489
     29          6           0        9.634540    1.336179    1.736028
     30          6           0        8.409793    0.560888    1.301755
     31          6           0       10.624410    2.585473   -0.277541
     32          6           0        9.457922    1.578421    3.302489
     33          6           0        8.376409    2.518437    3.818472
     34          7           0        6.012245   -1.139961    0.691541
     35          6           0        7.110535   -1.635352    1.331715
     36          6           0        6.989222   -2.961775    1.755176
     37          6           0        5.667942   -3.232061    1.499177
     38          6           0        5.152464   -2.124765    0.822334
     39          6           0        7.896677   -3.771123    2.694777
     40          6           0        4.683488   -4.319886    1.552625
     41          8           0        4.795981   -5.431378    2.028632
     42          6           0        3.475222   -3.709057    0.816186
     43          6           0        3.070303   -4.576149   -0.319390
     44          8           0        3.574746   -4.709389   -1.441640
     45          8           0        1.979686   -5.254548    0.189832
     46          6           0        1.196290   -6.057523   -0.798971
     47          6           0       -3.476768   -4.180237    0.799174
     48          6           0       -4.927154   -3.836360    0.502048
     49          6           0       -5.537120   -3.358836   -0.659503
     50          6           0       -4.895247   -3.060732   -2.015359
     51          6           0       -7.003329   -3.140979   -0.619472
     52          6           0       -7.604633   -1.864713   -1.066029
     53          6           0       -8.348488   -1.779033   -2.445617
     54          6           0       -9.978265   -1.800362   -2.331028
     55          6           0      -10.546355   -2.735680   -3.432230
     56          6           0      -10.803895   -0.483898   -2.396565
     57          6           0      -11.297087   -0.016837   -0.987582
     58          6           0      -10.929681    1.468606   -0.663893
     59          6           0      -12.140765    2.307208   -0.260446
     60          6           0      -12.969914    2.784159   -1.472868
     61          6           0      -11.724348    3.462562    0.637912
     62          6           0      -12.815779    3.834110    1.691695
     63          6           0      -12.790790    2.930101    2.934320
     64          6           0      -12.149058    3.668034    4.164615
     65          6           0      -11.861817    2.624265    5.281346
     66          6           0      -12.914392    4.877668    4.778081
     67          1           0        2.331764    2.483937   -2.600595
     68          1           0        8.100040    4.347082   -0.568783
     69          1           0        8.984989   -1.270694    2.263618
     70          1           0        1.789072   -2.091635   -1.512810
     71          1           0        0.766599    0.639846   -0.726575
     72          1           0        0.047031   -0.818965   -2.774788
     73          1           0        1.570434   -0.338950   -3.478405
     74          1           0        0.305534    0.871895   -3.140258
     75          1           0        0.872165   -0.956398    1.184074
     76          1           0        0.750273   -2.673186    0.705699
     77          1           0       -0.897203   -0.937608   -0.964425
     78          1           0       -1.302664   -0.818024    0.682479
     79          1           0        3.166244    3.879729   -4.012403
     80          1           0        4.038128    5.303189   -4.199011
     81          1           0        2.597923    5.212126   -3.044325
     82          1           0        5.129773    7.132607   -3.386560
     83          1           0        5.862687    8.072790   -2.135992
     84          1           0        4.397400    7.104609   -1.732803
     85          1           0        9.654817    3.499256    1.400056
     86          1           0       10.577058    0.790987    1.697311
     87          1           0       10.141509    2.701905   -1.248559
     88          1           0       11.201637    1.671225   -0.147204
     89          1           0       11.274499    3.459047   -0.226203
     90          1           0       10.430005    1.930706    3.646051
     91          1           0        9.419516    0.539837    3.629863
     92          1           0        8.846812    3.158631    4.564930
     93          1           0        7.519758    1.914611    4.116839
     94          1           0        8.007922    3.223466    3.074122
     95          1           0        7.856673   -3.397304    3.717956
     96          1           0        8.941673   -3.788300    2.384678
     97          1           0        7.595518   -4.810215    2.562982
     98          1           0        2.653150   -3.624728    1.526382
     99          1           0        1.523700   -7.082616   -0.627186
    100          1           0        1.460805   -5.753202   -1.811088
    101          1           0        0.131958   -5.921320   -0.604439
    102          1           0       -3.399778   -4.507847    1.835662
    103          1           0       -3.054396   -4.957377    0.161904
    104          1           0       -5.536788   -4.046035    1.381541
    105          1           0       -5.052752   -2.049460   -2.391756
    106          1           0       -5.316006   -3.687749   -2.801400
    107          1           0       -3.834291   -3.307155   -1.995735
    108          1           0       -7.457807   -3.388658    0.339439
    109          1           0       -7.343781   -3.905858   -1.317367
    110          1           0       -6.777328   -1.155403   -1.076728
    111          1           0       -8.379306   -1.554585   -0.365500
    112          1           0       -8.029857   -2.494333   -3.204180
    113          1           0       -8.042393   -0.810932   -2.843793
    114          1           0      -10.199425   -2.284808   -1.380174
    115          1           0       -9.914323   -3.604692   -3.615914
    116          1           0      -10.650772   -2.261373   -4.408812
    117          1           0      -11.551767   -2.980166   -3.089382
    118          1           0      -11.715937   -0.666271   -2.964473
    119          1           0      -10.160823    0.243773   -2.890795
    120          1           0      -11.001829   -0.686057   -0.179456
    121          1           0      -12.381957   -0.111260   -1.027118
    122          1           0      -10.439535    2.052960   -1.441069
    123          1           0      -10.289350    1.288069    0.199903
    124          1           0      -12.791906    1.678745    0.346596
    125          1           0      -13.250928    3.832563   -1.367789
    126          1           0      -13.830984    2.123780   -1.564948
    127          1           0      -12.341635    2.734055   -2.361992
    128          1           0      -11.442990    4.293507   -0.007919
    129          1           0      -10.901233    3.187259    1.297091
    130          1           0      -13.741943    3.793551    1.117511
    131          1           0      -12.761082    4.869741    2.026858
    132          1           0      -12.270083    2.019604    2.636848
    133          1           0      -13.798839    2.610669    3.200030
    134          1           0      -11.246450    4.089388    3.720916
    135          1           0      -12.068746    1.624088    4.899089
    136          1           0      -12.513780    2.874829    6.117963
    137          1           0      -10.818200    2.699714    5.585511
    138          1           0      -12.530986    5.822946    4.394187
    139          1           0      -12.876008    4.924490    5.866486
    140          1           0      -13.945048    4.853466    4.423333
 ---------------------------------------------------------------------

 SCF Done:  E(RB-LYP) =  -3007.39528110     A.U. after   21 cycles

 Excitation energies and oscillator strengths:

 Excited State   1:      Singlet-A      1.7805 eV  696.33 nm  f=0.2935  <S**2>=0.000
     245 -> 248       -0.18541
     246 -> 247        0.69263
     246 <- 247       -0.15498
 This state for optimization and/or second-order correction.
 Total Energy, E(TD-HF/TD-DFT) =  -3007.32984769
 Copying the excited state density for this state as the 1-particle RhoCI density.

 Excited State   2:      Singlet-A      2.0420 eV  607.17 nm  f=0.0796  <S**2>=0.000
     245 -> 247        0.64332
     246 -> 248        0.26138

 Excited State   3:      Singlet-A      2.0816 eV  595.63 nm  f=0.0010  <S**2>=0.000
     243 -> 247        0.68850
     244 -> 247        0.15687

 Excited State   4:      Singlet-A      2.0940 eV  592.09 nm  f=0.0004  <S**2>=0.000
     243 -> 247       -0.15692
     244 -> 247        0.68667

 Excited State   5:      Singlet-A      2.3293 eV  532.28 nm  f=0.0002  <S**2>=0.000
     242 -> 247        0.70704

 The electronic state is 1-A.
 Alpha  occ. eigenvalues --  -46.25926 -18.82165 -18.81250 -18.78374 -18.76698
 Alpha  occ. eigenvalues --  -18.76123 -18.75967 -14.03352 -14.02908 -14.01085
 Alpha  occ. eigenvalues --  -14.00235 -10.05235 -10.03630  -9.99704  -9.99591
 Alpha  occ. eigenvalues --   -9.98097  -9.97394  -9.96376  -9.96341  -9.95927
 Alpha  occ. eigenvalues --   -9.95888  -9.95749  -9.95447  -9.94606  -9.94175
 Alpha  occ. eigenvalues --   -9.94045  -9.94044  -9.93923  -9.93858  -9.93837
 Alpha  occ. eigenvalues --   -9.93595  -9.93515  -9.93449  -9.93446  -9.93256
 Alpha  occ. eigenvalues --   -9.93220  -9.92653  -9.92646  -9.92587  -9.92505
 Alpha  occ. eigenvalues --   -9.92442  -9.92421  -9.92389  -9.92379  -9.92378
 Alpha  occ. eigenvalues --   -9.92193  -9.92128  -9.92014  -9.91919  -9.91881
 Alpha  occ. eigenvalues --   -9.91706  -9.91675  -9.91613  -9.91467  -9.91465
 Alpha  occ. eigenvalues --   -9.91434  -9.91350  -9.91272  -9.91121  -9.91120
 Alpha  occ. eigenvalues --   -9.91024  -9.90896  -9.90844  -9.90774  -9.90742
 Alpha  occ. eigenvalues --   -9.90019  -2.90779  -1.71212  -1.70627  -1.70516
 Alpha  occ. eigenvalues --   -0.97657  -0.96094  -0.93600  -0.91860  -0.90484
 Alpha  occ. eigenvalues --   -0.88704  -0.87783  -0.86520  -0.85262  -0.83892
 Alpha  occ. eigenvalues --   -0.75403  -0.73820  -0.73333  -0.72845  -0.72273
 Alpha  occ. eigenvalues --   -0.71636  -0.71587  -0.70859  -0.70676  -0.70520
 Alpha  occ. eigenvalues --   -0.70097  -0.69050  -0.68090  -0.67116  -0.66908
 Alpha  occ. eigenvalues --   -0.66512  -0.65674  -0.65210  -0.64724  -0.64320
 Alpha  occ. eigenvalues --   -0.64125  -0.62367  -0.62184  -0.61690  -0.61022
 Alpha  occ. eigenvalues --   -0.60419  -0.60052  -0.59722  -0.59601  -0.58792
 Alpha  occ. eigenvalues --   -0.58111  -0.57566  -0.56969  -0.55535  -0.55062
 Alpha  occ. eigenvalues --   -0.53933  -0.53693  -0.52849  -0.52197  -0.51092
 Alpha  occ. eigenvalues --   -0.50878  -0.50782  -0.50476  -0.49820  -0.49744
 Alpha  occ. eigenvalues --   -0.49597  -0.49305  -0.48067  -0.47476  -0.46488
 Alpha  occ. eigenvalues --   -0.46410  -0.45898  -0.45579  -0.45243  -0.44538
 Alpha  occ. eigenvalues --   -0.44246  -0.44029  -0.43297  -0.42908  -0.42372
 Alpha  occ. eigenvalues --   -0.42307  -0.41957  -0.41645  -0.41387  -0.41205
 Alpha  occ. eigenvalues --   -0.40986  -0.40596  -0.40345  -0.40198  -0.39703
 Alpha  occ. eigenvalues --   -0.39688  -0.39546  -0.39323  -0.39163  -0.39125
 Alpha  occ. eigenvalues --   -0.39003  -0.38803  -0.38680  -0.38415  -0.38249
 Alpha  occ. eigenvalues --   -0.38018  -0.37856  -0.37562  -0.37314  -0.37187
 Alpha  occ. eigenvalues --   -0.36895  -0.36774  -0.36684  -0.36421  -0.36130
 Alpha  occ. eigenvalues --   -0.36107  -0.36043  -0.35727  -0.35677  -0.35576
 Alpha  occ. eigenvalues --   -0.35477  -0.35255  -0.35155  -0.34980  -0.34846
 Alpha  occ. eigenvalues --   -0.34748  -0.34541  -0.34337  -0.34177  -0.34085
 Alpha  occ. eigenvalues --   -0.33800  -0.33658  -0.33532  -0.33475  -0.33317
 Alpha  occ. eigenvalues --   -0.33121  -0.32792  -0.32634  -0.32555  -0.32128
 Alpha  occ. eigenvalues --   -0.32054  -0.31918  -0.31866  -0.31605  -0.31518
 Alpha  occ. eigenvalues --   -0.31393  -0.31348  -0.31117  -0.30867  -0.30835
 Alpha  occ. eigenvalues --   -0.30456  -0.30285  -0.30181  -0.30115  -0.29992
 Alpha  occ. eigenvalues --   -0.29604  -0.29467  -0.29335  -0.29240  -0.28902
 Alpha  occ. eigenvalues --   -0.28553  -0.28314  -0.28146  -0.28135  -0.27919
 Alpha  occ. eigenvalues --   -0.27768  -0.27498  -0.27311  -0.27033  -0.26398
 Alpha  occ. eigenvalues --   -0.26391  -0.26089  -0.26021  -0.25594  -0.25177
 Alpha  occ. eigenvalues --   -0.25112  -0.24617  -0.24213  -0.23741  -0.23696
 Alpha  occ. eigenvalues --   -0.23527  -0.23066  -0.22277  -0.21749  -0.21246
 Alpha  occ. eigenvalues --   -0.20648  -0.20003  -0.19011  -0.18997  -0.17321
 Alpha  occ. eigenvalues --   -0.15594
 Alpha virt. eigenvalues --   -0.11443  -0.06812  -0.06036  -0.04506  -0.04073
 Alpha virt. eigenvalues --   -0.03458  -0.02400  -0.01719  -0.01509   0.00659
 Alpha virt. eigenvalues --    0.01809   0.01944   0.02008   0.02590   0.02964

 Mulliken charges:
               1
     1  Mg   0.697666
     2  C    0.027361
     3  C   -0.073419
     4  C   -0.037015
     5  C   -0.108365
     6  N   -0.256089
     7  C   -0.106162
     8  C   -0.033845
     9  C    0.037604
    10  C    0.042875
    11  C    0.126227
    12  C    0.078369
    13  C    0.141966
    14  C    0.119591
    15  O   -0.185869
    16  O   -0.286479
    17  N   -0.287718
    18  C    0.130537
    19  C   -0.151070
    20  C    0.033658
    21  C    0.107674
    22  C    0.173974
    23  C   -0.091709
    24  O   -0.124993
    25  C    0.114594
    26  N   -0.210274
    27  C    0.027965
    28  C    0.029208
    29  C    0.006898
    30  C    0.054549
    31  C    0.132334
    32  C    0.047956
    33  C    0.091566
    34  N   -0.205383
    35  C    0.122700
    36  C   -0.200774
    37  C    0.046364
    38  C    0.036406
    39  C    0.166830
    40  C   -0.022146
    41  O   -0.105857
    42  C    0.101177
    43  C    0.145024
    44  O   -0.187276
    45  O   -0.297173
    46  C    0.200836
    47  C    0.312619
    48  C   -0.127520
    49  C   -0.098848
    50  C    0.131071
    51  C    0.159226
    52  C    0.054701
    53  C    0.101346
    54  C   -0.083551
    55  C    0.071363
    56  C    0.124905
    57  C    0.057130
    58  C    0.117043
    59  C   -0.112337
    60  C    0.132515
    61  C    0.103133
    62  C    0.078802
    63  C    0.089197
    64  C   -0.122715
    65  C    0.126633
    66  C    0.109459
    67  H   -0.073780
    68  H   -0.039558
    69  H   -0.061592
    70  H   -0.003016
    71  H   -0.018568
    72  H   -0.000593
    73  H   -0.006137
    74  H   -0.007520
    75  H   -0.016367
    76  H    0.006444
    77  H   -0.018227
    78  H   -0.015483
    79  H   -0.009372
    80  H   -0.000764
    81  H    0.006917
    82  H   -0.000540
    83  H   -0.014651
    84  H    0.014844
    85  H   -0.032951
    86  H   -0.029311
    87  H   -0.003521
    88  H   -0.004765
    89  H   -0.009652
    90  H   -0.031085
    91  H   -0.033602
    92  H   -0.002032
    93  H    0.003506
    94  H   -0.001785
    95  H    0.014180
    96  H   -0.017651
    97  H    0.009988
    98  H    0.001034
    99  H    0.013817
   100  H    0.023116
   101  H    0.031349
   102  H   -0.013668
   103  H    0.016102
   104  H   -0.038748
   105  H    0.000758
   106  H   -0.007401
   107  H   -0.007495
   108  H   -0.040315
   109  H   -0.027950
   110  H   -0.027222
   111  H   -0.022849
   112  H   -0.034619
   113  H   -0.043786
   114  H   -0.035221
   115  H   -0.019269
   116  H   -0.014738
   117  H   -0.014893
   118  H   -0.029622
   119  H   -0.024669
   120  H   -0.024439
   121  H   -0.038119
   122  H   -0.025918
   123  H   -0.038594
   124  H   -0.045375
   125  H   -0.012889
   126  H   -0.007620
   127  H   -0.022896
   128  H   -0.040154
   129  H   -0.044578
   130  H   -0.050207
   131  H   -0.044451
   132  H   -0.027688
   133  H   -0.037666
   134  H   -0.031094
   135  H   -0.018807
   136  H   -0.017047
   137  H   -0.011262
   138  H   -0.016285
   139  H   -0.007649
   140  H   -0.018791
 Sum of Mulliken charges =  -0.00000

 Dipole moment (field-independent basis, Debye):
    X=             -4.4525    Y=              3.8602    Z=              0.5805  Tot=              5.9214
 Quadrupole moment (field-independent basis, Debye-Ang):
   XX=           -389.9652   YY=           -434.2828   ZZ=           -400.0243
   XY=             17.0734   XZ=             17.9866   YZ=             -0.9551

 Normal termination of Gaussian 16 at Tue May  3 13:33:41 2022.
