 Gaussian 16, Revision A.03,
 Gaussian 16:  ES64L-G16RevA.03 25-Dec-2016

 -----------------------------------
 #p cam-b3lyp/Def2SVP td=(nstates=5)
 -----------------------------------

 --------------------------------------------------------
 step_1001_chromophore_10 TDDFT with cam-b3lyp functional
 --------------------------------------------------------
 Symbolic Z-matrix:
 Charge =  0 Multiplicity = 1

                         Standard orientation:
 ---------------------------------------------------------------------
 Center     Atomic      Atomic             Coordinates (Angstroms)
 Number     Number       Type             X           Y           Z
 ---------------------------------------------------------------------
      1         12           0        5.614284    0.732130   -0.030975
      2          6           0        3.787763   -2.238213    0.477586
      3          6           0        3.087720    2.005031   -1.974302
      4          6           0        7.473798    3.454069   -0.520922
      5          6           0        8.238107   -0.806675    1.616088
      6          7           0        3.710093   -0.023835   -0.533292
      7          6           0        3.178601   -1.211412   -0.161249
      8          6           0        1.672741   -1.316156   -0.756046
      9          6           0        1.412879    0.081555   -1.403829
     10          6           0        2.787697    0.717677   -1.372210
     11          6           0        0.798563   -0.029698   -2.774982
     12          6           0        0.600451   -1.643301    0.381738
     13          6           0       -0.885546   -1.517620   -0.041621
     14          6           0       -1.719842   -2.834744   -0.256512
     15          8           0       -1.384801   -3.780880   -0.937084
     16          8           0       -2.743915   -2.875943    0.691408
     17          7           0        5.279733    2.492089   -1.052313
     18          6           0        4.223522    2.806909   -1.814489
     19          6           0        4.388464    4.129673   -2.404287
     20          6           0        5.620711    4.636835   -1.909196
     21          6           0        6.226858    3.516826   -1.102537
     22          6           0        3.499109    4.742526   -3.435403
     23          6           0        6.250234    5.989937   -1.932548
     24          8           0        7.348291    6.211516   -1.528722
     25          6           0        5.318998    7.144561   -2.312761
     26          7           0        7.656733    1.188337    0.397370
     27          6           0        8.064099    2.482433    0.257552
     28          6           0        9.506556    2.584281    0.826489
     29          6           0        9.634540    1.336179    1.736028
     30          6           0        8.409793    0.560888    1.301755
     31          6           0       10.624410    2.585473   -0.277541
     32          6           0        9.457922    1.578421    3.302489
     33          6           0        8.376409    2.518437    3.818472
     34          7           0        6.012245   -1.139961    0.691541
     35          6           0        7.110535   -1.635352    1.331715
     36          6           0        6.989222   -2.961775    1.755176
     37          6           0        5.667942   -3.232061    1.499177
     38          6           0        5.152464   -2.124765    0.822334
     39          6           0        7.896677   -3.771123    2.694777
     40          6           0        4.683488   -4.319886    1.552625
     41          8           0        4.795981   -5.431378    2.028632
     42          6           0        3.475222   -3.709057    0.816186
     43          6           0        3.070303   -4.576149   -0.319390
     44          8           0        3.574746   -4.709389   -1.441640
     45          8           0        1.979686   -5.254548    0.189832
     46          6           0        1.196290   -6.057523   -0.798971
     47          6           0       -3.476768   -4.180237    0.799174
     48          6           0       -4.927154   -3.836360    0.502048
     49          6           0       -5.537120   -3.358836   -0.659503
     50          6           0       -4.895247   -3.060732   -2.015359
     51          6           0       -7.003329   -3.140979   -0.619472
     52          6           0       -7.604633   -1.864713   -1.066029
     53          6           0       -8.348488   -1.779033   -2.445617
     54          6           0       -9.978265   -1.800362   -2.331028
     55          6           0      -10.546355   -2.735680   -3.432230
     56          6           0      -10.803895   -0.483898   -2.396565
     57          6           0      -11.297087   -0.016837   -0.987582
     58          6           0      -10.929681    1.468606   -0.663893
     59          6           0      -12.140765    2.307208   -0.260446
     60          6           0      -12.969914    2.784159   -1.472868
     61          6           0      -11.724348    3.462562    0.637912
     62          6           0      -12.815779    3.834110    1.691695
     63          6           0      -12.790790    2.930101    2.934320
     64          6           0      -12.149058    3.668034    4.164615
     65          6           0      -11.861817    2.624265    5.281346
     66          6           0      -12.914392    4.877668    4.778081
     67          1           0        2.331764    2.483937   -2.600595
     68          1           0        8.100040    4.347082   -0.568783
     69          1           0        8.984989   -1.270694    2.263618
     70          1           0        1.789072   -2.091635   -1.512810
     71          1           0        0.766599    0.639846   -0.726575
     72          1           0        0.047031   -0.818965   -2.774788
     73          1           0        1.570434   -0.338950   -3.478405
     74          1           0        0.305534    0.871895   -3.140258
     75          1           0        0.872165   -0.956398    1.184074
     76          1           0        0.750273   -2.673186    0.705699
     77          1           0       -0.897203   -0.937608   -0.964425
     78          1           0       -1.302664   -0.818024    0.682479
     79          1           0        3.166244    3.879729   -4.012403
     80          1           0        4.038128    5.303189   -4.199011
     81          1           0        2.597923    5.212126   -3.044325
     82          1           0        5.129773    7.132607   -3.386560
     83          1           0        5.862687    8.072790   -2.135992
     84          1           0        4.397400    7.104609   -1.732803
     85          1           0        9.654817    3.499256    1.400056
     86          1           0       10.577058    0.790987    1.697311
     87          1           0       10.141509    2.701905   -1.248559
     88          1           0       11.201637    1.671225   -0.147204
     89          1           0       11.274499    3.459047   -0.226203
     90          1           0       10.430005    1.930706    3.646051
     91          1           0        9.419516    0.539837    3.629863
     92          1           0        8.846812    3.158631    4.564930
     93          1           0        7.519758    1.914611    4.116839
     94          1           0        8.007922    3.223466    3.074122
     95          1           0        7.856673   -3.397304    3.717956
     96          1           0        8.941673   -3.788300    2.384678
     97          1           0        7.595518   -4.810215    2.562982
     98          1           0        2.653150   -3.624728    1.526382
     99          1           0        1.523700   -7.082616   -0.627186
    100          1           0        1.460805   -5.753202   -1.811088
    101          1           0        0.131958   -5.921320   -0.604439
    102          1           0       -3.399778   -4.507847    1.835662
    103          1           0       -3.054396   -4.957377    0.161904
    104          1           0       -5.536788   -4.046035    1.381541
    105          1           0       -5.052752   -2.049460   -2.391756
    106          1           0       -5.316006   -3.687749   -2.801400
    107          1           0       -3.834291   -3.307155   -1.995735
    108          1           0       -7.457807   -3.388658    0.339439
    109          1           0       -7.343781   -3.905858   -1.317367
    110          1           0       -6.777328   -1.155403   -1.076728
    111          1           0       -8.379306   -1.554585   -0.365500
    112          1           0       -8.029857   -2.494333   -3.204180
    113          1           0       -8.042393   -0.810932   -2.843793
    114          1           0      -10.199425   -2.284808   -1.380174
    115          1           0       -9.914323   -3.604692   -3.615914
    116          1           0      -10.650772   -2.261373   -4.408812
    117          1           0      -11.551767   -2.980166   -3.089382
    118          1           0      -11.715937   -0.666271   -2.964473
    119          1           0      -10.160823    0.243773   -2.890795
    120          1           0      -11.001829   -0.686057   -0.179456
    121          1           0      -12.381957   -0.111260   -1.027118
    122          1           0      -10.439535    2.052960   -1.441069
    123          1           0      -10.289350    1.288069    0.199903
    124          1           0      -12.791906    1.678745    0.346596
    125          1           0      -13.250928    3.832563   -1.367789
    126          1           0      -13.830984    2.123780   -1.564948
    127          1           0      -12.341635    2.734055   -2.361992
    128          1           0      -11.442990    4.293507   -0.007919
    129          1           0      -10.901233    3.187259    1.297091
    130          1           0      -13.741943    3.793551    1.117511
    131          1           0      -12.761082    4.869741    2.026858
    132          1           0      -12.270083    2.019604    2.636848
    133          1           0      -13.798839    2.610669    3.200030
    134          1           0      -11.246450    4.089388    3.720916
    135          1           0      -12.068746    1.624088    4.899089
    136          1           0      -12.513780    2.874829    6.117963
    137          1           0      -10.818200    2.699714    5.585511
    138          1           0      -12.530986    5.822946    4.394187
    139          1           0      -12.876008    4.924490    5.866486
    140          1           0      -13.945048    4.853466    4.423333
 ---------------------------------------------------------------------

 SCF Done:  E(RCAM-B3LYP) =  -3007.19046242     A.U. after   19 cycles

 Excitation energies and oscillator strengths:

 Excited State   1:      Singlet-A      1.6748 eV  740.31 nm  f=0.3699  <S**2>=0.000
     245 -> 248       -0.17550
     246 -> 247        0.68719
     245 <- 248       -0.10767
 This state for optimization and/or second-order correction.
 Total Energy, E(TD-HF/TD-DFT) =  -3007.12891630
 Copying the excited state density for this state as the 1-particle RhoCI density.

 Excited State   2:      Singlet-A      2.2639 eV  547.67 nm  f=0.0957  <S**2>=0.000
     245 -> 247        0.62916
     246 -> 248        0.31369

 Excited State   3:      Singlet-A      3.4925 eV  355.00 nm  f=0.6640  <S**2>=0.000
     242 -> 247       -0.17476
     245 -> 247       -0.29145
     246 -> 248        0.61130
     245 <- 247        0.10908

 Excited State   4:      Singlet-A      3.5516 eV  349.09 nm  f=0.0036  <S**2>=0.000
     242 -> 247       -0.15779
     243 -> 247        0.67395

 Excited State   5:      Singlet-A      3.6044 eV  343.98 nm  f=0.0076  <S**2>=0.000
     241 -> 247        0.51382
     241 -> 249       -0.22490
     241 -> 250        0.23301
     242 -> 247        0.25981

 The electronic state is 1-A.
 Alpha  occ. eigenvalues --  -46.87372 -19.24970 -19.24130 -19.21387 -19.19755
 Alpha  occ. eigenvalues --  -19.19348 -19.19228 -14.42070 -14.41902 -14.39639
 Alpha  occ. eigenvalues --  -14.38558 -10.40670 -10.39117 -10.34970 -10.34837
 Alpha  occ. eigenvalues --  -10.32220 -10.32130 -10.30773 -10.30373 -10.30316
 Alpha  occ. eigenvalues --  -10.30167 -10.30125 -10.29863 -10.28635 -10.28602
 Alpha  occ. eigenvalues --  -10.28263 -10.28214 -10.28015 -10.27978 -10.27837
 Alpha  occ. eigenvalues --  -10.27810 -10.27703 -10.27348 -10.27315 -10.27263
 Alpha  occ. eigenvalues --  -10.27216 -10.27037 -10.26720 -10.26642 -10.26635
 Alpha  occ. eigenvalues --  -10.26367 -10.26355 -10.26259 -10.26191 -10.26181
 Alpha  occ. eigenvalues --  -10.25933 -10.25880 -10.25851 -10.25782 -10.25695
 Alpha  occ. eigenvalues --  -10.25526 -10.25494 -10.25354 -10.25165 -10.25150
 Alpha  occ. eigenvalues --  -10.25057 -10.25044 -10.24969 -10.24724 -10.24717
 Alpha  occ. eigenvalues --  -10.24695 -10.24539 -10.24511 -10.24420 -10.24360
 Alpha  occ. eigenvalues --  -10.23954  -3.16139  -1.91045  -1.90571  -1.90476
 Alpha  occ. eigenvalues --   -1.16121  -1.14570  -1.12243  -1.10192  -1.08282
 Alpha  occ. eigenvalues --   -1.06572  -1.05441  -1.04209  -1.02904  -1.01368
 Alpha  occ. eigenvalues --   -0.92468  -0.90676  -0.90182  -0.89616  -0.89018
 Alpha  occ. eigenvalues --   -0.88312  -0.88197  -0.87530  -0.87273  -0.87151
 Alpha  occ. eigenvalues --   -0.86627  -0.85411  -0.84338  -0.83249  -0.82996
 Alpha  occ. eigenvalues --   -0.82572  -0.81877  -0.81106  -0.80516  -0.80246
 Alpha  occ. eigenvalues --   -0.79918  -0.78144  -0.77821  -0.77155  -0.76435
 Alpha  occ. eigenvalues --   -0.75774  -0.75391  -0.75030  -0.74850  -0.74027
 Alpha  occ. eigenvalues --   -0.73153  -0.72594  -0.71888  -0.70335  -0.69677
 Alpha  occ. eigenvalues --   -0.68579  -0.68353  -0.67366  -0.66502  -0.65295
 Alpha  occ. eigenvalues --   -0.64989  -0.64883  -0.64400  -0.63856  -0.63694
 Alpha  occ. eigenvalues --   -0.63582  -0.63048  -0.61869  -0.61203  -0.60161
 Alpha  occ. eigenvalues --   -0.59907  -0.59476  -0.59095  -0.58704  -0.57969
 Alpha  occ. eigenvalues --   -0.57679  -0.57519  -0.56444  -0.56142  -0.55607
 Alpha  occ. eigenvalues --   -0.55151  -0.54871  -0.54663  -0.54369  -0.54142
 Alpha  occ. eigenvalues --   -0.53833  -0.53724  -0.53356  -0.53292  -0.52642
 Alpha  occ. eigenvalues --   -0.52271  -0.52046  -0.52007  -0.51812  -0.51593
 Alpha  occ. eigenvalues --   -0.51533  -0.51423  -0.51290  -0.50852  -0.50670
 Alpha  occ. eigenvalues --   -0.50428  -0.50081  -0.49942  -0.49769  -0.49672
 Alpha  occ. eigenvalues --   -0.49452  -0.49291  -0.49041  -0.48937  -0.48777
 Alpha  occ. eigenvalues --   -0.48327  -0.48298  -0.47777  -0.47718  -0.47587
 Alpha  occ. eigenvalues --   -0.47503  -0.47335  -0.47257  -0.46908  -0.46725
 Alpha  occ. eigenvalues --   -0.46614  -0.46295  -0.46032  -0.45997  -0.45920
 Alpha  occ. eigenvalues --   -0.45567  -0.45481  -0.45363  -0.45197  -0.44962
 Alpha  occ. eigenvalues --   -0.44923  -0.44704  -0.44300  -0.44207  -0.43949
 Alpha  occ. eigenvalues --   -0.43650  -0.43517  -0.43415  -0.43394  -0.43280
 Alpha  occ. eigenvalues --   -0.42866  -0.42808  -0.42705  -0.42319  -0.42259
 Alpha  occ. eigenvalues --   -0.42109  -0.41666  -0.41353  -0.41308  -0.41270
 Alpha  occ. eigenvalues --   -0.41087  -0.40822  -0.40703  -0.40319  -0.39933
 Alpha  occ. eigenvalues --   -0.39781  -0.39287  -0.39211  -0.39060  -0.38797
 Alpha  occ. eigenvalues --   -0.38622  -0.38399  -0.38181  -0.37915  -0.37751
 Alpha  occ. eigenvalues --   -0.37125  -0.36806  -0.36700  -0.36462  -0.36164
 Alpha  occ. eigenvalues --   -0.35779  -0.35692  -0.35366  -0.35185  -0.34375
 Alpha  occ. eigenvalues --   -0.34096  -0.34008  -0.32764  -0.31477  -0.31164
 Alpha  occ. eigenvalues --   -0.30869  -0.30584  -0.30050  -0.29480  -0.24121
 Alpha  occ. eigenvalues --   -0.20826
 Alpha virt. eigenvalues --   -0.08474  -0.01654   0.00483   0.02577   0.03227
 Alpha virt. eigenvalues --    0.03829   0.03930   0.05273   0.05699   0.06784
 Alpha virt. eigenvalues --    0.08228   0.08634   0.08956   0.09197   0.09236

 Mulliken charges:
               1
     1  Mg   0.834474
     2  C   -0.001439
     3  C   -0.090277
     4  C   -0.054026
     5  C   -0.097842
     6  N   -0.334821
     7  C   -0.054996
     8  C   -0.076802
     9  C   -0.028825
    10  C    0.072195
    11  C    0.066199
    12  C    0.032792
    13  C    0.071029
    14  C    0.197992
    15  O   -0.228278
    16  O   -0.350792
    17  N   -0.375736
    18  C    0.139603
    19  C   -0.153380
    20  C   -0.029664
    21  C    0.126117
    22  C    0.109874
    23  C   -0.012072
    24  O   -0.166104
    25  C    0.034533
    26  N   -0.273099
    27  C    0.036297
    28  C   -0.027160
    29  C   -0.049278
    30  C    0.058083
    31  C    0.076412
    32  C    0.003755
    33  C    0.025348
    34  N   -0.297445
    35  C    0.117021
    36  C   -0.190058
    37  C   -0.028345
    38  C    0.071800
    39  C    0.113250
    40  C    0.075182
    41  O   -0.145739
    42  C    0.021861
    43  C    0.230206
    44  O   -0.226108
    45  O   -0.361041
    46  C    0.166475
    47  C    0.279676
    48  C   -0.153214
    49  C   -0.118356
    50  C    0.074363
    51  C    0.097653
    52  C   -0.004597
    53  C    0.052021
    54  C   -0.136176
    55  C    0.014935
    56  C    0.070147
    57  C    0.005157
    58  C    0.063121
    59  C   -0.167763
    60  C    0.073010
    61  C    0.050064
    62  C    0.022591
    63  C    0.035146
    64  C   -0.175968
    65  C    0.065090
    66  C    0.045988
    67  H   -0.038189
    68  H    0.001955
    69  H   -0.025601
    70  H    0.029299
    71  H    0.016208
    72  H    0.022349
    73  H    0.021351
    74  H    0.017694
    75  H    0.015555
    76  H    0.031517
    77  H    0.010208
    78  H    0.022494
    79  H    0.018353
    80  H    0.026624
    81  H    0.035036
    82  H    0.026953
    83  H    0.020537
    84  H    0.042568
    85  H    0.002372
    86  H    0.007025
    87  H    0.021428
    88  H    0.018736
    89  H    0.014756
    90  H   -0.002334
    91  H   -0.006376
    92  H    0.022112
    93  H    0.026745
    94  H    0.019438
    95  H    0.039444
    96  H    0.008168
    97  H    0.037819
    98  H    0.046263
    99  H    0.036777
   100  H    0.048044
   101  H    0.051368
   102  H    0.016545
   103  H    0.047221
   104  H   -0.005637
   105  H    0.024023
   106  H    0.017875
   107  H    0.015861
   108  H   -0.007419
   109  H    0.000215
   110  H    0.002037
   111  H    0.003691
   112  H   -0.007608
   113  H   -0.014480
   114  H   -0.005356
   115  H    0.004803
   116  H    0.008605
   117  H    0.008877
   118  H    0.001011
   119  H    0.001917
   120  H    0.002296
   121  H   -0.009396
   122  H    0.000784
   123  H   -0.008526
   124  H   -0.014697
   125  H    0.011292
   126  H    0.015713
   127  H    0.001048
   128  H   -0.010420
   129  H   -0.016168
   130  H   -0.020508
   131  H   -0.014354
   132  H   -0.001328
   133  H   -0.008063
   134  H   -0.001448
   135  H    0.005770
   136  H    0.006372
   137  H    0.013073
   138  H    0.007202
   139  H    0.017101
   140  H    0.005318
 Sum of Mulliken charges =  -0.00000

 Dipole moment (field-independent basis, Debye):
    X=             -4.6195    Y=              4.4803    Z=              0.3250  Tot=              6.4435
 Quadrupole moment (field-independent basis, Debye-Ang):
   XX=           -389.4246   YY=           -430.3936   ZZ=           -398.8840
   XY=             20.2257   XZ=             18.5128   YZ=             -3.1072

 Normal termination of Gaussian 16 at Tue May  3 12:34:25 2022.
