 Gaussian 16, Revision A.03,
 Gaussian 16:  ES64L-G16RevA.03 25-Dec-2016

 ---------------------------------
 #p PBE1PBE/Def2SVP td=(nstates=5)
 ---------------------------------

 ------------------------------------------------------
 step_1001_chromophore_10 TDDFT with PBE1PBE functional
 ------------------------------------------------------
 Symbolic Z-matrix:
 Charge =  0 Multiplicity = 1

                         Standard orientation:
 ---------------------------------------------------------------------
 Center     Atomic      Atomic             Coordinates (Angstroms)
 Number     Number       Type             X           Y           Z
 ---------------------------------------------------------------------
      1         12           0        5.614284    0.732130   -0.030975
      2          6           0        3.787763   -2.238213    0.477586
      3          6           0        3.087720    2.005031   -1.974302
      4          6           0        7.473798    3.454069   -0.520922
      5          6           0        8.238107   -0.806675    1.616088
      6          7           0        3.710093   -0.023835   -0.533292
      7          6           0        3.178601   -1.211412   -0.161249
      8          6           0        1.672741   -1.316156   -0.756046
      9          6           0        1.412879    0.081555   -1.403829
     10          6           0        2.787697    0.717677   -1.372210
     11          6           0        0.798563   -0.029698   -2.774982
     12          6           0        0.600451   -1.643301    0.381738
     13          6           0       -0.885546   -1.517620   -0.041621
     14          6           0       -1.719842   -2.834744   -0.256512
     15          8           0       -1.384801   -3.780880   -0.937084
     16          8           0       -2.743915   -2.875943    0.691408
     17          7           0        5.279733    2.492089   -1.052313
     18          6           0        4.223522    2.806909   -1.814489
     19          6           0        4.388464    4.129673   -2.404287
     20          6           0        5.620711    4.636835   -1.909196
     21          6           0        6.226858    3.516826   -1.102537
     22          6           0        3.499109    4.742526   -3.435403
     23          6           0        6.250234    5.989937   -1.932548
     24          8           0        7.348291    6.211516   -1.528722
     25          6           0        5.318998    7.144561   -2.312761
     26          7           0        7.656733    1.188337    0.397370
     27          6           0        8.064099    2.482433    0.257552
     28          6           0        9.506556    2.584281    0.826489
     29          6           0        9.634540    1.336179    1.736028
     30          6           0        8.409793    0.560888    1.301755
     31          6           0       10.624410    2.585473   -0.277541
     32          6           0        9.457922    1.578421    3.302489
     33          6           0        8.376409    2.518437    3.818472
     34          7           0        6.012245   -1.139961    0.691541
     35          6           0        7.110535   -1.635352    1.331715
     36          6           0        6.989222   -2.961775    1.755176
     37          6           0        5.667942   -3.232061    1.499177
     38          6           0        5.152464   -2.124765    0.822334
     39          6           0        7.896677   -3.771123    2.694777
     40          6           0        4.683488   -4.319886    1.552625
     41          8           0        4.795981   -5.431378    2.028632
     42          6           0        3.475222   -3.709057    0.816186
     43          6           0        3.070303   -4.576149   -0.319390
     44          8           0        3.574746   -4.709389   -1.441640
     45          8           0        1.979686   -5.254548    0.189832
     46          6           0        1.196290   -6.057523   -0.798971
     47          6           0       -3.476768   -4.180237    0.799174
     48          6           0       -4.927154   -3.836360    0.502048
     49          6           0       -5.537120   -3.358836   -0.659503
     50          6           0       -4.895247   -3.060732   -2.015359
     51          6           0       -7.003329   -3.140979   -0.619472
     52          6           0       -7.604633   -1.864713   -1.066029
     53          6           0       -8.348488   -1.779033   -2.445617
     54          6           0       -9.978265   -1.800362   -2.331028
     55          6           0      -10.546355   -2.735680   -3.432230
     56          6           0      -10.803895   -0.483898   -2.396565
     57          6           0      -11.297087   -0.016837   -0.987582
     58          6           0      -10.929681    1.468606   -0.663893
     59          6           0      -12.140765    2.307208   -0.260446
     60          6           0      -12.969914    2.784159   -1.472868
     61          6           0      -11.724348    3.462562    0.637912
     62          6           0      -12.815779    3.834110    1.691695
     63          6           0      -12.790790    2.930101    2.934320
     64          6           0      -12.149058    3.668034    4.164615
     65          6           0      -11.861817    2.624265    5.281346
     66          6           0      -12.914392    4.877668    4.778081
     67          1           0        2.331764    2.483937   -2.600595
     68          1           0        8.100040    4.347082   -0.568783
     69          1           0        8.984989   -1.270694    2.263618
     70          1           0        1.789072   -2.091635   -1.512810
     71          1           0        0.766599    0.639846   -0.726575
     72          1           0        0.047031   -0.818965   -2.774788
     73          1           0        1.570434   -0.338950   -3.478405
     74          1           0        0.305534    0.871895   -3.140258
     75          1           0        0.872165   -0.956398    1.184074
     76          1           0        0.750273   -2.673186    0.705699
     77          1           0       -0.897203   -0.937608   -0.964425
     78          1           0       -1.302664   -0.818024    0.682479
     79          1           0        3.166244    3.879729   -4.012403
     80          1           0        4.038128    5.303189   -4.199011
     81          1           0        2.597923    5.212126   -3.044325
     82          1           0        5.129773    7.132607   -3.386560
     83          1           0        5.862687    8.072790   -2.135992
     84          1           0        4.397400    7.104609   -1.732803
     85          1           0        9.654817    3.499256    1.400056
     86          1           0       10.577058    0.790987    1.697311
     87          1           0       10.141509    2.701905   -1.248559
     88          1           0       11.201637    1.671225   -0.147204
     89          1           0       11.274499    3.459047   -0.226203
     90          1           0       10.430005    1.930706    3.646051
     91          1           0        9.419516    0.539837    3.629863
     92          1           0        8.846812    3.158631    4.564930
     93          1           0        7.519758    1.914611    4.116839
     94          1           0        8.007922    3.223466    3.074122
     95          1           0        7.856673   -3.397304    3.717956
     96          1           0        8.941673   -3.788300    2.384678
     97          1           0        7.595518   -4.810215    2.562982
     98          1           0        2.653150   -3.624728    1.526382
     99          1           0        1.523700   -7.082616   -0.627186
    100          1           0        1.460805   -5.753202   -1.811088
    101          1           0        0.131958   -5.921320   -0.604439
    102          1           0       -3.399778   -4.507847    1.835662
    103          1           0       -3.054396   -4.957377    0.161904
    104          1           0       -5.536788   -4.046035    1.381541
    105          1           0       -5.052752   -2.049460   -2.391756
    106          1           0       -5.316006   -3.687749   -2.801400
    107          1           0       -3.834291   -3.307155   -1.995735
    108          1           0       -7.457807   -3.388658    0.339439
    109          1           0       -7.343781   -3.905858   -1.317367
    110          1           0       -6.777328   -1.155403   -1.076728
    111          1           0       -8.379306   -1.554585   -0.365500
    112          1           0       -8.029857   -2.494333   -3.204180
    113          1           0       -8.042393   -0.810932   -2.843793
    114          1           0      -10.199425   -2.284808   -1.380174
    115          1           0       -9.914323   -3.604692   -3.615914
    116          1           0      -10.650772   -2.261373   -4.408812
    117          1           0      -11.551767   -2.980166   -3.089382
    118          1           0      -11.715937   -0.666271   -2.964473
    119          1           0      -10.160823    0.243773   -2.890795
    120          1           0      -11.001829   -0.686057   -0.179456
    121          1           0      -12.381957   -0.111260   -1.027118
    122          1           0      -10.439535    2.052960   -1.441069
    123          1           0      -10.289350    1.288069    0.199903
    124          1           0      -12.791906    1.678745    0.346596
    125          1           0      -13.250928    3.832563   -1.367789
    126          1           0      -13.830984    2.123780   -1.564948
    127          1           0      -12.341635    2.734055   -2.361992
    128          1           0      -11.442990    4.293507   -0.007919
    129          1           0      -10.901233    3.187259    1.297091
    130          1           0      -13.741943    3.793551    1.117511
    131          1           0      -12.761082    4.869741    2.026858
    132          1           0      -12.270083    2.019604    2.636848
    133          1           0      -13.798839    2.610669    3.200030
    134          1           0      -11.246450    4.089388    3.720916
    135          1           0      -12.068746    1.624088    4.899089
    136          1           0      -12.513780    2.874829    6.117963
    137          1           0      -10.818200    2.699714    5.585511
    138          1           0      -12.530986    5.822946    4.394187
    139          1           0      -12.876008    4.924490    5.866486
    140          1           0      -13.945048    4.853466    4.423333
 ---------------------------------------------------------------------

 SCF Done:  E(RPBE1PBE) =  -3005.37849643     A.U. after   16 cycles

 Excitation energies and oscillator strengths:

 Excited State   1:      Singlet-A      1.8275 eV  678.44 nm  f=0.3569  <S**2>=0.000
     245 -> 248       -0.16829
     246 -> 247        0.69499
     246 <- 247       -0.11177
 This state for optimization and/or second-order correction.
 Total Energy, E(TD-HF/TD-DFT) =  -3005.31133709
 Copying the excited state density for this state as the 1-particle RhoCI density.

 Excited State   2:      Singlet-A      2.2636 eV  547.73 nm  f=0.0993  <S**2>=0.000
     245 -> 247        0.64254
     246 -> 248        0.28561

 Excited State   3:      Singlet-A      3.0948 eV  400.62 nm  f=0.0001  <S**2>=0.000
     242 -> 247        0.67167
     242 -> 249        0.13592
     242 -> 250       -0.11737

 Excited State   4:      Singlet-A      3.1880 eV  388.90 nm  f=0.0005  <S**2>=0.000
     241 -> 247        0.59806
     241 -> 249       -0.15445
     243 -> 247       -0.31031

 Excited State   5:      Singlet-A      3.2067 eV  386.64 nm  f=0.0094  <S**2>=0.000
     241 -> 247        0.30754
     243 -> 247        0.61520

 The electronic state is 1-A.
 Alpha  occ. eigenvalues --  -46.90780 -19.25707 -19.24849 -19.21635 -19.20022
 Alpha  occ. eigenvalues --  -19.19510 -19.19443 -14.41765 -14.41294 -14.39235
 Alpha  occ. eigenvalues --  -14.38231 -10.37697 -10.36148 -10.32023 -10.31988
 Alpha  occ. eigenvalues --  -10.29860 -10.29625 -10.28552 -10.28070 -10.27937
 Alpha  occ. eigenvalues --  -10.27877 -10.27622 -10.27438 -10.26431 -10.26212
 Alpha  occ. eigenvalues --  -10.25925 -10.25823 -10.25784 -10.25727 -10.25523
 Alpha  occ. eigenvalues --  -10.25430 -10.25401 -10.25195 -10.25180 -10.24988
 Alpha  occ. eigenvalues --  -10.24668 -10.24595 -10.24558 -10.24407 -10.24196
 Alpha  occ. eigenvalues --  -10.23961 -10.23958 -10.23934 -10.23734 -10.23644
 Alpha  occ. eigenvalues --  -10.23614 -10.23375 -10.23324 -10.23296 -10.23000
 Alpha  occ. eigenvalues --  -10.22993 -10.22945 -10.22893 -10.22741 -10.22732
 Alpha  occ. eigenvalues --  -10.22718 -10.22589 -10.22529 -10.22269 -10.22122
 Alpha  occ. eigenvalues --  -10.22113 -10.22079 -10.21979 -10.21930 -10.21755
 Alpha  occ. eigenvalues --  -10.21753  -3.13121  -1.85970  -1.85473  -1.85381
 Alpha  occ. eigenvalues --   -1.10901  -1.09346  -1.06901  -1.05000  -1.03160
 Alpha  occ. eigenvalues --   -1.01419  -1.00199  -0.98830  -0.97517  -0.95996
 Alpha  occ. eigenvalues --   -0.86878  -0.84801  -0.84270  -0.83858  -0.83301
 Alpha  occ. eigenvalues --   -0.82498  -0.82400  -0.81829  -0.81464  -0.81350
 Alpha  occ. eigenvalues --   -0.80965  -0.79667  -0.78547  -0.77567  -0.77219
 Alpha  occ. eigenvalues --   -0.76776  -0.76035  -0.75306  -0.74864  -0.74534
 Alpha  occ. eigenvalues --   -0.74082  -0.72391  -0.72056  -0.71459  -0.70585
 Alpha  occ. eigenvalues --   -0.70118  -0.69480  -0.69210  -0.69152  -0.68203
 Alpha  occ. eigenvalues --   -0.67544  -0.66973  -0.66287  -0.64644  -0.64044
 Alpha  occ. eigenvalues --   -0.62899  -0.62692  -0.61835  -0.60791  -0.59584
 Alpha  occ. eigenvalues --   -0.59441  -0.59336  -0.58992  -0.58178  -0.57982
 Alpha  occ. eigenvalues --   -0.57775  -0.57533  -0.56080  -0.55797  -0.54711
 Alpha  occ. eigenvalues --   -0.54278  -0.54063  -0.53685  -0.53189  -0.52486
 Alpha  occ. eigenvalues --   -0.52231  -0.51985  -0.51014  -0.50617  -0.50126
 Alpha  occ. eigenvalues --   -0.49486  -0.49391  -0.49229  -0.48861  -0.48597
 Alpha  occ. eigenvalues --   -0.48385  -0.48224  -0.47889  -0.47795  -0.47171
 Alpha  occ. eigenvalues --   -0.46736  -0.46574  -0.46504  -0.46285  -0.46143
 Alpha  occ. eigenvalues --   -0.46017  -0.45962  -0.45833  -0.45382  -0.45131
 Alpha  occ. eigenvalues --   -0.44994  -0.44744  -0.44505  -0.44336  -0.44301
 Alpha  occ. eigenvalues --   -0.44069  -0.43922  -0.43607  -0.43553  -0.43382
 Alpha  occ. eigenvalues --   -0.42910  -0.42884  -0.42383  -0.42375  -0.42186
 Alpha  occ. eigenvalues --   -0.42160  -0.41964  -0.41867  -0.41604  -0.41403
 Alpha  occ. eigenvalues --   -0.41298  -0.40905  -0.40802  -0.40684  -0.40564
 Alpha  occ. eigenvalues --   -0.40301  -0.40208  -0.40088  -0.39845  -0.39668
 Alpha  occ. eigenvalues --   -0.39513  -0.39456  -0.39029  -0.38959  -0.38682
 Alpha  occ. eigenvalues --   -0.38416  -0.38290  -0.38187  -0.38148  -0.38070
 Alpha  occ. eigenvalues --   -0.37667  -0.37582  -0.37440  -0.37205  -0.37030
 Alpha  occ. eigenvalues --   -0.36842  -0.36520  -0.36269  -0.36180  -0.36102
 Alpha  occ. eigenvalues --   -0.35955  -0.35660  -0.35534  -0.35124  -0.34777
 Alpha  occ. eigenvalues --   -0.34727  -0.34165  -0.34013  -0.33864  -0.33633
 Alpha  occ. eigenvalues --   -0.33619  -0.33412  -0.32924  -0.32810  -0.32729
 Alpha  occ. eigenvalues --   -0.31951  -0.31678  -0.31584  -0.31577  -0.31236
 Alpha  occ. eigenvalues --   -0.30701  -0.30630  -0.30253  -0.30014  -0.29469
 Alpha  occ. eigenvalues --   -0.29085  -0.29080  -0.28306  -0.27070  -0.26299
 Alpha  occ. eigenvalues --   -0.25917  -0.25747  -0.25641  -0.24842  -0.21029
 Alpha  occ. eigenvalues --   -0.18481
 Alpha virt. eigenvalues --   -0.10988  -0.05150  -0.03730  -0.01869  -0.00829
 Alpha virt. eigenvalues --   -0.00534   0.00407   0.00853   0.01168   0.03461
 Alpha virt. eigenvalues --    0.04752   0.04887   0.04984   0.05485   0.05923

 Mulliken charges:
               1
     1  Mg   0.990593
     2  C    0.000581
     3  C   -0.075650
     4  C   -0.051472
     5  C   -0.071730
     6  N   -0.441127
     7  C    0.014903
     8  C   -0.137617
     9  C   -0.118699
    10  C    0.111137
    11  C    0.009024
    12  C   -0.022627
    13  C   -0.005326
    14  C    0.259170
    15  O   -0.261831
    16  O   -0.376318
    17  N   -0.496009
    18  C    0.157116
    19  C   -0.180615
    20  C   -0.071746
    21  C    0.156550
    22  C    0.047604
    23  C    0.040987
    24  O   -0.206070
    25  C   -0.039466
    26  N   -0.375691
    27  C    0.062242
    28  C   -0.098364
    29  C   -0.127963
    30  C    0.092977
    31  C    0.021147
    32  C   -0.053585
    33  C   -0.048616
    34  N   -0.431112
    35  C    0.120316
    36  C   -0.190247
    37  C   -0.064335
    38  C    0.118003
    39  C    0.052307
    40  C    0.164760
    41  O   -0.194464
    42  C   -0.082486
    43  C    0.315693
    44  O   -0.262759
    45  O   -0.390318
    46  C    0.112295
    47  C    0.232882
    48  C   -0.167495
    49  C   -0.162722
    50  C    0.014318
    51  C    0.039919
    52  C   -0.077216
    53  C    0.003392
    54  C   -0.218444
    55  C   -0.050198
    56  C    0.016704
    57  C   -0.053806
    58  C    0.005742
    59  C   -0.253411
    60  C    0.017189
    61  C   -0.009819
    62  C   -0.041163
    63  C   -0.022017
    64  C   -0.264408
    65  C    0.001295
    66  C   -0.015887
    67  H   -0.005343
    68  H    0.033255
    69  H    0.004030
    70  H    0.067060
    71  H    0.054133
    72  H    0.049407
    73  H    0.049696
    74  H    0.045084
    75  H    0.047908
    76  H    0.068792
    77  H    0.045784
    78  H    0.054596
    79  H    0.045556
    80  H    0.054220
    81  H    0.062468
    82  H    0.053563
    83  H    0.048111
    84  H    0.068933
    85  H    0.039080
    86  H    0.042045
    87  H    0.049867
    88  H    0.045874
    89  H    0.042219
    90  H    0.031401
    91  H    0.029076
    92  H    0.049791
    93  H    0.054520
    94  H    0.048855
    95  H    0.066619
    96  H    0.035938
    97  H    0.065516
    98  H    0.084115
    99  H    0.059337
   100  H    0.068371
   101  H    0.074470
   102  H    0.043570
   103  H    0.072868
   104  H    0.023919
   105  H    0.050100
   106  H    0.044832
   107  H    0.047270
   108  H    0.023518
   109  H    0.036065
   110  H    0.035828
   111  H    0.038974
   112  H    0.022790
   113  H    0.018422
   114  H    0.033461
   115  H    0.032499
   116  H    0.037229
   117  H    0.038051
   118  H    0.033362
   119  H    0.033476
   120  H    0.031734
   121  H    0.023530
   122  H    0.031714
   123  H    0.025130
   124  H    0.024629
   125  H    0.038001
   126  H    0.042416
   127  H    0.028663
   128  H    0.022523
   129  H    0.018012
   130  H    0.014047
   131  H    0.019875
   132  H    0.031136
   133  H    0.025133
   134  H    0.037503
   135  H    0.033144
   136  H    0.033768
   137  H    0.040951
   138  H    0.034168
   139  H    0.043938
   140  H    0.033384
 Sum of Mulliken charges =  -0.00000

 Dipole moment (field-independent basis, Debye):
    X=             -4.6326    Y=              4.3728    Z=              0.4283  Tot=              6.3848
 Quadrupole moment (field-independent basis, Debye-Ang):
   XX=           -383.4837   YY=           -428.3683   ZZ=           -395.7355
   XY=             19.7708   XZ=             20.3274   YZ=             -2.9374

 Normal termination of Gaussian 16 at Tue May  3 12:53:48 2022.
