 Gaussian 16, Revision A.03,
 Gaussian 16:  ES64L-G16RevA.03 25-Dec-2016

 --------------------------------
 #p wB97XD/Def2SVP td=(nstates=5)
 --------------------------------

 -----------------------------------------------------
 step_1001_chromophore_10 TDDFT with wB97XD functional
 -----------------------------------------------------
 Symbolic Z-matrix:
 Charge =  0 Multiplicity = 1

                         Standard orientation:
 ---------------------------------------------------------------------
 Center     Atomic      Atomic             Coordinates (Angstroms)
 Number     Number       Type             X           Y           Z
 ---------------------------------------------------------------------
      1         12           0        5.614284    0.732130   -0.030975
      2          6           0        3.787763   -2.238213    0.477586
      3          6           0        3.087720    2.005031   -1.974302
      4          6           0        7.473798    3.454069   -0.520922
      5          6           0        8.238107   -0.806675    1.616088
      6          7           0        3.710093   -0.023835   -0.533292
      7          6           0        3.178601   -1.211412   -0.161249
      8          6           0        1.672741   -1.316156   -0.756046
      9          6           0        1.412879    0.081555   -1.403829
     10          6           0        2.787697    0.717677   -1.372210
     11          6           0        0.798563   -0.029698   -2.774982
     12          6           0        0.600451   -1.643301    0.381738
     13          6           0       -0.885546   -1.517620   -0.041621
     14          6           0       -1.719842   -2.834744   -0.256512
     15          8           0       -1.384801   -3.780880   -0.937084
     16          8           0       -2.743915   -2.875943    0.691408
     17          7           0        5.279733    2.492089   -1.052313
     18          6           0        4.223522    2.806909   -1.814489
     19          6           0        4.388464    4.129673   -2.404287
     20          6           0        5.620711    4.636835   -1.909196
     21          6           0        6.226858    3.516826   -1.102537
     22          6           0        3.499109    4.742526   -3.435403
     23          6           0        6.250234    5.989937   -1.932548
     24          8           0        7.348291    6.211516   -1.528722
     25          6           0        5.318998    7.144561   -2.312761
     26          7           0        7.656733    1.188337    0.397370
     27          6           0        8.064099    2.482433    0.257552
     28          6           0        9.506556    2.584281    0.826489
     29          6           0        9.634540    1.336179    1.736028
     30          6           0        8.409793    0.560888    1.301755
     31          6           0       10.624410    2.585473   -0.277541
     32          6           0        9.457922    1.578421    3.302489
     33          6           0        8.376409    2.518437    3.818472
     34          7           0        6.012245   -1.139961    0.691541
     35          6           0        7.110535   -1.635352    1.331715
     36          6           0        6.989222   -2.961775    1.755176
     37          6           0        5.667942   -3.232061    1.499177
     38          6           0        5.152464   -2.124765    0.822334
     39          6           0        7.896677   -3.771123    2.694777
     40          6           0        4.683488   -4.319886    1.552625
     41          8           0        4.795981   -5.431378    2.028632
     42          6           0        3.475222   -3.709057    0.816186
     43          6           0        3.070303   -4.576149   -0.319390
     44          8           0        3.574746   -4.709389   -1.441640
     45          8           0        1.979686   -5.254548    0.189832
     46          6           0        1.196290   -6.057523   -0.798971
     47          6           0       -3.476768   -4.180237    0.799174
     48          6           0       -4.927154   -3.836360    0.502048
     49          6           0       -5.537120   -3.358836   -0.659503
     50          6           0       -4.895247   -3.060732   -2.015359
     51          6           0       -7.003329   -3.140979   -0.619472
     52          6           0       -7.604633   -1.864713   -1.066029
     53          6           0       -8.348488   -1.779033   -2.445617
     54          6           0       -9.978265   -1.800362   -2.331028
     55          6           0      -10.546355   -2.735680   -3.432230
     56          6           0      -10.803895   -0.483898   -2.396565
     57          6           0      -11.297087   -0.016837   -0.987582
     58          6           0      -10.929681    1.468606   -0.663893
     59          6           0      -12.140765    2.307208   -0.260446
     60          6           0      -12.969914    2.784159   -1.472868
     61          6           0      -11.724348    3.462562    0.637912
     62          6           0      -12.815779    3.834110    1.691695
     63          6           0      -12.790790    2.930101    2.934320
     64          6           0      -12.149058    3.668034    4.164615
     65          6           0      -11.861817    2.624265    5.281346
     66          6           0      -12.914392    4.877668    4.778081
     67          1           0        2.331764    2.483937   -2.600595
     68          1           0        8.100040    4.347082   -0.568783
     69          1           0        8.984989   -1.270694    2.263618
     70          1           0        1.789072   -2.091635   -1.512810
     71          1           0        0.766599    0.639846   -0.726575
     72          1           0        0.047031   -0.818965   -2.774788
     73          1           0        1.570434   -0.338950   -3.478405
     74          1           0        0.305534    0.871895   -3.140258
     75          1           0        0.872165   -0.956398    1.184074
     76          1           0        0.750273   -2.673186    0.705699
     77          1           0       -0.897203   -0.937608   -0.964425
     78          1           0       -1.302664   -0.818024    0.682479
     79          1           0        3.166244    3.879729   -4.012403
     80          1           0        4.038128    5.303189   -4.199011
     81          1           0        2.597923    5.212126   -3.044325
     82          1           0        5.129773    7.132607   -3.386560
     83          1           0        5.862687    8.072790   -2.135992
     84          1           0        4.397400    7.104609   -1.732803
     85          1           0        9.654817    3.499256    1.400056
     86          1           0       10.577058    0.790987    1.697311
     87          1           0       10.141509    2.701905   -1.248559
     88          1           0       11.201637    1.671225   -0.147204
     89          1           0       11.274499    3.459047   -0.226203
     90          1           0       10.430005    1.930706    3.646051
     91          1           0        9.419516    0.539837    3.629863
     92          1           0        8.846812    3.158631    4.564930
     93          1           0        7.519758    1.914611    4.116839
     94          1           0        8.007922    3.223466    3.074122
     95          1           0        7.856673   -3.397304    3.717956
     96          1           0        8.941673   -3.788300    2.384678
     97          1           0        7.595518   -4.810215    2.562982
     98          1           0        2.653150   -3.624728    1.526382
     99          1           0        1.523700   -7.082616   -0.627186
    100          1           0        1.460805   -5.753202   -1.811088
    101          1           0        0.131958   -5.921320   -0.604439
    102          1           0       -3.399778   -4.507847    1.835662
    103          1           0       -3.054396   -4.957377    0.161904
    104          1           0       -5.536788   -4.046035    1.381541
    105          1           0       -5.052752   -2.049460   -2.391756
    106          1           0       -5.316006   -3.687749   -2.801400
    107          1           0       -3.834291   -3.307155   -1.995735
    108          1           0       -7.457807   -3.388658    0.339439
    109          1           0       -7.343781   -3.905858   -1.317367
    110          1           0       -6.777328   -1.155403   -1.076728
    111          1           0       -8.379306   -1.554585   -0.365500
    112          1           0       -8.029857   -2.494333   -3.204180
    113          1           0       -8.042393   -0.810932   -2.843793
    114          1           0      -10.199425   -2.284808   -1.380174
    115          1           0       -9.914323   -3.604692   -3.615914
    116          1           0      -10.650772   -2.261373   -4.408812
    117          1           0      -11.551767   -2.980166   -3.089382
    118          1           0      -11.715937   -0.666271   -2.964473
    119          1           0      -10.160823    0.243773   -2.890795
    120          1           0      -11.001829   -0.686057   -0.179456
    121          1           0      -12.381957   -0.111260   -1.027118
    122          1           0      -10.439535    2.052960   -1.441069
    123          1           0      -10.289350    1.288069    0.199903
    124          1           0      -12.791906    1.678745    0.346596
    125          1           0      -13.250928    3.832563   -1.367789
    126          1           0      -13.830984    2.123780   -1.564948
    127          1           0      -12.341635    2.734055   -2.361992
    128          1           0      -11.442990    4.293507   -0.007919
    129          1           0      -10.901233    3.187259    1.297091
    130          1           0      -13.741943    3.793551    1.117511
    131          1           0      -12.761082    4.869741    2.026858
    132          1           0      -12.270083    2.019604    2.636848
    133          1           0      -13.798839    2.610669    3.200030
    134          1           0      -11.246450    4.089388    3.720916
    135          1           0      -12.068746    1.624088    4.899089
    136          1           0      -12.513780    2.874829    6.117963
    137          1           0      -10.818200    2.699714    5.585511
    138          1           0      -12.530986    5.822946    4.394187
    139          1           0      -12.876008    4.924490    5.866486
    140          1           0      -13.945048    4.853466    4.423333
 ---------------------------------------------------------------------

 SCF Done:  E(RwB97XD) =  -3007.88861234     A.U. after   19 cycles

 Excitation energies and oscillator strengths:

 Excited State   1:      Singlet-A      1.6168 eV  766.84 nm  f=0.3684  <S**2>=0.000
     245 -> 248       -0.18080
     246 -> 247        0.68490
     245 <- 248       -0.11664
 This state for optimization and/or second-order correction.
 Total Energy, E(TD-HF/TD-DFT) =  -3007.82919513
 Copying the excited state density for this state as the 1-particle RhoCI density.

 Excited State   2:      Singlet-A      2.2122 eV  560.46 nm  f=0.0940  <S**2>=0.000
     245 -> 247        0.62794
     246 -> 248        0.31456

 Excited State   3:      Singlet-A      3.5059 eV  353.64 nm  f=0.6743  <S**2>=0.000
     241 -> 247        0.11879
     242 -> 247       -0.15308
     245 -> 247       -0.28918
     246 -> 248        0.60999
     245 <- 247        0.11445

 Excited State   4:      Singlet-A      3.5745 eV  346.86 nm  f=0.0022  <S**2>=0.000
     242 -> 247       -0.13529
     243 -> 247        0.66996

 Excited State   5:      Singlet-A      3.6417 eV  340.46 nm  f=0.0074  <S**2>=0.000
     241 -> 247        0.36420
     241 -> 249        0.19133
     241 -> 250       -0.18598
     242 -> 247        0.43025
     242 -> 249        0.18772
     242 -> 250       -0.18874

 The electronic state is 1-A.
 Alpha  occ. eigenvalues --  -46.93735 -19.30224 -19.29373 -19.26301 -19.24711
 Alpha  occ. eigenvalues --  -19.24345 -19.24277 -14.46679 -14.46507 -14.44248
 Alpha  occ. eigenvalues --  -14.43158 -10.44499 -10.42975 -10.38905 -10.38855
 Alpha  occ. eigenvalues --  -10.36220 -10.36108 -10.34801 -10.34328 -10.34209
 Alpha  occ. eigenvalues --  -10.34115 -10.34111 -10.33885 -10.32738 -10.32635
 Alpha  occ. eigenvalues --  -10.32286 -10.32143 -10.32037 -10.32031 -10.31883
 Alpha  occ. eigenvalues --  -10.31790 -10.31682 -10.31387 -10.31360 -10.31297
 Alpha  occ. eigenvalues --  -10.31153 -10.31140 -10.30839 -10.30720 -10.30717
 Alpha  occ. eigenvalues --  -10.30324 -10.30207 -10.30203 -10.30202 -10.30054
 Alpha  occ. eigenvalues --  -10.29903 -10.29886 -10.29783 -10.29652 -10.29638
 Alpha  occ. eigenvalues --  -10.29345 -10.29336 -10.29270 -10.29103 -10.29080
 Alpha  occ. eigenvalues --  -10.29012 -10.28962 -10.28897 -10.28630 -10.28547
 Alpha  occ. eigenvalues --  -10.28547 -10.28452 -10.28361 -10.28342 -10.28168
 Alpha  occ. eigenvalues --  -10.27982  -3.19897  -1.93500  -1.93007  -1.92911
 Alpha  occ. eigenvalues --   -1.18270  -1.16737  -1.14446  -1.12434  -1.10490
 Alpha  occ. eigenvalues --   -1.08773  -1.07487  -1.06220  -1.04934  -1.03364
 Alpha  occ. eigenvalues --   -0.94441  -0.92472  -0.91938  -0.91466  -0.90922
 Alpha  occ. eigenvalues --   -0.90091  -0.90060  -0.89465  -0.89131  -0.89008
 Alpha  occ. eigenvalues --   -0.88564  -0.87307  -0.86201  -0.85174  -0.84844
 Alpha  occ. eigenvalues --   -0.84421  -0.83788  -0.82981  -0.82468  -0.82180
 Alpha  occ. eigenvalues --   -0.81750  -0.80095  -0.79707  -0.79057  -0.78272
 Alpha  occ. eigenvalues --   -0.77720  -0.77180  -0.76843  -0.76786  -0.75867
 Alpha  occ. eigenvalues --   -0.75103  -0.74553  -0.73838  -0.72256  -0.71594
 Alpha  occ. eigenvalues --   -0.70490  -0.70306  -0.69377  -0.68399  -0.67175
 Alpha  occ. eigenvalues --   -0.66906  -0.66874  -0.66396  -0.65667  -0.65648
 Alpha  occ. eigenvalues --   -0.65415  -0.65018  -0.63703  -0.63204  -0.62164
 Alpha  occ. eigenvalues --   -0.61797  -0.61446  -0.61095  -0.60633  -0.59913
 Alpha  occ. eigenvalues --   -0.59640  -0.59479  -0.58406  -0.58066  -0.57557
 Alpha  occ. eigenvalues --   -0.56991  -0.56794  -0.56612  -0.56284  -0.56022
 Alpha  occ. eigenvalues --   -0.55752  -0.55618  -0.55295  -0.55232  -0.54594
 Alpha  occ. eigenvalues --   -0.54167  -0.53933  -0.53909  -0.53681  -0.53535
 Alpha  occ. eigenvalues --   -0.53399  -0.53312  -0.53184  -0.52752  -0.52611
 Alpha  occ. eigenvalues --   -0.52336  -0.51991  -0.51860  -0.51667  -0.51586
 Alpha  occ. eigenvalues --   -0.51380  -0.51230  -0.50933  -0.50864  -0.50668
 Alpha  occ. eigenvalues --   -0.50256  -0.50212  -0.49672  -0.49587  -0.49447
 Alpha  occ. eigenvalues --   -0.49437  -0.49252  -0.49140  -0.48841  -0.48620
 Alpha  occ. eigenvalues --   -0.48521  -0.48150  -0.47901  -0.47896  -0.47795
 Alpha  occ. eigenvalues --   -0.47525  -0.47394  -0.47292  -0.47070  -0.46861
 Alpha  occ. eigenvalues --   -0.46767  -0.46642  -0.46230  -0.46127  -0.45893
 Alpha  occ. eigenvalues --   -0.45576  -0.45390  -0.45353  -0.45288  -0.45224
 Alpha  occ. eigenvalues --   -0.44808  -0.44737  -0.44574  -0.44268  -0.44172
 Alpha  occ. eigenvalues --   -0.43974  -0.43559  -0.43296  -0.43187  -0.43169
 Alpha  occ. eigenvalues --   -0.43027  -0.42689  -0.42583  -0.42186  -0.41782
 Alpha  occ. eigenvalues --   -0.41721  -0.41170  -0.41051  -0.40913  -0.40649
 Alpha  occ. eigenvalues --   -0.40587  -0.40331  -0.40004  -0.39819  -0.39661
 Alpha  occ. eigenvalues --   -0.38971  -0.38680  -0.38595  -0.38582  -0.38079
 Alpha  occ. eigenvalues --   -0.37752  -0.37578  -0.37293  -0.37024  -0.36369
 Alpha  occ. eigenvalues --   -0.35975  -0.35934  -0.35007  -0.33651  -0.33135
 Alpha  occ. eigenvalues --   -0.32908  -0.32697  -0.32242  -0.31521  -0.26052
 Alpha  occ. eigenvalues --   -0.22631
 Alpha virt. eigenvalues --   -0.06815   0.00274   0.02555   0.04694   0.06015
 Alpha virt. eigenvalues --    0.06143   0.06287   0.07535   0.07953   0.09698
 Alpha virt. eigenvalues --    0.11380   0.11598   0.11808   0.12228   0.12663

 Mulliken charges:
               1
     1  Mg   0.977294
     2  C   -0.012286
     3  C   -0.097927
     4  C   -0.063944
     5  C   -0.093542
     6  N   -0.411558
     7  C   -0.010994
     8  C   -0.118296
     9  C   -0.086265
    10  C    0.100030
    11  C    0.016617
    12  C   -0.004651
    13  C    0.012608
    14  C    0.247101
    15  O   -0.257603
    16  O   -0.376847
    17  N   -0.460024
    18  C    0.154028
    19  C   -0.170210
    20  C   -0.067120
    21  C    0.146803
    22  C    0.058756
    23  C    0.036379
    24  O   -0.200131
    25  C   -0.027149
    26  N   -0.341476
    27  C    0.049607
    28  C   -0.077631
    29  C   -0.100838
    30  C    0.078941
    31  C    0.031397
    32  C   -0.038824
    33  C   -0.030751
    34  N   -0.390780
    35  C    0.118208
    36  C   -0.191739
    37  C   -0.068459
    38  C    0.105930
    39  C    0.066440
    40  C    0.148741
    41  O   -0.183583
    42  C   -0.043828
    43  C    0.291478
    44  O   -0.256645
    45  O   -0.389944
    46  C    0.128750
    47  C    0.248367
    48  C   -0.174297
    49  C   -0.150692
    50  C    0.029208
    51  C    0.054834
    52  C   -0.054129
    53  C    0.013432
    54  C   -0.189531
    55  C   -0.032971
    56  C    0.029447
    57  C   -0.037193
    58  C    0.021609
    59  C   -0.221059
    60  C    0.024412
    61  C    0.011097
    62  C   -0.022623
    63  C   -0.007530
    64  C   -0.233781
    65  C    0.015480
    66  C   -0.005959
    67  H   -0.013420
    68  H    0.029783
    69  H   -0.001070
    70  H    0.056471
    71  H    0.042771
    72  H    0.043083
    73  H    0.044208
    74  H    0.040586
    75  H    0.040798
    76  H    0.053273
    77  H    0.033535
    78  H    0.050854
    79  H    0.039801
    80  H    0.049304
    81  H    0.059524
    82  H    0.048164
    83  H    0.046640
    84  H    0.064381
    85  H    0.029188
    86  H    0.033775
    87  H    0.042608
    88  H    0.039660
    89  H    0.037156
    90  H    0.023750
    91  H    0.017661
    92  H    0.045152
    93  H    0.048768
    94  H    0.038263
    95  H    0.062146
    96  H    0.030470
    97  H    0.061599
    98  H    0.076481
    99  H    0.055623
   100  H    0.064438
   101  H    0.070087
   102  H    0.040740
   103  H    0.068088
   104  H    0.020650
   105  H    0.044535
   106  H    0.039796
   107  H    0.038407
   108  H    0.018376
   109  H    0.024014
   110  H    0.026354
   111  H    0.027751
   112  H    0.013649
   113  H    0.010341
   114  H    0.018077
   115  H    0.026300
   116  H    0.030005
   117  H    0.031003
   118  H    0.025103
   119  H    0.023611
   120  H    0.024190
   121  H    0.014213
   122  H    0.022005
   123  H    0.016092
   124  H    0.008126
   125  H    0.032246
   126  H    0.037697
   127  H    0.021899
   128  H    0.014851
   129  H    0.004575
   130  H    0.003669
   131  H    0.010229
   132  H    0.018848
   133  H    0.017002
   134  H    0.024023
   135  H    0.027228
   136  H    0.026735
   137  H    0.035780
   138  H    0.028715
   139  H    0.038640
   140  H    0.026740
 Sum of Mulliken charges =  -0.00000

 Dipole moment (field-independent basis, Debye):
    X=             -4.6797    Y=              4.5653    Z=              0.3300  Tot=              6.5460
 Quadrupole moment (field-independent basis, Debye-Ang):
   XX=           -384.4033   YY=           -426.3292   ZZ=           -395.1912
   XY=             20.6886   XZ=             19.6575   YZ=             -3.6651

 Normal termination of Gaussian 16 at Tue May  3 13:22:03 2022.
