 Gaussian 16, Revision A.03,
 Gaussian 16:  ES64L-G16RevA.03 25-Dec-2016

 --------------------
 #p ZINDO=(nstates=5)
 --------------------

 ------------------------------
 step_1001_chromophore_10 ZINDO
 ------------------------------
 Symbolic Z-matrix:
 Charge =  0 Multiplicity = 1

                         Standard orientation:
 ---------------------------------------------------------------------
 Center     Atomic      Atomic             Coordinates (Angstroms)
 Number     Number       Type             X           Y           Z
 ---------------------------------------------------------------------
      1         12           0        5.614284    0.732130   -0.030975
      2          6           0        3.787763   -2.238213    0.477586
      3          6           0        3.087720    2.005031   -1.974302
      4          6           0        7.473798    3.454069   -0.520922
      5          6           0        8.238107   -0.806675    1.616088
      6          7           0        3.710093   -0.023835   -0.533292
      7          6           0        3.178601   -1.211412   -0.161249
      8          6           0        1.672741   -1.316156   -0.756046
      9          6           0        1.412879    0.081555   -1.403829
     10          6           0        2.787697    0.717677   -1.372210
     11          6           0        0.798563   -0.029698   -2.774982
     12          6           0        0.600451   -1.643301    0.381738
     13          6           0       -0.885546   -1.517620   -0.041621
     14          6           0       -1.719842   -2.834744   -0.256512
     15          8           0       -1.384801   -3.780880   -0.937084
     16          8           0       -2.743915   -2.875943    0.691408
     17          7           0        5.279733    2.492089   -1.052313
     18          6           0        4.223522    2.806909   -1.814489
     19          6           0        4.388464    4.129673   -2.404287
     20          6           0        5.620711    4.636835   -1.909196
     21          6           0        6.226858    3.516826   -1.102537
     22          6           0        3.499109    4.742526   -3.435403
     23          6           0        6.250234    5.989937   -1.932548
     24          8           0        7.348291    6.211516   -1.528722
     25          6           0        5.318998    7.144561   -2.312761
     26          7           0        7.656733    1.188337    0.397370
     27          6           0        8.064099    2.482433    0.257552
     28          6           0        9.506556    2.584281    0.826489
     29          6           0        9.634540    1.336179    1.736028
     30          6           0        8.409793    0.560888    1.301755
     31          6           0       10.624410    2.585473   -0.277541
     32          6           0        9.457922    1.578421    3.302489
     33          6           0        8.376409    2.518437    3.818472
     34          7           0        6.012245   -1.139961    0.691541
     35          6           0        7.110535   -1.635352    1.331715
     36          6           0        6.989222   -2.961775    1.755176
     37          6           0        5.667942   -3.232061    1.499177
     38          6           0        5.152464   -2.124765    0.822334
     39          6           0        7.896677   -3.771123    2.694777
     40          6           0        4.683488   -4.319886    1.552625
     41          8           0        4.795981   -5.431378    2.028632
     42          6           0        3.475222   -3.709057    0.816186
     43          6           0        3.070303   -4.576149   -0.319390
     44          8           0        3.574746   -4.709389   -1.441640
     45          8           0        1.979686   -5.254548    0.189832
     46          6           0        1.196290   -6.057523   -0.798971
     47          6           0       -3.476768   -4.180237    0.799174
     48          6           0       -4.927154   -3.836360    0.502048
     49          6           0       -5.537120   -3.358836   -0.659503
     50          6           0       -4.895247   -3.060732   -2.015359
     51          6           0       -7.003329   -3.140979   -0.619472
     52          6           0       -7.604633   -1.864713   -1.066029
     53          6           0       -8.348488   -1.779033   -2.445617
     54          6           0       -9.978265   -1.800362   -2.331028
     55          6           0      -10.546355   -2.735680   -3.432230
     56          6           0      -10.803895   -0.483898   -2.396565
     57          6           0      -11.297087   -0.016837   -0.987582
     58          6           0      -10.929681    1.468606   -0.663893
     59          6           0      -12.140765    2.307208   -0.260446
     60          6           0      -12.969914    2.784159   -1.472868
     61          6           0      -11.724348    3.462562    0.637912
     62          6           0      -12.815779    3.834110    1.691695
     63          6           0      -12.790790    2.930101    2.934320
     64          6           0      -12.149058    3.668034    4.164615
     65          6           0      -11.861817    2.624265    5.281346
     66          6           0      -12.914392    4.877668    4.778081
     67          1           0        2.331764    2.483937   -2.600595
     68          1           0        8.100040    4.347082   -0.568783
     69          1           0        8.984989   -1.270694    2.263618
     70          1           0        1.789072   -2.091635   -1.512810
     71          1           0        0.766599    0.639846   -0.726575
     72          1           0        0.047031   -0.818965   -2.774788
     73          1           0        1.570434   -0.338950   -3.478405
     74          1           0        0.305534    0.871895   -3.140258
     75          1           0        0.872165   -0.956398    1.184074
     76          1           0        0.750273   -2.673186    0.705699
     77          1           0       -0.897203   -0.937608   -0.964425
     78          1           0       -1.302664   -0.818024    0.682479
     79          1           0        3.166244    3.879729   -4.012403
     80          1           0        4.038128    5.303189   -4.199011
     81          1           0        2.597923    5.212126   -3.044325
     82          1           0        5.129773    7.132607   -3.386560
     83          1           0        5.862687    8.072790   -2.135992
     84          1           0        4.397400    7.104609   -1.732803
     85          1           0        9.654817    3.499256    1.400056
     86          1           0       10.577058    0.790987    1.697311
     87          1           0       10.141509    2.701905   -1.248559
     88          1           0       11.201637    1.671225   -0.147204
     89          1           0       11.274499    3.459047   -0.226203
     90          1           0       10.430005    1.930706    3.646051
     91          1           0        9.419516    0.539837    3.629863
     92          1           0        8.846812    3.158631    4.564930
     93          1           0        7.519758    1.914611    4.116839
     94          1           0        8.007922    3.223466    3.074122
     95          1           0        7.856673   -3.397304    3.717956
     96          1           0        8.941673   -3.788300    2.384678
     97          1           0        7.595518   -4.810215    2.562982
     98          1           0        2.653150   -3.624728    1.526382
     99          1           0        1.523700   -7.082616   -0.627186
    100          1           0        1.460805   -5.753202   -1.811088
    101          1           0        0.131958   -5.921320   -0.604439
    102          1           0       -3.399778   -4.507847    1.835662
    103          1           0       -3.054396   -4.957377    0.161904
    104          1           0       -5.536788   -4.046035    1.381541
    105          1           0       -5.052752   -2.049460   -2.391756
    106          1           0       -5.316006   -3.687749   -2.801400
    107          1           0       -3.834291   -3.307155   -1.995735
    108          1           0       -7.457807   -3.388658    0.339439
    109          1           0       -7.343781   -3.905858   -1.317367
    110          1           0       -6.777328   -1.155403   -1.076728
    111          1           0       -8.379306   -1.554585   -0.365500
    112          1           0       -8.029857   -2.494333   -3.204180
    113          1           0       -8.042393   -0.810932   -2.843793
    114          1           0      -10.199425   -2.284808   -1.380174
    115          1           0       -9.914323   -3.604692   -3.615914
    116          1           0      -10.650772   -2.261373   -4.408812
    117          1           0      -11.551767   -2.980166   -3.089382
    118          1           0      -11.715937   -0.666271   -2.964473
    119          1           0      -10.160823    0.243773   -2.890795
    120          1           0      -11.001829   -0.686057   -0.179456
    121          1           0      -12.381957   -0.111260   -1.027118
    122          1           0      -10.439535    2.052960   -1.441069
    123          1           0      -10.289350    1.288069    0.199903
    124          1           0      -12.791906    1.678745    0.346596
    125          1           0      -13.250928    3.832563   -1.367789
    126          1           0      -13.830984    2.123780   -1.564948
    127          1           0      -12.341635    2.734055   -2.361992
    128          1           0      -11.442990    4.293507   -0.007919
    129          1           0      -10.901233    3.187259    1.297091
    130          1           0      -13.741943    3.793551    1.117511
    131          1           0      -12.761082    4.869741    2.026858
    132          1           0      -12.270083    2.019604    2.636848
    133          1           0      -13.798839    2.610669    3.200030
    134          1           0      -11.246450    4.089388    3.720916
    135          1           0      -12.068746    1.624088    4.899089
    136          1           0      -12.513780    2.874829    6.117963
    137          1           0      -10.818200    2.699714    5.585511
    138          1           0      -12.530986    5.822946    4.394187
    139          1           0      -12.876008    4.924490    5.866486
    140          1           0      -13.945048    4.853466    4.423333
 ---------------------------------------------------------------------

 SCF Done:  E(RZINDO/S) =  -474.331276218     A.U. after   20 cycles

 Excitation energies and oscillator strengths:

 Excited State   1:      Singlet-A      1.2283 eV 1009.43 nm  f=0.6020  <S**2>=0.000
     175 ->178        -0.18746
     176 ->177         0.66410
 This state for optimization and/or second-order correction.
 Total Energy, E(CIS/TDA) =  -474.286138442
 Copying the excited state density for this state as the 1-particle RhoCI density.

 Excited State   2:      Singlet-A      1.9588 eV  632.96 nm  f=0.0204  <S**2>=0.000
     175 ->177         0.52305
     176 ->178         0.45468

 Excited State   3:      Singlet-A      2.9777 eV  416.37 nm  f=0.2334  <S**2>=0.000
     169 ->177         0.11685
     169 ->179        -0.15741
     170 ->177         0.11823
     170 ->179        -0.10040
     170 ->181         0.14646
     175 ->177        -0.17591
     176 ->178         0.21857
     176 ->179         0.49384

 Excited State   4:      Singlet-A      3.0069 eV  412.34 nm  f=0.6237  <S**2>=0.000
     168 ->179         0.13099
     169 ->177        -0.17286
     169 ->179         0.12533
     169 ->181        -0.16180
     170 ->177        -0.11877
     170 ->179         0.14574
     170 ->181        -0.10668
     171 ->177        -0.10799
     175 ->177        -0.31938
     176 ->178         0.37955
     176 ->181         0.13081

 Excited State   5:      Singlet-A      3.0118 eV  411.67 nm  f=0.0952  <S**2>=0.000
     168 ->177         0.28929
     168 ->178         0.13513
     168 ->179         0.35235
     168 ->181         0.28142
     168 ->183         0.10885
     168 ->186         0.23480
     168 ->187         0.13012
     175 ->177         0.11729
     176 ->178        -0.14227

 The electronic state is 1-A.
 Alpha  occ. eigenvalues --   -1.88075  -1.82232  -1.79122  -1.71954  -1.70884
 Alpha  occ. eigenvalues --   -1.69952  -1.65972  -1.61196  -1.60577  -1.58000
 Alpha  occ. eigenvalues --   -1.55187  -1.51129  -1.49439  -1.47900  -1.46391
 Alpha  occ. eigenvalues --   -1.44794  -1.43330  -1.40574  -1.38696  -1.37590
 Alpha  occ. eigenvalues --   -1.36236  -1.33726  -1.32152  -1.30908  -1.28676
 Alpha  occ. eigenvalues --   -1.26368  -1.25233  -1.22496  -1.21271  -1.18933
 Alpha  occ. eigenvalues --   -1.18491  -1.16292  -1.15552  -1.14242  -1.13708
 Alpha  occ. eigenvalues --   -1.13365  -1.10740  -1.10110  -1.04639  -1.02626
 Alpha  occ. eigenvalues --   -1.02457  -1.00684  -0.98511  -0.98284  -0.97445
 Alpha  occ. eigenvalues --   -0.95639  -0.93356  -0.93002  -0.92242  -0.91400
 Alpha  occ. eigenvalues --   -0.91137  -0.90303  -0.89530  -0.88286  -0.85305
 Alpha  occ. eigenvalues --   -0.85112  -0.83460  -0.82603  -0.81153  -0.80076
 Alpha  occ. eigenvalues --   -0.79601  -0.78793  -0.78692  -0.77454  -0.76684
 Alpha  occ. eigenvalues --   -0.76285  -0.75436  -0.75302  -0.74452  -0.74274
 Alpha  occ. eigenvalues --   -0.73525  -0.72660  -0.71860  -0.71768  -0.70933
 Alpha  occ. eigenvalues --   -0.70756  -0.69933  -0.68954  -0.68640  -0.68106
 Alpha  occ. eigenvalues --   -0.67303  -0.66972  -0.66692  -0.65626  -0.65449
 Alpha  occ. eigenvalues --   -0.65019  -0.64540  -0.63493  -0.63320  -0.63251
 Alpha  occ. eigenvalues --   -0.63005  -0.62713  -0.62404  -0.62086  -0.61957
 Alpha  occ. eigenvalues --   -0.60836  -0.60567  -0.60365  -0.59993  -0.59369
 Alpha  occ. eigenvalues --   -0.59128  -0.58997  -0.58676  -0.58240  -0.57794
 Alpha  occ. eigenvalues --   -0.57754  -0.57613  -0.57468  -0.57377  -0.56798
 Alpha  occ. eigenvalues --   -0.56281  -0.55466  -0.55064  -0.54967  -0.54802
 Alpha  occ. eigenvalues --   -0.54037  -0.53969  -0.53336  -0.53190  -0.52901
 Alpha  occ. eigenvalues --   -0.52632  -0.52184  -0.52026  -0.51809  -0.51597
 Alpha  occ. eigenvalues --   -0.51367  -0.50905  -0.50176  -0.50131  -0.49941
 Alpha  occ. eigenvalues --   -0.49805  -0.49498  -0.49464  -0.49177  -0.48954
 Alpha  occ. eigenvalues --   -0.48865  -0.48515  -0.48025  -0.47868  -0.47830
 Alpha  occ. eigenvalues --   -0.47795  -0.47381  -0.47174  -0.47005  -0.46684
 Alpha  occ. eigenvalues --   -0.46604  -0.46239  -0.45911  -0.45577  -0.45263
 Alpha  occ. eigenvalues --   -0.45045  -0.44995  -0.44789  -0.44547  -0.44529
 Alpha  occ. eigenvalues --   -0.43752  -0.43481  -0.43176  -0.42459  -0.42139
 Alpha  occ. eigenvalues --   -0.41755  -0.41345  -0.40557  -0.39876  -0.38991
 Alpha  occ. eigenvalues --   -0.38374  -0.36928  -0.35274  -0.34629  -0.34288
 Alpha  occ. eigenvalues --   -0.33449  -0.32962  -0.32474  -0.31667  -0.26762
 Alpha  occ. eigenvalues --   -0.21440
 Alpha virt. eigenvalues --   -0.08226  -0.01975  -0.00292   0.00733   0.01238
 Alpha virt. eigenvalues --    0.02929   0.03087   0.03337   0.04001   0.05119
 Alpha virt. eigenvalues --    0.06294   0.07399   0.07489   0.08106   0.08583

 Mulliken charges:
               1
     1  Mg   0.420915
     2  C   -0.064447
     3  C   -0.094325
     4  C   -0.038614
     5  C   -0.067589
     6  N   -0.300572
     7  C    0.129889
     8  C   -0.018376
     9  C    0.016581
    10  C    0.121833
    11  C   -0.046255
    12  C   -0.022979
    13  C   -0.001431
    14  C    0.467175
    15  O   -0.498392
    16  O   -0.275849
    17  N   -0.315855
    18  C    0.134263
    19  C    0.005010
    20  C   -0.049248
    21  C    0.112261
    22  C   -0.043595
    23  C    0.334981
    24  O   -0.504099
    25  C   -0.036426
    26  N   -0.246838
    27  C    0.120309
    28  C    0.004842
    29  C   -0.003880
    30  C    0.119206
    31  C   -0.055965
    32  C   -0.035875
    33  C   -0.050525
    34  N   -0.313945
    35  C    0.096551
    36  C    0.024174
    37  C   -0.059411
    38  C    0.129897
    39  C   -0.041855
    40  C    0.337038
    41  O   -0.508506
    42  C    0.068496
    43  C    0.495226
    44  O   -0.518497
    45  O   -0.274947
    46  C    0.067482
    47  C    0.103698
    48  C   -0.099879
    49  C    0.008840
    50  C   -0.040006
    51  C   -0.012206
    52  C   -0.027660
    53  C   -0.042609
    54  C   -0.022843
    55  C   -0.060272
    56  C   -0.031516
    57  C   -0.042885
    58  C   -0.037544
    59  C   -0.009274
    60  C   -0.056706
    61  C   -0.035669
    62  C   -0.042919
    63  C   -0.029050
    64  C   -0.014861
    65  C   -0.060680
    66  C   -0.055058
    67  H    0.025248
    68  H    0.044225
    69  H    0.024807
    70  H    0.045660
    71  H    0.031754
    72  H    0.018128
    73  H    0.026136
    74  H    0.017855
    75  H    0.027877
    76  H    0.029147
    77  H    0.038719
    78  H    0.031001
    79  H    0.017855
    80  H    0.031203
    81  H    0.039113
    82  H    0.036217
    83  H    0.031418
    84  H    0.037840
    85  H    0.026239
    86  H    0.036493
    87  H    0.026752
    88  H    0.027652
    89  H    0.020789
    90  H    0.007418
    91  H    0.020979
    92  H    0.024180
    93  H    0.027185
    94  H    0.021271
    95  H    0.037570
    96  H    0.019381
    97  H    0.034753
    98  H    0.048947
    99  H    0.040549
   100  H    0.051736
   101  H    0.046038
   102  H    0.035529
   103  H    0.061540
   104  H    0.026132
   105  H    0.030633
   106  H    0.025829
   107  H    0.027572
   108  H    0.016804
   109  H    0.020421
   110  H    0.017034
   111  H    0.020221
   112  H    0.027263
   113  H    0.010222
   114  H    0.019005
   115  H    0.015442
   116  H    0.015929
   117  H    0.015721
   118  H    0.023662
   119  H    0.024827
   120  H    0.025220
   121  H    0.012874
   122  H    0.029391
   123  H    0.013290
   124  H    0.014625
   125  H    0.021119
   126  H    0.022159
   127  H    0.017501
   128  H    0.018336
   129  H    0.012818
   130  H    0.010552
   131  H    0.015040
   132  H    0.021633
   133  H    0.014278
   134  H    0.017996
   135  H    0.020572
   136  H    0.022995
   137  H    0.018917
   138  H    0.012943
   139  H    0.025391
   140  H    0.017699
 Sum of Mulliken charges =  -0.00000

 Dipole moment (field-independent basis, Debye):
    X=             -6.4968    Y=              7.1873    Z=              0.4438  Tot=              9.6986
 N-N= 4.263378225594D+03 E-N= 0.000000000000D+00  KE=-9.201263970802D+03
 Leave Link  601 at Tue May  3 13:33:49 2022, MaxMem=  6710886400 cpu:               0.8 elap:               0.0
 (Enter /sw/apps/gaussian-16.0/g16/l9999.exe)
 1\1\GINC-BP1-COMPUTE064\SP\RZINDO CIS\STO-3G\C55H74Mg1N4O6\OF15641\03-
 May-2022\0\\#p ZINDO=(nstates=5)\\step_1001_chromophore_10 ZINDO\\0,1\
 Mg,0,40.976,7.934,29.615\C,0,42.93,9.328,32.195\C,0,38.743,6.702,31.91
 2\C,0,39.262,6.578,27.099\C,0,43.487,8.889,27.436\N,0,40.868,8.125,31.
 713\C,0,41.734,8.782,32.519\C,0,41.197,8.686,34.047\C,0,39.808,7.981,3
 3.927\C,0,39.799,7.519,32.484\C,0,39.635,6.883,34.944\C,0,41.067,10.12
 5,34.728\C,0,40.331,10.157,36.092\C,0,41.181,10.366,37.4\O,0,42.171,9.

 Normal termination of Gaussian 16 at Tue May  3 13:33:50 2022.
