 Gaussian 16, Revision A.03,
 Gaussian 16:  ES64L-G16RevA.03 25-Dec-2016

 ------------------------------
 #p blyp/Def2SVP td=(nstates=5)
 ------------------------------

 ---------------------------------------------------
 step_1401_chromophore_18 TDDFT with blyp functional
 ---------------------------------------------------
 Symbolic Z-matrix:
 Charge =  0 Multiplicity = 1

                         Standard orientation:
 ---------------------------------------------------------------------
 Center     Atomic      Atomic             Coordinates (Angstroms)
 Number     Number       Type             X           Y           Z
 ---------------------------------------------------------------------
      1         12           0        5.603225    1.213712    0.047292
      2          6           0        4.790718   -2.221557    0.030889
      3          6           0        2.175585    1.849236   -0.292753
      4          6           0        6.405891    4.319740   -0.098886
      5          6           0        9.040317    0.254576    0.099038
      6          7           0        3.693361   -0.106877    0.106150
      7          6           0        3.612910   -1.418180    0.110947
      8          6           0        2.133949   -1.872331    0.287759
      9          6           0        1.347291   -0.566807    0.014425
     10          6           0        2.456759    0.477267    0.014311
     11          6           0        0.493395   -0.574211   -1.201803
     12          6           0        1.876104   -2.511904    1.583887
     13          6           0        0.936690   -3.689890    1.587326
     14          6           0        0.098560   -4.007194    0.305472
     15          8           0        0.551165   -4.638096   -0.672073
     16          8           0       -1.248542   -3.596366    0.454509
     17          7           0        4.439916    2.874730   -0.159565
     18          6           0        3.091926    2.974661   -0.288318
     19          6           0        2.717545    4.404330   -0.267963
     20          6           0        3.919995    5.141666   -0.285726
     21          6           0        4.993430    4.058008   -0.195859
     22          6           0        1.348230    4.917910   -0.311930
     23          6           0        4.012175    6.636428   -0.347754
     24          8           0        5.133155    7.127589   -0.295023
     25          6           0        2.828477    7.590919   -0.557400
     26          7           0        7.470682    2.153000    0.022100
     27          6           0        7.586449    3.537771    0.041475
     28          6           0        8.997318    4.042718    0.241038
     29          6           0        9.797297    2.722631    0.249335
     30          6           0        8.714728    1.659437    0.208646
     31          6           0        9.384730    5.096477   -0.869880
     32          6           0       10.899334    2.586796    1.430724
     33          6           0       10.454397    1.870871    2.758865
     34          7           0        6.799849   -0.538681   -0.143221
     35          6           0        8.089163   -0.809968   -0.011602
     36          6           0        8.385203   -2.230295   -0.077614
     37          6           0        7.044490   -2.815961   -0.103820
     38          6           0        6.166093   -1.804876   -0.066613
     39          6           0        9.743247   -2.839959   -0.155724
     40          6           0        6.309778   -4.096218   -0.061566
     41          8           0        6.775579   -5.191163   -0.091227
     42          6           0        4.822857   -3.712515    0.001658
     43          6           0        4.346699   -4.224491   -1.290396
     44          8           0        4.381569   -3.639874   -2.362668
     45          8           0        3.886950   -5.525417   -1.040522
     46          6           0        3.497903   -6.326183   -2.244204
     47          6           0       -2.015642   -3.971042   -0.737139
     48          6           0       -3.296400   -3.141671   -0.638047
     49          6           0       -4.574033   -3.570374   -0.432683
     50          6           0       -5.090859   -4.994663   -0.102930
     51          6           0       -5.777384   -2.536370   -0.341637
     52          6           0       -6.352195   -2.221951    1.059528
     53          6           0       -7.253925   -0.937580    1.057331
     54          6           0       -8.654756   -1.226974    1.634863
     55          6           0       -8.559694   -1.586978    3.090113
     56          6           0       -9.532539   -0.023521    1.324385
     57          6           0      -10.511970   -0.023506    0.086623
     58          6           0      -11.912858   -0.521149    0.439125
     59          6           0      -13.082975    0.488262    0.645633
     60          6           0      -13.977867    0.133069    1.910971
     61          6           0      -13.948972    0.419387   -0.632213
     62          6           0      -14.469898    1.796272   -1.142771
     63          6           0      -16.008577    1.896236   -1.160282
     64          6           0      -16.452174    3.471015   -1.195667
     65          6           0      -16.677924    4.048322    0.226381
     66          6           0      -17.709147    3.653367   -1.996446
     67          1           0        1.104207    2.057023   -0.326476
     68          1           0        6.678038    5.376590   -0.141044
     69          1           0       10.091433   -0.036823    0.161941
     70          1           0        1.935092   -2.580793   -0.516927
     71          1           0        0.739094   -0.318610    0.884379
     72          1           0        0.704076   -1.407815   -1.871403
     73          1           0        0.789990    0.306561   -1.772719
     74          1           0       -0.576303   -0.652718   -1.009364
     75          1           0        1.401537   -1.749576    2.200658
     76          1           0        2.813913   -2.718701    2.101356
     77          1           0        0.311876   -3.652064    2.479172
     78          1           0        1.612174   -4.540639    1.686709
     79          1           0        1.209451    5.614672    0.513676
     80          1           0        0.663966    4.101000   -0.083907
     81          1           0        1.013466    5.350025   -1.255708
     82          1           0        2.139559    7.345275   -1.365670
     83          1           0        3.181500    8.611694   -0.708148
     84          1           0        2.248258    7.594987    0.364738
     85          1           0        8.938493    4.463290    1.244827
     86          1           0       10.308438    2.617244   -0.707628
     87          1           0        8.643108    5.804831   -1.240309
     88          1           0        9.637832    4.491202   -1.740900
     89          1           0       10.258788    5.712932   -0.657861
     90          1           0       11.238619    3.560962    1.783535
     91          1           0       11.725341    2.004723    1.021855
     92          1           0        9.390406    1.668400    2.886423
     93          1           0       10.640456    2.636138    3.511537
     94          1           0       10.987738    0.944236    2.971607
     95          1           0       10.173150   -2.955891    0.839101
     96          1           0       10.397925   -2.299977   -0.839550
     97          1           0        9.653331   -3.871887   -0.494854
     98          1           0        4.422714   -4.197457    0.892833
     99          1           0        4.300788   -7.059054   -2.323972
    100          1           0        3.344192   -5.674243   -3.103965
    101          1           0        2.524731   -6.782219   -2.061158
    102          1           0       -2.297147   -5.008485   -0.556284
    103          1           0       -1.583699   -3.809654   -1.724640
    104          1           0       -3.131504   -2.066971   -0.564190
    105          1           0       -4.307532   -5.694809    0.187455
    106          1           0       -5.648330   -5.484641   -0.900846
    107          1           0       -5.815540   -5.004321    0.711949
    108          1           0       -6.598139   -2.971956   -0.912096
    109          1           0       -5.533903   -1.683908   -0.976236
    110          1           0       -5.579546   -1.976714    1.788614
    111          1           0       -6.908666   -3.031973    1.531329
    112          1           0       -7.368521   -0.615954    0.022697
    113          1           0       -6.653509   -0.207342    1.600130
    114          1           0       -9.038559   -2.035991    1.013489
    115          1           0       -8.412678   -2.664203    3.174614
    116          1           0       -9.496703   -1.312804    3.574469
    117          1           0       -7.787960   -1.060409    3.651181
    118          1           0       -8.989163    0.909834    1.177602
    119          1           0      -10.208810    0.181925    2.154249
    120          1           0      -10.054534   -0.655278   -0.674428
    121          1           0      -10.416449    1.031598   -0.166225
    122          1           0      -11.874411   -1.094362    1.365235
    123          1           0      -12.076492   -1.236830   -0.366039
    124          1           0      -12.730785    1.509673    0.788013
    125          1           0      -13.647827    0.820828    2.688688
    126          1           0      -13.959741   -0.916136    2.204361
    127          1           0      -15.018473    0.441193    1.809147
    128          1           0      -14.836786   -0.179714   -0.433693
    129          1           0      -13.505499   -0.038141   -1.516297
    130          1           0      -14.114852    1.943979   -2.163208
    131          1           0      -14.130259    2.585173   -0.471900
    132          1           0      -16.404151    1.448724   -0.248808
    133          1           0      -16.371620    1.321261   -2.012728
    134          1           0      -15.655783    4.112303   -1.573631
    135          1           0      -16.322386    3.352954    0.986597
    136          1           0      -17.732377    4.154836    0.482014
    137          1           0      -16.288153    5.061549    0.330659
    138          1           0      -17.416120    3.846171   -3.027507
    139          1           0      -18.239804    4.539047   -1.647972
    140          1           0      -18.354393    2.778777   -1.904998
 ---------------------------------------------------------------------

 SCF Done:  E(RB-LYP) =  -3007.38206269     A.U. after   21 cycles

 Excitation energies and oscillator strengths:

 Excited State   1:      Singlet-A      1.8104 eV  684.85 nm  f=0.2907  <S**2>=0.000
     245 -> 248       -0.20515
     246 -> 247        0.68341
     246 <- 247       -0.14550
 This state for optimization and/or second-order correction.
 Total Energy, E(TD-HF/TD-DFT) =  -3007.31553221
 Copying the excited state density for this state as the 1-particle RhoCI density.

 Excited State   2:      Singlet-A      1.9748 eV  627.85 nm  f=0.0787  <S**2>=0.000
     244 -> 247       -0.17697
     245 -> 247        0.62747
     246 -> 248        0.21598

 Excited State   3:      Singlet-A      2.0001 eV  619.90 nm  f=0.0067  <S**2>=0.000
     244 -> 247        0.68393
     245 -> 247        0.15943

 Excited State   4:      Singlet-A      2.1831 eV  567.92 nm  f=0.0043  <S**2>=0.000
     243 -> 247        0.69723

 Excited State   5:      Singlet-A      2.4909 eV  497.75 nm  f=0.0073  <S**2>=0.000
     242 -> 247        0.67648
     246 -> 249        0.14109

 The electronic state is 1-A.
 Alpha  occ. eigenvalues --  -46.27459 -18.83336 -18.80361 -18.78435 -18.76313
 Alpha  occ. eigenvalues --  -18.75843 -18.74904 -14.02970 -14.02746 -14.01568
 Alpha  occ. eigenvalues --  -13.99892 -10.05472 -10.03104  -9.99679  -9.99412
 Alpha  occ. eigenvalues --   -9.98243  -9.96245  -9.96221  -9.96136  -9.96130
 Alpha  occ. eigenvalues --   -9.96105  -9.96066  -9.95768  -9.94485  -9.94282
 Alpha  occ. eigenvalues --   -9.94243  -9.93995  -9.93954  -9.93787  -9.93334
 Alpha  occ. eigenvalues --   -9.93298  -9.93258  -9.93242  -9.93186  -9.93185
 Alpha  occ. eigenvalues --   -9.93176  -9.93039  -9.93009  -9.92696  -9.92669
 Alpha  occ. eigenvalues --   -9.92646  -9.92581  -9.92447  -9.92380  -9.92331
 Alpha  occ. eigenvalues --   -9.92163  -9.92114  -9.91987  -9.91960  -9.91936
 Alpha  occ. eigenvalues --   -9.91851  -9.91648  -9.91609  -9.91564  -9.91387
 Alpha  occ. eigenvalues --   -9.91373  -9.91368  -9.91342  -9.91168  -9.91030
 Alpha  occ. eigenvalues --   -9.90776  -9.90652  -9.90570  -9.90534  -9.90412
 Alpha  occ. eigenvalues --   -9.90356  -2.92011  -1.72443  -1.71912  -1.71707
 Alpha  occ. eigenvalues --   -0.97384  -0.95485  -0.93010  -0.91113  -0.90162
 Alpha  occ. eigenvalues --   -0.88602  -0.86981  -0.86384  -0.85817  -0.84840
 Alpha  occ. eigenvalues --   -0.75978  -0.74185  -0.73633  -0.72411  -0.71801
 Alpha  occ. eigenvalues --   -0.71640  -0.71430  -0.70936  -0.70703  -0.70094
 Alpha  occ. eigenvalues --   -0.68833  -0.68580  -0.68113  -0.66952  -0.66905
 Alpha  occ. eigenvalues --   -0.66196  -0.65278  -0.64935  -0.64446  -0.64146
 Alpha  occ. eigenvalues --   -0.63490  -0.62491  -0.62302  -0.61321  -0.60431
 Alpha  occ. eigenvalues --   -0.60206  -0.59989  -0.59800  -0.59622  -0.58827
 Alpha  occ. eigenvalues --   -0.57959  -0.56981  -0.56530  -0.55622  -0.54666
 Alpha  occ. eigenvalues --   -0.54181  -0.53411  -0.52747  -0.52073  -0.51574
 Alpha  occ. eigenvalues --   -0.50696  -0.50655  -0.50177  -0.50130  -0.50058
 Alpha  occ. eigenvalues --   -0.49506  -0.49184  -0.48655  -0.47210  -0.46919
 Alpha  occ. eigenvalues --   -0.46503  -0.45864  -0.45096  -0.44789  -0.44529
 Alpha  occ. eigenvalues --   -0.43811  -0.43578  -0.42886  -0.42665  -0.42235
 Alpha  occ. eigenvalues --   -0.41895  -0.41624  -0.41458  -0.41301  -0.40817
 Alpha  occ. eigenvalues --   -0.40606  -0.40360  -0.40316  -0.40052  -0.39891
 Alpha  occ. eigenvalues --   -0.39807  -0.39719  -0.39464  -0.39271  -0.39129
 Alpha  occ. eigenvalues --   -0.38793  -0.38504  -0.38368  -0.38041  -0.37833
 Alpha  occ. eigenvalues --   -0.37539  -0.37308  -0.37223  -0.37002  -0.36879
 Alpha  occ. eigenvalues --   -0.36709  -0.36657  -0.36520  -0.36360  -0.36168
 Alpha  occ. eigenvalues --   -0.36147  -0.36045  -0.35945  -0.35878  -0.35547
 Alpha  occ. eigenvalues --   -0.35248  -0.35060  -0.34776  -0.34541  -0.34461
 Alpha  occ. eigenvalues --   -0.34335  -0.34210  -0.34207  -0.33993  -0.33857
 Alpha  occ. eigenvalues --   -0.33653  -0.33495  -0.33257  -0.33160  -0.32999
 Alpha  occ. eigenvalues --   -0.32806  -0.32663  -0.32577  -0.32496  -0.32395
 Alpha  occ. eigenvalues --   -0.32313  -0.32194  -0.31828  -0.31765  -0.31630
 Alpha  occ. eigenvalues --   -0.31392  -0.31158  -0.30918  -0.30723  -0.30588
 Alpha  occ. eigenvalues --   -0.30514  -0.30480  -0.30255  -0.30202  -0.29585
 Alpha  occ. eigenvalues --   -0.29512  -0.29202  -0.29012  -0.28885  -0.28792
 Alpha  occ. eigenvalues --   -0.28389  -0.28346  -0.28220  -0.28178  -0.27652
 Alpha  occ. eigenvalues --   -0.27427  -0.27258  -0.27187  -0.26749  -0.26510
 Alpha  occ. eigenvalues --   -0.26492  -0.26031  -0.25905  -0.25783  -0.25648
 Alpha  occ. eigenvalues --   -0.25147  -0.25070  -0.23791  -0.23497  -0.23213
 Alpha  occ. eigenvalues --   -0.23174  -0.23051  -0.21758  -0.21431  -0.20828
 Alpha  occ. eigenvalues --   -0.20738  -0.19329  -0.18829  -0.18195  -0.16412
 Alpha  occ. eigenvalues --   -0.15246
 Alpha virt. eigenvalues --   -0.10929  -0.06487  -0.05692  -0.04918  -0.04291
 Alpha virt. eigenvalues --   -0.02591  -0.01887  -0.01317  -0.00594   0.00593
 Alpha virt. eigenvalues --    0.01436   0.01817   0.02349   0.02503   0.02762

 Mulliken charges:
               1
     1  Mg   0.702517
     2  C   -0.014498
     3  C   -0.062827
     4  C   -0.050153
     5  C   -0.079118
     6  N   -0.156186
     7  C   -0.128387
     8  C   -0.001267
     9  C    0.017831
    10  C   -0.028170
    11  C    0.145794
    12  C    0.156167
    13  C    0.176735
    14  C    0.096357
    15  O   -0.212215
    16  O   -0.285868
    17  N   -0.250525
    18  C    0.115028
    19  C   -0.162990
    20  C    0.057672
    21  C    0.096808
    22  C    0.191847
    23  C   -0.095400
    24  O   -0.170246
    25  C    0.145059
    26  N   -0.231744
    27  C   -0.055531
    28  C    0.119802
    29  C    0.049545
    30  C    0.016782
    31  C    0.101045
    32  C    0.067337
    33  C    0.045264
    34  N   -0.243972
    35  C    0.093030
    36  C   -0.191261
    37  C    0.073584
    38  C    0.133489
    39  C    0.178300
    40  C   -0.125576
    41  O   -0.082316
    42  C    0.079099
    43  C    0.146640
    44  O   -0.175251
    45  O   -0.301477
    46  C    0.205587
    47  C    0.330676
    48  C   -0.107559
    49  C   -0.098832
    50  C    0.117467
    51  C    0.101930
    52  C    0.086824
    53  C    0.061064
    54  C   -0.030765
    55  C    0.135951
    56  C    0.067754
    57  C    0.067017
    58  C    0.127006
    59  C   -0.051237
    60  C    0.093647
    61  C    0.112570
    62  C    0.042490
    63  C    0.075289
    64  C   -0.095874
    65  C    0.090709
    66  C    0.127219
    67  H   -0.052579
    68  H   -0.052395
    69  H   -0.071808
    70  H    0.000608
    71  H   -0.031537
    72  H   -0.008322
    73  H   -0.014128
    74  H   -0.007093
    75  H   -0.040889
    76  H   -0.021528
    77  H   -0.010575
    78  H    0.001475
    79  H   -0.010465
    80  H   -0.033022
    81  H    0.012823
    82  H    0.003902
    83  H   -0.008638
    84  H   -0.003906
    85  H   -0.018359
    86  H   -0.018185
    87  H    0.015631
    88  H   -0.017381
    89  H   -0.009045
    90  H   -0.010781
    91  H   -0.013409
    92  H   -0.000218
    93  H   -0.016408
    94  H    0.001510
    95  H   -0.002222
    96  H    0.005762
    97  H   -0.003378
    98  H    0.000964
    99  H    0.026682
   100  H    0.022546
   101  H    0.018350
   102  H   -0.017346
   103  H    0.024746
   104  H   -0.033201
   105  H   -0.014721
   106  H   -0.004471
   107  H   -0.007567
   108  H   -0.034663
   109  H   -0.028445
   110  H   -0.036240
   111  H   -0.027112
   112  H   -0.032120
   113  H   -0.026993
   114  H   -0.046699
   115  H   -0.011617
   116  H   -0.022546
   117  H   -0.016199
   118  H   -0.047057
   119  H   -0.051866
   120  H   -0.037138
   121  H   -0.029617
   122  H   -0.041654
   123  H   -0.032588
   124  H   -0.030802
   125  H   -0.019974
   126  H   -0.000848
   127  H   -0.021391
   128  H   -0.040724
   129  H   -0.039009
   130  H   -0.026149
   131  H   -0.027829
   132  H   -0.029184
   133  H   -0.027641
   134  H   -0.032464
   135  H   -0.022629
   136  H   -0.030172
   137  H   -0.012266
   138  H   -0.020361
   139  H   -0.027138
   140  H   -0.009980
 Sum of Mulliken charges =  -0.00000

 Dipole moment (field-independent basis, Debye):
    X=             -4.5314    Y=              1.3763    Z=              2.7355  Tot=              5.4691
 Quadrupole moment (field-independent basis, Debye-Ang):
   XX=           -385.3078   YY=           -425.4251   ZZ=           -405.4584
   XY=             20.3425   XZ=             12.6030   YZ=             -2.0666

 Normal termination of Gaussian 16 at Thu Apr 28 02:56:19 2022.
