 Gaussian 16, Revision A.03,
 Gaussian 16:  ES64L-G16RevA.03 25-Dec-2016

 -----------------------------------
 #p cam-b3lyp/Def2SVP td=(nstates=5)
 -----------------------------------

 --------------------------------------------------------
 step_1401_chromophore_18 TDDFT with cam-b3lyp functional
 --------------------------------------------------------
 Symbolic Z-matrix:
 Charge =  0 Multiplicity = 1

                         Standard orientation:
 ---------------------------------------------------------------------
 Center     Atomic      Atomic             Coordinates (Angstroms)
 Number     Number       Type             X           Y           Z
 ---------------------------------------------------------------------
      1         12           0        5.603225    1.213712    0.047292
      2          6           0        4.790718   -2.221557    0.030889
      3          6           0        2.175585    1.849236   -0.292753
      4          6           0        6.405891    4.319740   -0.098886
      5          6           0        9.040317    0.254576    0.099038
      6          7           0        3.693361   -0.106877    0.106150
      7          6           0        3.612910   -1.418180    0.110947
      8          6           0        2.133949   -1.872331    0.287759
      9          6           0        1.347291   -0.566807    0.014425
     10          6           0        2.456759    0.477267    0.014311
     11          6           0        0.493395   -0.574211   -1.201803
     12          6           0        1.876104   -2.511904    1.583887
     13          6           0        0.936690   -3.689890    1.587326
     14          6           0        0.098560   -4.007194    0.305472
     15          8           0        0.551165   -4.638096   -0.672073
     16          8           0       -1.248542   -3.596366    0.454509
     17          7           0        4.439916    2.874730   -0.159565
     18          6           0        3.091926    2.974661   -0.288318
     19          6           0        2.717545    4.404330   -0.267963
     20          6           0        3.919995    5.141666   -0.285726
     21          6           0        4.993430    4.058008   -0.195859
     22          6           0        1.348230    4.917910   -0.311930
     23          6           0        4.012175    6.636428   -0.347754
     24          8           0        5.133155    7.127589   -0.295023
     25          6           0        2.828477    7.590919   -0.557400
     26          7           0        7.470682    2.153000    0.022100
     27          6           0        7.586449    3.537771    0.041475
     28          6           0        8.997318    4.042718    0.241038
     29          6           0        9.797297    2.722631    0.249335
     30          6           0        8.714728    1.659437    0.208646
     31          6           0        9.384730    5.096477   -0.869880
     32          6           0       10.899334    2.586796    1.430724
     33          6           0       10.454397    1.870871    2.758865
     34          7           0        6.799849   -0.538681   -0.143221
     35          6           0        8.089163   -0.809968   -0.011602
     36          6           0        8.385203   -2.230295   -0.077614
     37          6           0        7.044490   -2.815961   -0.103820
     38          6           0        6.166093   -1.804876   -0.066613
     39          6           0        9.743247   -2.839959   -0.155724
     40          6           0        6.309778   -4.096218   -0.061566
     41          8           0        6.775579   -5.191163   -0.091227
     42          6           0        4.822857   -3.712515    0.001658
     43          6           0        4.346699   -4.224491   -1.290396
     44          8           0        4.381569   -3.639874   -2.362668
     45          8           0        3.886950   -5.525417   -1.040522
     46          6           0        3.497903   -6.326183   -2.244204
     47          6           0       -2.015642   -3.971042   -0.737139
     48          6           0       -3.296400   -3.141671   -0.638047
     49          6           0       -4.574033   -3.570374   -0.432683
     50          6           0       -5.090859   -4.994663   -0.102930
     51          6           0       -5.777384   -2.536370   -0.341637
     52          6           0       -6.352195   -2.221951    1.059528
     53          6           0       -7.253925   -0.937580    1.057331
     54          6           0       -8.654756   -1.226974    1.634863
     55          6           0       -8.559694   -1.586978    3.090113
     56          6           0       -9.532539   -0.023521    1.324385
     57          6           0      -10.511970   -0.023506    0.086623
     58          6           0      -11.912858   -0.521149    0.439125
     59          6           0      -13.082975    0.488262    0.645633
     60          6           0      -13.977867    0.133069    1.910971
     61          6           0      -13.948972    0.419387   -0.632213
     62          6           0      -14.469898    1.796272   -1.142771
     63          6           0      -16.008577    1.896236   -1.160282
     64          6           0      -16.452174    3.471015   -1.195667
     65          6           0      -16.677924    4.048322    0.226381
     66          6           0      -17.709147    3.653367   -1.996446
     67          1           0        1.104207    2.057023   -0.326476
     68          1           0        6.678038    5.376590   -0.141044
     69          1           0       10.091433   -0.036823    0.161941
     70          1           0        1.935092   -2.580793   -0.516927
     71          1           0        0.739094   -0.318610    0.884379
     72          1           0        0.704076   -1.407815   -1.871403
     73          1           0        0.789990    0.306561   -1.772719
     74          1           0       -0.576303   -0.652718   -1.009364
     75          1           0        1.401537   -1.749576    2.200658
     76          1           0        2.813913   -2.718701    2.101356
     77          1           0        0.311876   -3.652064    2.479172
     78          1           0        1.612174   -4.540639    1.686709
     79          1           0        1.209451    5.614672    0.513676
     80          1           0        0.663966    4.101000   -0.083907
     81          1           0        1.013466    5.350025   -1.255708
     82          1           0        2.139559    7.345275   -1.365670
     83          1           0        3.181500    8.611694   -0.708148
     84          1           0        2.248258    7.594987    0.364738
     85          1           0        8.938493    4.463290    1.244827
     86          1           0       10.308438    2.617244   -0.707628
     87          1           0        8.643108    5.804831   -1.240309
     88          1           0        9.637832    4.491202   -1.740900
     89          1           0       10.258788    5.712932   -0.657861
     90          1           0       11.238619    3.560962    1.783535
     91          1           0       11.725341    2.004723    1.021855
     92          1           0        9.390406    1.668400    2.886423
     93          1           0       10.640456    2.636138    3.511537
     94          1           0       10.987738    0.944236    2.971607
     95          1           0       10.173150   -2.955891    0.839101
     96          1           0       10.397925   -2.299977   -0.839550
     97          1           0        9.653331   -3.871887   -0.494854
     98          1           0        4.422714   -4.197457    0.892833
     99          1           0        4.300788   -7.059054   -2.323972
    100          1           0        3.344192   -5.674243   -3.103965
    101          1           0        2.524731   -6.782219   -2.061158
    102          1           0       -2.297147   -5.008485   -0.556284
    103          1           0       -1.583699   -3.809654   -1.724640
    104          1           0       -3.131504   -2.066971   -0.564190
    105          1           0       -4.307532   -5.694809    0.187455
    106          1           0       -5.648330   -5.484641   -0.900846
    107          1           0       -5.815540   -5.004321    0.711949
    108          1           0       -6.598139   -2.971956   -0.912096
    109          1           0       -5.533903   -1.683908   -0.976236
    110          1           0       -5.579546   -1.976714    1.788614
    111          1           0       -6.908666   -3.031973    1.531329
    112          1           0       -7.368521   -0.615954    0.022697
    113          1           0       -6.653509   -0.207342    1.600130
    114          1           0       -9.038559   -2.035991    1.013489
    115          1           0       -8.412678   -2.664203    3.174614
    116          1           0       -9.496703   -1.312804    3.574469
    117          1           0       -7.787960   -1.060409    3.651181
    118          1           0       -8.989163    0.909834    1.177602
    119          1           0      -10.208810    0.181925    2.154249
    120          1           0      -10.054534   -0.655278   -0.674428
    121          1           0      -10.416449    1.031598   -0.166225
    122          1           0      -11.874411   -1.094362    1.365235
    123          1           0      -12.076492   -1.236830   -0.366039
    124          1           0      -12.730785    1.509673    0.788013
    125          1           0      -13.647827    0.820828    2.688688
    126          1           0      -13.959741   -0.916136    2.204361
    127          1           0      -15.018473    0.441193    1.809147
    128          1           0      -14.836786   -0.179714   -0.433693
    129          1           0      -13.505499   -0.038141   -1.516297
    130          1           0      -14.114852    1.943979   -2.163208
    131          1           0      -14.130259    2.585173   -0.471900
    132          1           0      -16.404151    1.448724   -0.248808
    133          1           0      -16.371620    1.321261   -2.012728
    134          1           0      -15.655783    4.112303   -1.573631
    135          1           0      -16.322386    3.352954    0.986597
    136          1           0      -17.732377    4.154836    0.482014
    137          1           0      -16.288153    5.061549    0.330659
    138          1           0      -17.416120    3.846171   -3.027507
    139          1           0      -18.239804    4.539047   -1.647972
    140          1           0      -18.354393    2.778777   -1.904998
 ---------------------------------------------------------------------

 SCF Done:  E(RCAM-B3LYP) =  -3007.16934444     A.U. after   17 cycles

 Excitation energies and oscillator strengths:

 Excited State   1:      Singlet-A      1.7067 eV  726.44 nm  f=0.3728  <S**2>=0.000
     245 -> 248       -0.19404
     246 -> 247        0.68158
     245 <- 248       -0.11022
 This state for optimization and/or second-order correction.
 Total Energy, E(TD-HF/TD-DFT) =  -3007.10662342
 Copying the excited state density for this state as the 1-particle RhoCI density.

 Excited State   2:      Singlet-A      2.1798 eV  568.80 nm  f=0.1361  <S**2>=0.000
     245 -> 247        0.64512
     246 -> 248        0.27807

 Excited State   3:      Singlet-A      3.2476 eV  381.77 nm  f=0.0003  <S**2>=0.000
     244 -> 247        0.67697
     246 -> 248       -0.12628

 Excited State   4:      Singlet-A      3.5209 eV  352.13 nm  f=0.7489  <S**2>=0.000
     244 -> 247        0.11330
     245 -> 247       -0.28456
     246 -> 248        0.62491
     245 <- 247        0.11509

 Excited State   5:      Singlet-A      3.6743 eV  337.44 nm  f=0.0177  <S**2>=0.000
     239 -> 247        0.47536
     239 -> 249        0.21364
     239 -> 250        0.14517
     240 -> 247        0.32978
     240 -> 249        0.16134
     240 -> 250        0.11001
     243 -> 247        0.10262

 The electronic state is 1-A.
 Alpha  occ. eigenvalues --  -46.88989 -19.26214 -19.23293 -19.21461 -19.19490
 Alpha  occ. eigenvalues --  -19.19137 -19.18129 -14.41939 -14.41468 -14.40071
 Alpha  occ. eigenvalues --  -14.38199 -10.40983 -10.38693 -10.34868 -10.34713
 Alpha  occ. eigenvalues --  -10.32307 -10.30681 -10.30662 -10.30627 -10.30522
 Alpha  occ. eigenvalues --  -10.30506 -10.30146 -10.30022 -10.28689 -10.28494
 Alpha  occ. eigenvalues --  -10.28127 -10.28095 -10.28014 -10.27855 -10.27848
 Alpha  occ. eigenvalues --  -10.27721 -10.27589 -10.27572 -10.27496 -10.27114
 Alpha  occ. eigenvalues --  -10.27099 -10.27082 -10.26874 -10.26695 -10.26573
 Alpha  occ. eigenvalues --  -10.26462 -10.26442 -10.26384 -10.26342 -10.26311
 Alpha  occ. eigenvalues --  -10.26037 -10.25980 -10.25718 -10.25643 -10.25579
 Alpha  occ. eigenvalues --  -10.25553 -10.25496 -10.25287 -10.25221 -10.25114
 Alpha  occ. eigenvalues --  -10.25045 -10.25037 -10.25024 -10.24747 -10.24687
 Alpha  occ. eigenvalues --  -10.24529 -10.24444 -10.24261 -10.24247 -10.24197
 Alpha  occ. eigenvalues --  -10.23975  -3.17445  -1.92355  -1.91914  -1.91736
 Alpha  occ. eigenvalues --   -1.15774  -1.14109  -1.11550  -1.09526  -1.08011
 Alpha  occ. eigenvalues --   -1.06522  -1.04707  -1.04075  -1.03416  -1.02347
 Alpha  occ. eigenvalues --   -0.93235  -0.91094  -0.90480  -0.89179  -0.88515
 Alpha  occ. eigenvalues --   -0.88396  -0.87973  -0.87616  -0.87288  -0.86614
 Alpha  occ. eigenvalues --   -0.85236  -0.84959  -0.84390  -0.83135  -0.83006
 Alpha  occ. eigenvalues --   -0.82254  -0.81280  -0.80963  -0.80399  -0.79929
 Alpha  occ. eigenvalues --   -0.79211  -0.78157  -0.78073  -0.76733  -0.75764
 Alpha  occ. eigenvalues --   -0.75566  -0.75304  -0.75147  -0.74856  -0.74056
 Alpha  occ. eigenvalues --   -0.73009  -0.71934  -0.71435  -0.70454  -0.69257
 Alpha  occ. eigenvalues --   -0.68776  -0.68057  -0.67219  -0.66433  -0.65828
 Alpha  occ. eigenvalues --   -0.64902  -0.64632  -0.64186  -0.64053  -0.63992
 Alpha  occ. eigenvalues --   -0.63440  -0.63149  -0.62521  -0.61037  -0.60508
 Alpha  occ. eigenvalues --   -0.60134  -0.59427  -0.58574  -0.58413  -0.57916
 Alpha  occ. eigenvalues --   -0.57220  -0.56915  -0.56223  -0.55708  -0.55127
 Alpha  occ. eigenvalues --   -0.54910  -0.54809  -0.54524  -0.54181  -0.53724
 Alpha  occ. eigenvalues --   -0.53298  -0.53087  -0.52904  -0.52815  -0.52571
 Alpha  occ. eigenvalues --   -0.52523  -0.52401  -0.52322  -0.52240  -0.51775
 Alpha  occ. eigenvalues --   -0.51483  -0.51098  -0.50890  -0.50765  -0.50174
 Alpha  occ. eigenvalues --   -0.50023  -0.49693  -0.49434  -0.49347  -0.49191
 Alpha  occ. eigenvalues --   -0.49169  -0.49000  -0.48888  -0.48582  -0.48391
 Alpha  occ. eigenvalues --   -0.48301  -0.48191  -0.48122  -0.48053  -0.47903
 Alpha  occ. eigenvalues --   -0.47429  -0.47062  -0.46802  -0.46572  -0.46357
 Alpha  occ. eigenvalues --   -0.46194  -0.46141  -0.45931  -0.45857  -0.45728
 Alpha  occ. eigenvalues --   -0.45443  -0.45345  -0.45202  -0.44945  -0.44651
 Alpha  occ. eigenvalues --   -0.44495  -0.44319  -0.44196  -0.44137  -0.44051
 Alpha  occ. eigenvalues --   -0.43890  -0.43772  -0.43548  -0.43401  -0.43224
 Alpha  occ. eigenvalues --   -0.43042  -0.42836  -0.42498  -0.42228  -0.42027
 Alpha  occ. eigenvalues --   -0.41907  -0.41753  -0.41589  -0.41440  -0.40889
 Alpha  occ. eigenvalues --   -0.40719  -0.40554  -0.40424  -0.40020  -0.39889
 Alpha  occ. eigenvalues --   -0.39816  -0.39366  -0.39147  -0.39021  -0.38604
 Alpha  occ. eigenvalues --   -0.38506  -0.38075  -0.38004  -0.37663  -0.37543
 Alpha  occ. eigenvalues --   -0.37371  -0.37237  -0.36568  -0.36401  -0.36343
 Alpha  occ. eigenvalues --   -0.35964  -0.35598  -0.35460  -0.34983  -0.34407
 Alpha  occ. eigenvalues --   -0.34023  -0.33406  -0.32779  -0.30720  -0.30685
 Alpha  occ. eigenvalues --   -0.30595  -0.30563  -0.29936  -0.28441  -0.22963
 Alpha  occ. eigenvalues --   -0.20557
 Alpha virt. eigenvalues --   -0.08047  -0.01201   0.00793   0.02656   0.02867
 Alpha virt. eigenvalues --    0.03309   0.04965   0.05600   0.06514   0.07208
 Alpha virt. eigenvalues --    0.08347   0.08601   0.08860   0.08895   0.09072

 Mulliken charges:
               1
     1  Mg   0.835206
     2  C   -0.043594
     3  C   -0.071670
     4  C   -0.071994
     5  C   -0.084673
     6  N   -0.222767
     7  C   -0.078540
     8  C   -0.056069
     9  C   -0.038615
    10  C   -0.005923
    11  C    0.083074
    12  C    0.100196
    13  C    0.112380
    14  C    0.169584
    15  O   -0.252655
    16  O   -0.348227
    17  N   -0.340504
    18  C    0.118104
    19  C   -0.167067
    20  C   -0.009419
    21  C    0.125787
    22  C    0.127585
    23  C   -0.020556
    24  O   -0.212171
    25  C    0.066361
    26  N   -0.306553
    27  C   -0.027306
    28  C    0.053814
    29  C   -0.007607
    30  C    0.036453
    31  C    0.045924
    32  C    0.016253
    33  C   -0.015082
    34  N   -0.329386
    35  C    0.097661
    36  C   -0.182557
    37  C   -0.003815
    38  C    0.165615
    39  C    0.122344
    40  C   -0.024555
    41  O   -0.119382
    42  C   -0.000896
    43  C    0.233528
    44  O   -0.211973
    45  O   -0.364963
    46  C    0.169881
    47  C    0.292407
    48  C   -0.122163
    49  C   -0.123698
    50  C    0.057762
    51  C    0.043344
    52  C    0.034924
    53  C    0.013659
    54  C   -0.093964
    55  C    0.074257
    56  C    0.016769
    57  C    0.017541
    58  C    0.069517
    59  C   -0.109342
    60  C    0.039250
    61  C    0.057519
    62  C   -0.007319
    63  C    0.024625
    64  C   -0.153760
    65  C    0.030448
    66  C    0.064144
    67  H   -0.018025
    68  H   -0.014130
    69  H   -0.036598
    70  H    0.032447
    71  H    0.004853
    72  H    0.017653
    73  H    0.013904
    74  H    0.015777
    75  H   -0.007952
    76  H    0.011469
    77  H    0.025295
    78  H    0.032666
    79  H    0.016671
    80  H   -0.003795
    81  H    0.039511
    82  H    0.031655
    83  H    0.027524
    84  H    0.023854
    85  H    0.016584
    86  H    0.018106
    87  H    0.040272
    88  H    0.006121
    89  H    0.015929
    90  H    0.017070
    91  H    0.013647
    92  H    0.022786
    93  H    0.006807
    94  H    0.024496
    95  H    0.024452
    96  H    0.029932
    97  H    0.024855
    98  H    0.043662
    99  H    0.048415
   100  H    0.048118
   101  H    0.040123
   102  H    0.011655
   103  H    0.052350
   104  H   -0.002181
   105  H    0.009949
   106  H    0.020969
   107  H    0.016533
   108  H   -0.005983
   109  H    0.002007
   110  H   -0.006542
   111  H   -0.002379
   112  H   -0.005189
   113  H    0.001455
   114  H   -0.014547
   115  H    0.012345
   116  H    0.002630
   117  H    0.008578
   118  H   -0.016658
   119  H   -0.023972
   120  H   -0.009440
   121  H   -0.001268
   122  H   -0.014192
   123  H   -0.003243
   124  H    0.000183
   125  H    0.004225
   126  H    0.022560
   127  H    0.000342
   128  H   -0.011054
   129  H   -0.008820
   130  H    0.001979
   131  H   -0.003095
   132  H   -0.004393
   133  H    0.000846
   134  H   -0.000672
   135  H   -0.000296
   136  H   -0.004552
   137  H    0.012268
   138  H    0.004451
   139  H   -0.001507
   140  H    0.013351
 Sum of Mulliken charges =  -0.00000

 Dipole moment (field-independent basis, Debye):
    X=             -4.9629    Y=              1.6910    Z=              2.8397  Tot=              5.9628
 Quadrupole moment (field-independent basis, Debye-Ang):
   XX=           -386.1721   YY=           -420.9454   ZZ=           -405.3940
   XY=             20.0703   XZ=             13.3074   YZ=             -2.3600

 Normal termination of Gaussian 16 at Thu Apr 28 01:49:53 2022.
