 Gaussian 16, Revision A.03,
 Gaussian 16:  ES64L-G16RevA.03 25-Dec-2016

 ---------------------------------
 #p PBE1PBE/Def2SVP td=(nstates=5)
 ---------------------------------

 ------------------------------------------------------
 step_1401_chromophore_18 TDDFT with PBE1PBE functional
 ------------------------------------------------------
 Symbolic Z-matrix:
 Charge =  0 Multiplicity = 1

                         Standard orientation:
 ---------------------------------------------------------------------
 Center     Atomic      Atomic             Coordinates (Angstroms)
 Number     Number       Type             X           Y           Z
 ---------------------------------------------------------------------
      1         12           0        5.603225    1.213712    0.047292
      2          6           0        4.790718   -2.221557    0.030889
      3          6           0        2.175585    1.849236   -0.292753
      4          6           0        6.405891    4.319740   -0.098886
      5          6           0        9.040317    0.254576    0.099038
      6          7           0        3.693361   -0.106877    0.106150
      7          6           0        3.612910   -1.418180    0.110947
      8          6           0        2.133949   -1.872331    0.287759
      9          6           0        1.347291   -0.566807    0.014425
     10          6           0        2.456759    0.477267    0.014311
     11          6           0        0.493395   -0.574211   -1.201803
     12          6           0        1.876104   -2.511904    1.583887
     13          6           0        0.936690   -3.689890    1.587326
     14          6           0        0.098560   -4.007194    0.305472
     15          8           0        0.551165   -4.638096   -0.672073
     16          8           0       -1.248542   -3.596366    0.454509
     17          7           0        4.439916    2.874730   -0.159565
     18          6           0        3.091926    2.974661   -0.288318
     19          6           0        2.717545    4.404330   -0.267963
     20          6           0        3.919995    5.141666   -0.285726
     21          6           0        4.993430    4.058008   -0.195859
     22          6           0        1.348230    4.917910   -0.311930
     23          6           0        4.012175    6.636428   -0.347754
     24          8           0        5.133155    7.127589   -0.295023
     25          6           0        2.828477    7.590919   -0.557400
     26          7           0        7.470682    2.153000    0.022100
     27          6           0        7.586449    3.537771    0.041475
     28          6           0        8.997318    4.042718    0.241038
     29          6           0        9.797297    2.722631    0.249335
     30          6           0        8.714728    1.659437    0.208646
     31          6           0        9.384730    5.096477   -0.869880
     32          6           0       10.899334    2.586796    1.430724
     33          6           0       10.454397    1.870871    2.758865
     34          7           0        6.799849   -0.538681   -0.143221
     35          6           0        8.089163   -0.809968   -0.011602
     36          6           0        8.385203   -2.230295   -0.077614
     37          6           0        7.044490   -2.815961   -0.103820
     38          6           0        6.166093   -1.804876   -0.066613
     39          6           0        9.743247   -2.839959   -0.155724
     40          6           0        6.309778   -4.096218   -0.061566
     41          8           0        6.775579   -5.191163   -0.091227
     42          6           0        4.822857   -3.712515    0.001658
     43          6           0        4.346699   -4.224491   -1.290396
     44          8           0        4.381569   -3.639874   -2.362668
     45          8           0        3.886950   -5.525417   -1.040522
     46          6           0        3.497903   -6.326183   -2.244204
     47          6           0       -2.015642   -3.971042   -0.737139
     48          6           0       -3.296400   -3.141671   -0.638047
     49          6           0       -4.574033   -3.570374   -0.432683
     50          6           0       -5.090859   -4.994663   -0.102930
     51          6           0       -5.777384   -2.536370   -0.341637
     52          6           0       -6.352195   -2.221951    1.059528
     53          6           0       -7.253925   -0.937580    1.057331
     54          6           0       -8.654756   -1.226974    1.634863
     55          6           0       -8.559694   -1.586978    3.090113
     56          6           0       -9.532539   -0.023521    1.324385
     57          6           0      -10.511970   -0.023506    0.086623
     58          6           0      -11.912858   -0.521149    0.439125
     59          6           0      -13.082975    0.488262    0.645633
     60          6           0      -13.977867    0.133069    1.910971
     61          6           0      -13.948972    0.419387   -0.632213
     62          6           0      -14.469898    1.796272   -1.142771
     63          6           0      -16.008577    1.896236   -1.160282
     64          6           0      -16.452174    3.471015   -1.195667
     65          6           0      -16.677924    4.048322    0.226381
     66          6           0      -17.709147    3.653367   -1.996446
     67          1           0        1.104207    2.057023   -0.326476
     68          1           0        6.678038    5.376590   -0.141044
     69          1           0       10.091433   -0.036823    0.161941
     70          1           0        1.935092   -2.580793   -0.516927
     71          1           0        0.739094   -0.318610    0.884379
     72          1           0        0.704076   -1.407815   -1.871403
     73          1           0        0.789990    0.306561   -1.772719
     74          1           0       -0.576303   -0.652718   -1.009364
     75          1           0        1.401537   -1.749576    2.200658
     76          1           0        2.813913   -2.718701    2.101356
     77          1           0        0.311876   -3.652064    2.479172
     78          1           0        1.612174   -4.540639    1.686709
     79          1           0        1.209451    5.614672    0.513676
     80          1           0        0.663966    4.101000   -0.083907
     81          1           0        1.013466    5.350025   -1.255708
     82          1           0        2.139559    7.345275   -1.365670
     83          1           0        3.181500    8.611694   -0.708148
     84          1           0        2.248258    7.594987    0.364738
     85          1           0        8.938493    4.463290    1.244827
     86          1           0       10.308438    2.617244   -0.707628
     87          1           0        8.643108    5.804831   -1.240309
     88          1           0        9.637832    4.491202   -1.740900
     89          1           0       10.258788    5.712932   -0.657861
     90          1           0       11.238619    3.560962    1.783535
     91          1           0       11.725341    2.004723    1.021855
     92          1           0        9.390406    1.668400    2.886423
     93          1           0       10.640456    2.636138    3.511537
     94          1           0       10.987738    0.944236    2.971607
     95          1           0       10.173150   -2.955891    0.839101
     96          1           0       10.397925   -2.299977   -0.839550
     97          1           0        9.653331   -3.871887   -0.494854
     98          1           0        4.422714   -4.197457    0.892833
     99          1           0        4.300788   -7.059054   -2.323972
    100          1           0        3.344192   -5.674243   -3.103965
    101          1           0        2.524731   -6.782219   -2.061158
    102          1           0       -2.297147   -5.008485   -0.556284
    103          1           0       -1.583699   -3.809654   -1.724640
    104          1           0       -3.131504   -2.066971   -0.564190
    105          1           0       -4.307532   -5.694809    0.187455
    106          1           0       -5.648330   -5.484641   -0.900846
    107          1           0       -5.815540   -5.004321    0.711949
    108          1           0       -6.598139   -2.971956   -0.912096
    109          1           0       -5.533903   -1.683908   -0.976236
    110          1           0       -5.579546   -1.976714    1.788614
    111          1           0       -6.908666   -3.031973    1.531329
    112          1           0       -7.368521   -0.615954    0.022697
    113          1           0       -6.653509   -0.207342    1.600130
    114          1           0       -9.038559   -2.035991    1.013489
    115          1           0       -8.412678   -2.664203    3.174614
    116          1           0       -9.496703   -1.312804    3.574469
    117          1           0       -7.787960   -1.060409    3.651181
    118          1           0       -8.989163    0.909834    1.177602
    119          1           0      -10.208810    0.181925    2.154249
    120          1           0      -10.054534   -0.655278   -0.674428
    121          1           0      -10.416449    1.031598   -0.166225
    122          1           0      -11.874411   -1.094362    1.365235
    123          1           0      -12.076492   -1.236830   -0.366039
    124          1           0      -12.730785    1.509673    0.788013
    125          1           0      -13.647827    0.820828    2.688688
    126          1           0      -13.959741   -0.916136    2.204361
    127          1           0      -15.018473    0.441193    1.809147
    128          1           0      -14.836786   -0.179714   -0.433693
    129          1           0      -13.505499   -0.038141   -1.516297
    130          1           0      -14.114852    1.943979   -2.163208
    131          1           0      -14.130259    2.585173   -0.471900
    132          1           0      -16.404151    1.448724   -0.248808
    133          1           0      -16.371620    1.321261   -2.012728
    134          1           0      -15.655783    4.112303   -1.573631
    135          1           0      -16.322386    3.352954    0.986597
    136          1           0      -17.732377    4.154836    0.482014
    137          1           0      -16.288153    5.061549    0.330659
    138          1           0      -17.416120    3.846171   -3.027507
    139          1           0      -18.239804    4.539047   -1.647972
    140          1           0      -18.354393    2.778777   -1.904998
 ---------------------------------------------------------------------

 SCF Done:  E(RPBE1PBE) =  -3005.35986666     A.U. after   15 cycles

 Excitation energies and oscillator strengths:

 Excited State   1:      Singlet-A      1.8642 eV  665.06 nm  f=0.3612  <S**2>=0.000
     245 -> 248       -0.18707
     246 -> 247        0.68843
     246 <- 247       -0.10378
 This state for optimization and/or second-order correction.
 Total Energy, E(TD-HF/TD-DFT) =  -3005.29135690
 Copying the excited state density for this state as the 1-particle RhoCI density.

 Excited State   2:      Singlet-A      2.1918 eV  565.68 nm  f=0.1274  <S**2>=0.000
     245 -> 247        0.65440
     246 -> 248        0.25239

 Excited State   3:      Singlet-A      2.9617 eV  418.62 nm  f=0.0045  <S**2>=0.000
     244 -> 247        0.68583

 Excited State   4:      Singlet-A      3.1743 eV  390.58 nm  f=0.0011  <S**2>=0.000
     243 -> 247        0.65856
     243 -> 248        0.11341
     243 -> 249       -0.17168

 Excited State   5:      Singlet-A      3.1832 eV  389.50 nm  f=0.0058  <S**2>=0.000
     241 -> 247        0.30598
     242 -> 247        0.59594
     242 -> 249        0.12856

 The electronic state is 1-A.
 Alpha  occ. eigenvalues --  -46.92398 -19.26915 -19.23943 -19.21753 -19.19661
 Alpha  occ. eigenvalues --  -19.19281 -19.18360 -14.41324 -14.41088 -14.39660
 Alpha  occ. eigenvalues --  -14.37881 -10.38067 -10.35646 -10.32022 -10.31835
 Alpha  occ. eigenvalues --  -10.29700 -10.28398 -10.28367 -10.28340 -10.28292
 Alpha  occ. eigenvalues --  -10.28287 -10.27807 -10.27343 -10.26355 -10.26199
 Alpha  occ. eigenvalues --  -10.25967 -10.25791 -10.25712 -10.25489 -10.25467
 Alpha  occ. eigenvalues --  -10.25449 -10.25333 -10.25172 -10.25070 -10.24863
 Alpha  occ. eigenvalues --  -10.24840 -10.24786 -10.24475 -10.24426 -10.24062
 Alpha  occ. eigenvalues --  -10.24036 -10.24000 -10.23963 -10.23806 -10.23782
 Alpha  occ. eigenvalues --  -10.23592 -10.23516 -10.23391 -10.23315 -10.23294
 Alpha  occ. eigenvalues --  -10.23121 -10.23024 -10.22718 -10.22686 -10.22671
 Alpha  occ. eigenvalues --  -10.22625 -10.22592 -10.22450 -10.22256 -10.22206
 Alpha  occ. eigenvalues --  -10.22132 -10.21971 -10.21826 -10.21765 -10.21653
 Alpha  occ. eigenvalues --  -10.21333  -3.14437  -1.87288  -1.86825  -1.86650
 Alpha  occ. eigenvalues --   -1.10562  -1.08773  -1.06278  -1.04273  -1.02865
 Alpha  occ. eigenvalues --   -1.01305  -0.99359  -0.98718  -0.98080  -0.97040
 Alpha  occ. eigenvalues --   -0.87574  -0.85313  -0.84575  -0.83269  -0.82718
 Alpha  occ. eigenvalues --   -0.82580  -0.82299  -0.81870  -0.81391  -0.80951
 Alpha  occ. eigenvalues --   -0.79519  -0.79253  -0.78558  -0.77423  -0.77209
 Alpha  occ. eigenvalues --   -0.76518  -0.75489  -0.75114  -0.74602  -0.74156
 Alpha  occ. eigenvalues --   -0.73563  -0.72397  -0.72357  -0.71058  -0.69946
 Alpha  occ. eigenvalues --   -0.69861  -0.69448  -0.69233  -0.69227  -0.68230
 Alpha  occ. eigenvalues --   -0.67302  -0.66381  -0.65834  -0.64766  -0.63622
 Alpha  occ. eigenvalues --   -0.63033  -0.62479  -0.61703  -0.60665  -0.60274
 Alpha  occ. eigenvalues --   -0.59125  -0.59078  -0.58660  -0.58498  -0.58294
 Alpha  occ. eigenvalues --   -0.57980  -0.57321  -0.56699  -0.55549  -0.54879
 Alpha  occ. eigenvalues --   -0.54691  -0.53921  -0.53163  -0.52814  -0.52512
 Alpha  occ. eigenvalues --   -0.51807  -0.51373  -0.50728  -0.50320  -0.49687
 Alpha  occ. eigenvalues --   -0.49526  -0.49301  -0.49018  -0.48571  -0.48205
 Alpha  occ. eigenvalues --   -0.47790  -0.47609  -0.47393  -0.47338  -0.47168
 Alpha  occ. eigenvalues --   -0.47013  -0.46885  -0.46764  -0.46658  -0.46320
 Alpha  occ. eigenvalues --   -0.46055  -0.45644  -0.45424  -0.45320  -0.44721
 Alpha  occ. eigenvalues --   -0.44551  -0.44286  -0.43987  -0.43939  -0.43768
 Alpha  occ. eigenvalues --   -0.43748  -0.43555  -0.43449  -0.43206  -0.42996
 Alpha  occ. eigenvalues --   -0.42928  -0.42847  -0.42773  -0.42609  -0.42502
 Alpha  occ. eigenvalues --   -0.42108  -0.41725  -0.41515  -0.41217  -0.41011
 Alpha  occ. eigenvalues --   -0.40855  -0.40825  -0.40568  -0.40481  -0.40366
 Alpha  occ. eigenvalues --   -0.40206  -0.40106  -0.39918  -0.39719  -0.39411
 Alpha  occ. eigenvalues --   -0.39211  -0.39092  -0.38973  -0.38874  -0.38839
 Alpha  occ. eigenvalues --   -0.38619  -0.38476  -0.38319  -0.38156  -0.37969
 Alpha  occ. eigenvalues --   -0.37824  -0.37628  -0.37303  -0.37090  -0.36844
 Alpha  occ. eigenvalues --   -0.36803  -0.36500  -0.36429  -0.36188  -0.35728
 Alpha  occ. eigenvalues --   -0.35502  -0.35403  -0.35276  -0.34845  -0.34772
 Alpha  occ. eigenvalues --   -0.34722  -0.34204  -0.34036  -0.33922  -0.33439
 Alpha  occ. eigenvalues --   -0.33320  -0.32851  -0.32750  -0.32699  -0.32376
 Alpha  occ. eigenvalues --   -0.32321  -0.32046  -0.31408  -0.31384  -0.31256
 Alpha  occ. eigenvalues --   -0.31053  -0.30556  -0.30348  -0.29845  -0.29566
 Alpha  occ. eigenvalues --   -0.28788  -0.28404  -0.28394  -0.26349  -0.25889
 Alpha  occ. eigenvalues --   -0.25667  -0.25553  -0.25306  -0.24123  -0.19981
 Alpha  occ. eigenvalues --   -0.18165
 Alpha virt. eigenvalues --   -0.10493  -0.04734  -0.03416  -0.01781  -0.01672
 Alpha virt. eigenvalues --    0.00426   0.00466   0.01491   0.02413   0.03362
 Alpha virt. eigenvalues --    0.04292   0.04982   0.05306   0.05475   0.05696

 Mulliken charges:
               1
     1  Mg   0.984957
     2  C   -0.068124
     3  C   -0.069659
     4  C   -0.061721
     5  C   -0.064352
     6  N   -0.329325
     7  C    0.009684
     8  C   -0.135472
     9  C   -0.120375
    10  C    0.043430
    11  C    0.024511
    12  C    0.052720
    13  C    0.040997
    14  C    0.222389
    15  O   -0.280864
    16  O   -0.374152
    17  N   -0.466917
    18  C    0.143998
    19  C   -0.197087
    20  C   -0.054143
    21  C    0.153908
    22  C    0.064838
    23  C    0.029143
    24  O   -0.247440
    25  C   -0.006876
    26  N   -0.409372
    27  C    0.011480
    28  C   -0.033453
    29  C   -0.075344
    30  C    0.072289
    31  C   -0.010673
    32  C   -0.047094
    33  C   -0.084675
    34  N   -0.447314
    35  C    0.112093
    36  C   -0.192180
    37  C   -0.051154
    38  C    0.208254
    39  C    0.064183
    40  C    0.076355
    41  O   -0.167526
    42  C   -0.112697
    43  C    0.322017
    44  O   -0.246333
    45  O   -0.394614
    46  C    0.116842
    47  C    0.245445
    48  C   -0.137315
    49  C   -0.161545
    50  C   -0.004251
    51  C   -0.023911
    52  C   -0.024988
    53  C   -0.036778
    54  C   -0.191072
    55  C    0.016838
    56  C   -0.034519
    57  C   -0.041165
    58  C    0.012408
    59  C   -0.195856
    60  C   -0.021639
    61  C    0.006458
    62  C   -0.069960
    63  C   -0.033285
    64  C   -0.243389
    65  C   -0.029762
    66  C    0.000073
    67  H    0.013146
    68  H    0.020406
    69  H   -0.003972
    70  H    0.077060
    71  H    0.041973
    72  H    0.044967
    73  H    0.041961
    74  H    0.045026
    75  H    0.025072
    76  H    0.043836
    77  H    0.056292
    78  H    0.065642
    79  H    0.045685
    80  H    0.025773
    81  H    0.066307
    82  H    0.057850
    83  H    0.055023
    84  H    0.051425
    85  H    0.055007
    86  H    0.055222
    87  H    0.065910
    88  H    0.034105
    89  H    0.044232
    90  H    0.049211
    91  H    0.045057
    92  H    0.051710
    93  H    0.034632
    94  H    0.051222
    95  H    0.053054
    96  H    0.055898
    97  H    0.053920
    98  H    0.079618
    99  H    0.070124
   100  H    0.068228
   101  H    0.061373
   102  H    0.041496
   103  H    0.078177
   104  H    0.028281
   105  H    0.037055
   106  H    0.048705
   107  H    0.044115
   108  H    0.028570
   109  H    0.032743
   110  H    0.027179
   111  H    0.029233
   112  H    0.028489
   113  H    0.033645
   114  H    0.024734
   115  H    0.039258
   116  H    0.030516
   117  H    0.035651
   118  H    0.015762
   119  H    0.010345
   120  H    0.022848
   121  H    0.030611
   122  H    0.019581
   123  H    0.028158
   124  H    0.035850
   125  H    0.032366
   126  H    0.048482
   127  H    0.029187
   128  H    0.022213
   129  H    0.023388
   130  H    0.035180
   131  H    0.030528
   132  H    0.028794
   133  H    0.033270
   134  H    0.035808
   135  H    0.027225
   136  H    0.023120
   137  H    0.039643
   138  H    0.033201
   139  H    0.026836
   140  H    0.040821
 Sum of Mulliken charges =  -0.00000

 Dipole moment (field-independent basis, Debye):
    X=             -4.8505    Y=              1.7580    Z=              2.8992  Tot=              5.9180
 Quadrupole moment (field-independent basis, Debye-Ang):
   XX=           -378.6193   YY=           -418.1224   ZZ=           -403.1170
   XY=             21.0248   XZ=             13.2705   YZ=             -2.3922

 Normal termination of Gaussian 16 at Thu Apr 28 02:13:55 2022.
