 Gaussian 16, Revision A.03,
 Gaussian 16:  ES64L-G16RevA.03 25-Dec-2016

 --------------------------------
 #p wB97XD/Def2SVP td=(nstates=5)
 --------------------------------

 -----------------------------------------------------
 step_1401_chromophore_18 TDDFT with wB97XD functional
 -----------------------------------------------------
 Symbolic Z-matrix:
 Charge =  0 Multiplicity = 1

                         Standard orientation:
 ---------------------------------------------------------------------
 Center     Atomic      Atomic             Coordinates (Angstroms)
 Number     Number       Type             X           Y           Z
 ---------------------------------------------------------------------
      1         12           0        5.603225    1.213712    0.047292
      2          6           0        4.790718   -2.221557    0.030889
      3          6           0        2.175585    1.849236   -0.292753
      4          6           0        6.405891    4.319740   -0.098886
      5          6           0        9.040317    0.254576    0.099038
      6          7           0        3.693361   -0.106877    0.106150
      7          6           0        3.612910   -1.418180    0.110947
      8          6           0        2.133949   -1.872331    0.287759
      9          6           0        1.347291   -0.566807    0.014425
     10          6           0        2.456759    0.477267    0.014311
     11          6           0        0.493395   -0.574211   -1.201803
     12          6           0        1.876104   -2.511904    1.583887
     13          6           0        0.936690   -3.689890    1.587326
     14          6           0        0.098560   -4.007194    0.305472
     15          8           0        0.551165   -4.638096   -0.672073
     16          8           0       -1.248542   -3.596366    0.454509
     17          7           0        4.439916    2.874730   -0.159565
     18          6           0        3.091926    2.974661   -0.288318
     19          6           0        2.717545    4.404330   -0.267963
     20          6           0        3.919995    5.141666   -0.285726
     21          6           0        4.993430    4.058008   -0.195859
     22          6           0        1.348230    4.917910   -0.311930
     23          6           0        4.012175    6.636428   -0.347754
     24          8           0        5.133155    7.127589   -0.295023
     25          6           0        2.828477    7.590919   -0.557400
     26          7           0        7.470682    2.153000    0.022100
     27          6           0        7.586449    3.537771    0.041475
     28          6           0        8.997318    4.042718    0.241038
     29          6           0        9.797297    2.722631    0.249335
     30          6           0        8.714728    1.659437    0.208646
     31          6           0        9.384730    5.096477   -0.869880
     32          6           0       10.899334    2.586796    1.430724
     33          6           0       10.454397    1.870871    2.758865
     34          7           0        6.799849   -0.538681   -0.143221
     35          6           0        8.089163   -0.809968   -0.011602
     36          6           0        8.385203   -2.230295   -0.077614
     37          6           0        7.044490   -2.815961   -0.103820
     38          6           0        6.166093   -1.804876   -0.066613
     39          6           0        9.743247   -2.839959   -0.155724
     40          6           0        6.309778   -4.096218   -0.061566
     41          8           0        6.775579   -5.191163   -0.091227
     42          6           0        4.822857   -3.712515    0.001658
     43          6           0        4.346699   -4.224491   -1.290396
     44          8           0        4.381569   -3.639874   -2.362668
     45          8           0        3.886950   -5.525417   -1.040522
     46          6           0        3.497903   -6.326183   -2.244204
     47          6           0       -2.015642   -3.971042   -0.737139
     48          6           0       -3.296400   -3.141671   -0.638047
     49          6           0       -4.574033   -3.570374   -0.432683
     50          6           0       -5.090859   -4.994663   -0.102930
     51          6           0       -5.777384   -2.536370   -0.341637
     52          6           0       -6.352195   -2.221951    1.059528
     53          6           0       -7.253925   -0.937580    1.057331
     54          6           0       -8.654756   -1.226974    1.634863
     55          6           0       -8.559694   -1.586978    3.090113
     56          6           0       -9.532539   -0.023521    1.324385
     57          6           0      -10.511970   -0.023506    0.086623
     58          6           0      -11.912858   -0.521149    0.439125
     59          6           0      -13.082975    0.488262    0.645633
     60          6           0      -13.977867    0.133069    1.910971
     61          6           0      -13.948972    0.419387   -0.632213
     62          6           0      -14.469898    1.796272   -1.142771
     63          6           0      -16.008577    1.896236   -1.160282
     64          6           0      -16.452174    3.471015   -1.195667
     65          6           0      -16.677924    4.048322    0.226381
     66          6           0      -17.709147    3.653367   -1.996446
     67          1           0        1.104207    2.057023   -0.326476
     68          1           0        6.678038    5.376590   -0.141044
     69          1           0       10.091433   -0.036823    0.161941
     70          1           0        1.935092   -2.580793   -0.516927
     71          1           0        0.739094   -0.318610    0.884379
     72          1           0        0.704076   -1.407815   -1.871403
     73          1           0        0.789990    0.306561   -1.772719
     74          1           0       -0.576303   -0.652718   -1.009364
     75          1           0        1.401537   -1.749576    2.200658
     76          1           0        2.813913   -2.718701    2.101356
     77          1           0        0.311876   -3.652064    2.479172
     78          1           0        1.612174   -4.540639    1.686709
     79          1           0        1.209451    5.614672    0.513676
     80          1           0        0.663966    4.101000   -0.083907
     81          1           0        1.013466    5.350025   -1.255708
     82          1           0        2.139559    7.345275   -1.365670
     83          1           0        3.181500    8.611694   -0.708148
     84          1           0        2.248258    7.594987    0.364738
     85          1           0        8.938493    4.463290    1.244827
     86          1           0       10.308438    2.617244   -0.707628
     87          1           0        8.643108    5.804831   -1.240309
     88          1           0        9.637832    4.491202   -1.740900
     89          1           0       10.258788    5.712932   -0.657861
     90          1           0       11.238619    3.560962    1.783535
     91          1           0       11.725341    2.004723    1.021855
     92          1           0        9.390406    1.668400    2.886423
     93          1           0       10.640456    2.636138    3.511537
     94          1           0       10.987738    0.944236    2.971607
     95          1           0       10.173150   -2.955891    0.839101
     96          1           0       10.397925   -2.299977   -0.839550
     97          1           0        9.653331   -3.871887   -0.494854
     98          1           0        4.422714   -4.197457    0.892833
     99          1           0        4.300788   -7.059054   -2.323972
    100          1           0        3.344192   -5.674243   -3.103965
    101          1           0        2.524731   -6.782219   -2.061158
    102          1           0       -2.297147   -5.008485   -0.556284
    103          1           0       -1.583699   -3.809654   -1.724640
    104          1           0       -3.131504   -2.066971   -0.564190
    105          1           0       -4.307532   -5.694809    0.187455
    106          1           0       -5.648330   -5.484641   -0.900846
    107          1           0       -5.815540   -5.004321    0.711949
    108          1           0       -6.598139   -2.971956   -0.912096
    109          1           0       -5.533903   -1.683908   -0.976236
    110          1           0       -5.579546   -1.976714    1.788614
    111          1           0       -6.908666   -3.031973    1.531329
    112          1           0       -7.368521   -0.615954    0.022697
    113          1           0       -6.653509   -0.207342    1.600130
    114          1           0       -9.038559   -2.035991    1.013489
    115          1           0       -8.412678   -2.664203    3.174614
    116          1           0       -9.496703   -1.312804    3.574469
    117          1           0       -7.787960   -1.060409    3.651181
    118          1           0       -8.989163    0.909834    1.177602
    119          1           0      -10.208810    0.181925    2.154249
    120          1           0      -10.054534   -0.655278   -0.674428
    121          1           0      -10.416449    1.031598   -0.166225
    122          1           0      -11.874411   -1.094362    1.365235
    123          1           0      -12.076492   -1.236830   -0.366039
    124          1           0      -12.730785    1.509673    0.788013
    125          1           0      -13.647827    0.820828    2.688688
    126          1           0      -13.959741   -0.916136    2.204361
    127          1           0      -15.018473    0.441193    1.809147
    128          1           0      -14.836786   -0.179714   -0.433693
    129          1           0      -13.505499   -0.038141   -1.516297
    130          1           0      -14.114852    1.943979   -2.163208
    131          1           0      -14.130259    2.585173   -0.471900
    132          1           0      -16.404151    1.448724   -0.248808
    133          1           0      -16.371620    1.321261   -2.012728
    134          1           0      -15.655783    4.112303   -1.573631
    135          1           0      -16.322386    3.352954    0.986597
    136          1           0      -17.732377    4.154836    0.482014
    137          1           0      -16.288153    5.061549    0.330659
    138          1           0      -17.416120    3.846171   -3.027507
    139          1           0      -18.239804    4.539047   -1.647972
    140          1           0      -18.354393    2.778777   -1.904998
 ---------------------------------------------------------------------

 SCF Done:  E(RwB97XD) =  -3007.86688710     A.U. after   19 cycles

 Excitation energies and oscillator strengths:

 Excited State   1:      Singlet-A      1.6461 eV  753.19 nm  f=0.3707  <S**2>=0.000
     245 -> 248       -0.19985
     246 -> 247        0.67946
     245 <- 248       -0.12032
 This state for optimization and/or second-order correction.
 Total Energy, E(TD-HF/TD-DFT) =  -3007.80639306
 Copying the excited state density for this state as the 1-particle RhoCI density.

 Excited State   2:      Singlet-A      2.1244 eV  583.62 nm  f=0.1323  <S**2>=0.000
     245 -> 247        0.64305
     246 -> 248        0.28134

 Excited State   3:      Singlet-A      3.2614 eV  380.15 nm  f=0.0002  <S**2>=0.000
     244 -> 247        0.66869
     246 -> 248       -0.14790

 Excited State   4:      Singlet-A      3.5464 eV  349.61 nm  f=0.7910  <S**2>=0.000
     244 -> 247        0.13209
     245 -> 247       -0.28973
     246 -> 248        0.61832
     245 <- 247        0.12107

 Excited State   5:      Singlet-A      3.6928 eV  335.74 nm  f=0.0238  <S**2>=0.000
     240 -> 247        0.55486
     240 -> 249        0.28596
     240 -> 250       -0.20845
     243 -> 247        0.10886

 The electronic state is 1-A.
 Alpha  occ. eigenvalues --  -46.95320 -19.31457 -19.28543 -19.26394 -19.24438
 Alpha  occ. eigenvalues --  -19.24183 -19.23133 -14.46527 -14.46051 -14.44629
 Alpha  occ. eigenvalues --  -14.42814 -10.44840 -10.42552 -10.38823 -10.38734
 Alpha  occ. eigenvalues --  -10.36204 -10.34714 -10.34683 -10.34663 -10.34559
 Alpha  occ. eigenvalues --  -10.34525 -10.34057 -10.33881 -10.32715 -10.32551
 Alpha  occ. eigenvalues --  -10.32155 -10.32143 -10.31964 -10.31911 -10.31899
 Alpha  occ. eigenvalues --  -10.31894 -10.31763 -10.31669 -10.31553 -10.31136
 Alpha  occ. eigenvalues --  -10.31113 -10.31062 -10.30819 -10.30783 -10.30494
 Alpha  occ. eigenvalues --  -10.30428 -10.30395 -10.30338 -10.30241 -10.30174
 Alpha  occ. eigenvalues --  -10.30083 -10.29855 -10.29667 -10.29608 -10.29551
 Alpha  occ. eigenvalues --  -10.29505 -10.29470 -10.29124 -10.29046 -10.29041
 Alpha  occ. eigenvalues --  -10.28986 -10.28953 -10.28869 -10.28622 -10.28604
 Alpha  occ. eigenvalues --  -10.28577 -10.28346 -10.28175 -10.28121 -10.28073
 Alpha  occ. eigenvalues --  -10.27772  -3.21228  -1.94826  -1.94364  -1.94186
 Alpha  occ. eigenvalues --   -1.17946  -1.16264  -1.13804  -1.11718  -1.10213
 Alpha  occ. eigenvalues --   -1.08736  -1.06714  -1.06095  -1.05424  -1.04401
 Alpha  occ. eigenvalues --   -0.95253  -0.92947  -0.92246  -0.90951  -0.90373
 Alpha  occ. eigenvalues --   -0.90258  -0.89836  -0.89516  -0.89060  -0.88522
 Alpha  occ. eigenvalues --   -0.87159  -0.86887  -0.86220  -0.85069  -0.84860
 Alpha  occ. eigenvalues --   -0.84141  -0.83168  -0.82818  -0.82285  -0.81814
 Alpha  occ. eigenvalues --   -0.81181  -0.80057  -0.80023  -0.78637  -0.77614
 Alpha  occ. eigenvalues --   -0.77508  -0.77131  -0.76927  -0.76799  -0.75896
 Alpha  occ. eigenvalues --   -0.74924  -0.73929  -0.73386  -0.72379  -0.71171
 Alpha  occ. eigenvalues --   -0.70663  -0.70051  -0.69221  -0.68301  -0.67787
 Alpha  occ. eigenvalues --   -0.66741  -0.66584  -0.66054  -0.65999  -0.65970
 Alpha  occ. eigenvalues --   -0.65440  -0.64973  -0.64346  -0.63058  -0.62416
 Alpha  occ. eigenvalues --   -0.62126  -0.61396  -0.60575  -0.60364  -0.59909
 Alpha  occ. eigenvalues --   -0.59194  -0.58840  -0.58172  -0.57677  -0.57063
 Alpha  occ. eigenvalues --   -0.56903  -0.56719  -0.56447  -0.56026  -0.55631
 Alpha  occ. eigenvalues --   -0.55186  -0.55000  -0.54791  -0.54713  -0.54532
 Alpha  occ. eigenvalues --   -0.54439  -0.54282  -0.54176  -0.54150  -0.53688
 Alpha  occ. eigenvalues --   -0.53382  -0.53017  -0.52849  -0.52667  -0.52068
 Alpha  occ. eigenvalues --   -0.51914  -0.51624  -0.51329  -0.51309  -0.51128
 Alpha  occ. eigenvalues --   -0.51074  -0.50911  -0.50793  -0.50479  -0.50291
 Alpha  occ. eigenvalues --   -0.50220  -0.50101  -0.50042  -0.49943  -0.49816
 Alpha  occ. eigenvalues --   -0.49345  -0.48975  -0.48731  -0.48460  -0.48281
 Alpha  occ. eigenvalues --   -0.48109  -0.48069  -0.47755  -0.47748  -0.47593
 Alpha  occ. eigenvalues --   -0.47365  -0.47297  -0.47108  -0.46876  -0.46595
 Alpha  occ. eigenvalues --   -0.46378  -0.46234  -0.46095  -0.46011  -0.45972
 Alpha  occ. eigenvalues --   -0.45813  -0.45642  -0.45458  -0.45336  -0.45111
 Alpha  occ. eigenvalues --   -0.44942  -0.44748  -0.44409  -0.44158  -0.43974
 Alpha  occ. eigenvalues --   -0.43840  -0.43597  -0.43545  -0.43311  -0.42802
 Alpha  occ. eigenvalues --   -0.42584  -0.42494  -0.42291  -0.41891  -0.41778
 Alpha  occ. eigenvalues --   -0.41716  -0.41232  -0.40995  -0.40919  -0.40471
 Alpha  occ. eigenvalues --   -0.40361  -0.39916  -0.39849  -0.39578  -0.39396
 Alpha  occ. eigenvalues --   -0.39337  -0.39073  -0.38407  -0.38373  -0.38249
 Alpha  occ. eigenvalues --   -0.38052  -0.37527  -0.37380  -0.36930  -0.36397
 Alpha  occ. eigenvalues --   -0.35963  -0.35238  -0.35050  -0.32884  -0.32708
 Alpha  occ. eigenvalues --   -0.32622  -0.32494  -0.32159  -0.30660  -0.24875
 Alpha  occ. eigenvalues --   -0.22361
 Alpha virt. eigenvalues --   -0.06407   0.00720   0.02846   0.04796   0.05114
 Alpha virt. eigenvalues --    0.06359   0.07119   0.08134   0.09030   0.09694
 Alpha virt. eigenvalues --    0.11017   0.11837   0.12114   0.12274   0.12399

 Mulliken charges:
               1
     1  Mg   0.975065
     2  C   -0.060556
     3  C   -0.081818
     4  C   -0.079506
     5  C   -0.088557
     6  N   -0.291591
     7  C   -0.028423
     8  C   -0.098729
     9  C   -0.091982
    10  C    0.022815
    11  C    0.034631
    12  C    0.058129
    13  C    0.056185
    14  C    0.214614
    15  O   -0.279464
    16  O   -0.374565
    17  N   -0.429323
    18  C    0.133574
    19  C   -0.184977
    20  C   -0.050010
    21  C    0.146907
    22  C    0.078569
    23  C    0.023898
    24  O   -0.243031
    25  C    0.005377
    26  N   -0.380697
    27  C    0.000881
    28  C   -0.006413
    29  C   -0.056090
    30  C    0.061865
    31  C    0.000050
    32  C   -0.032009
    33  C   -0.069074
    34  N   -0.413383
    35  C    0.109352
    36  C   -0.191675
    37  C   -0.047051
    38  C    0.192623
    39  C    0.074855
    40  C    0.056407
    41  O   -0.157385
    42  C   -0.073928
    43  C    0.300623
    44  O   -0.241213
    45  O   -0.395113
    46  C    0.131927
    47  C    0.260322
    48  C   -0.143121
    49  C   -0.152522
    50  C    0.009293
    51  C   -0.000252
    52  C   -0.009530
    53  C   -0.023792
    54  C   -0.156191
    55  C    0.026037
    56  C   -0.017398
    57  C   -0.028833
    58  C    0.031801
    59  C   -0.169144
    60  C   -0.008160
    61  C    0.019982
    62  C   -0.051080
    63  C   -0.016943
    64  C   -0.214845
    65  C   -0.018532
    66  C    0.012562
    67  H    0.005640
    68  H    0.010814
    69  H   -0.010045
    70  H    0.053537
    71  H    0.031250
    72  H    0.039815
    73  H    0.034704
    74  H    0.040331
    75  H    0.017294
    76  H    0.036107
    77  H    0.053065
    78  H    0.059443
    79  H    0.038767
    80  H    0.020043
    81  H    0.061990
    82  H    0.052643
    83  H    0.054086
    84  H    0.045505
    85  H    0.045095
    86  H    0.044966
    87  H    0.061355
    88  H    0.026468
    89  H    0.039015
    90  H    0.041855
    91  H    0.038295
    92  H    0.042784
    93  H    0.029008
    94  H    0.046401
    95  H    0.048231
    96  H    0.051291
    97  H    0.050018
    98  H    0.074022
    99  H    0.066696
   100  H    0.064419
   101  H    0.058830
   102  H    0.034127
   103  H    0.074115
   104  H    0.024455
   105  H    0.031345
   106  H    0.043544
   107  H    0.037951
   108  H    0.018573
   109  H    0.025515
   110  H    0.018876
   111  H    0.016420
   112  H    0.016754
   113  H    0.025895
   114  H    0.011208
   115  H    0.033827
   116  H    0.024147
   117  H    0.030136
   118  H    0.007516
   119  H   -0.003053
   120  H    0.014798
   121  H    0.023343
   122  H    0.006550
   123  H    0.020176
   124  H    0.024424
   125  H    0.026557
   126  H    0.043569
   127  H    0.021042
   128  H    0.011271
   129  H    0.015565
   130  H    0.027859
   131  H    0.017073
   132  H    0.015899
   133  H    0.025794
   134  H    0.025501
   135  H    0.019894
   136  H    0.016467
   137  H    0.034899
   138  H    0.027643
   139  H    0.020481
   140  H    0.034661
 Sum of Mulliken charges =  -0.00000

 Dipole moment (field-independent basis, Debye):
    X=             -5.0162    Y=              1.6854    Z=              2.8887  Tot=              6.0289
 Quadrupole moment (field-independent basis, Debye-Ang):
   XX=           -380.7187   YY=           -416.5017   ZZ=           -402.6549
   XY=             19.6777   XZ=             13.4820   YZ=             -2.4198

 Normal termination of Gaussian 16 at Thu Apr 28 02:42:36 2022.
