 Gaussian 16, Revision A.03,
 Gaussian 16:  ES64L-G16RevA.03 25-Dec-2016

 --------------------
 #p ZINDO=(nstates=5)
 --------------------

 ------------------------------
 step_1401_chromophore_18 ZINDO
 ------------------------------
 Symbolic Z-matrix:
 Charge =  0 Multiplicity = 1

                         Standard orientation:
 ---------------------------------------------------------------------
 Center     Atomic      Atomic             Coordinates (Angstroms)
 Number     Number       Type             X           Y           Z
 ---------------------------------------------------------------------
      1         12           0        5.603225    1.213712    0.047292
      2          6           0        4.790718   -2.221557    0.030889
      3          6           0        2.175585    1.849236   -0.292753
      4          6           0        6.405891    4.319740   -0.098886
      5          6           0        9.040317    0.254576    0.099038
      6          7           0        3.693361   -0.106877    0.106150
      7          6           0        3.612910   -1.418180    0.110947
      8          6           0        2.133949   -1.872331    0.287759
      9          6           0        1.347291   -0.566807    0.014425
     10          6           0        2.456759    0.477267    0.014311
     11          6           0        0.493395   -0.574211   -1.201803
     12          6           0        1.876104   -2.511904    1.583887
     13          6           0        0.936690   -3.689890    1.587326
     14          6           0        0.098560   -4.007194    0.305472
     15          8           0        0.551165   -4.638096   -0.672073
     16          8           0       -1.248542   -3.596366    0.454509
     17          7           0        4.439916    2.874730   -0.159565
     18          6           0        3.091926    2.974661   -0.288318
     19          6           0        2.717545    4.404330   -0.267963
     20          6           0        3.919995    5.141666   -0.285726
     21          6           0        4.993430    4.058008   -0.195859
     22          6           0        1.348230    4.917910   -0.311930
     23          6           0        4.012175    6.636428   -0.347754
     24          8           0        5.133155    7.127589   -0.295023
     25          6           0        2.828477    7.590919   -0.557400
     26          7           0        7.470682    2.153000    0.022100
     27          6           0        7.586449    3.537771    0.041475
     28          6           0        8.997318    4.042718    0.241038
     29          6           0        9.797297    2.722631    0.249335
     30          6           0        8.714728    1.659437    0.208646
     31          6           0        9.384730    5.096477   -0.869880
     32          6           0       10.899334    2.586796    1.430724
     33          6           0       10.454397    1.870871    2.758865
     34          7           0        6.799849   -0.538681   -0.143221
     35          6           0        8.089163   -0.809968   -0.011602
     36          6           0        8.385203   -2.230295   -0.077614
     37          6           0        7.044490   -2.815961   -0.103820
     38          6           0        6.166093   -1.804876   -0.066613
     39          6           0        9.743247   -2.839959   -0.155724
     40          6           0        6.309778   -4.096218   -0.061566
     41          8           0        6.775579   -5.191163   -0.091227
     42          6           0        4.822857   -3.712515    0.001658
     43          6           0        4.346699   -4.224491   -1.290396
     44          8           0        4.381569   -3.639874   -2.362668
     45          8           0        3.886950   -5.525417   -1.040522
     46          6           0        3.497903   -6.326183   -2.244204
     47          6           0       -2.015642   -3.971042   -0.737139
     48          6           0       -3.296400   -3.141671   -0.638047
     49          6           0       -4.574033   -3.570374   -0.432683
     50          6           0       -5.090859   -4.994663   -0.102930
     51          6           0       -5.777384   -2.536370   -0.341637
     52          6           0       -6.352195   -2.221951    1.059528
     53          6           0       -7.253925   -0.937580    1.057331
     54          6           0       -8.654756   -1.226974    1.634863
     55          6           0       -8.559694   -1.586978    3.090113
     56          6           0       -9.532539   -0.023521    1.324385
     57          6           0      -10.511970   -0.023506    0.086623
     58          6           0      -11.912858   -0.521149    0.439125
     59          6           0      -13.082975    0.488262    0.645633
     60          6           0      -13.977867    0.133069    1.910971
     61          6           0      -13.948972    0.419387   -0.632213
     62          6           0      -14.469898    1.796272   -1.142771
     63          6           0      -16.008577    1.896236   -1.160282
     64          6           0      -16.452174    3.471015   -1.195667
     65          6           0      -16.677924    4.048322    0.226381
     66          6           0      -17.709147    3.653367   -1.996446
     67          1           0        1.104207    2.057023   -0.326476
     68          1           0        6.678038    5.376590   -0.141044
     69          1           0       10.091433   -0.036823    0.161941
     70          1           0        1.935092   -2.580793   -0.516927
     71          1           0        0.739094   -0.318610    0.884379
     72          1           0        0.704076   -1.407815   -1.871403
     73          1           0        0.789990    0.306561   -1.772719
     74          1           0       -0.576303   -0.652718   -1.009364
     75          1           0        1.401537   -1.749576    2.200658
     76          1           0        2.813913   -2.718701    2.101356
     77          1           0        0.311876   -3.652064    2.479172
     78          1           0        1.612174   -4.540639    1.686709
     79          1           0        1.209451    5.614672    0.513676
     80          1           0        0.663966    4.101000   -0.083907
     81          1           0        1.013466    5.350025   -1.255708
     82          1           0        2.139559    7.345275   -1.365670
     83          1           0        3.181500    8.611694   -0.708148
     84          1           0        2.248258    7.594987    0.364738
     85          1           0        8.938493    4.463290    1.244827
     86          1           0       10.308438    2.617244   -0.707628
     87          1           0        8.643108    5.804831   -1.240309
     88          1           0        9.637832    4.491202   -1.740900
     89          1           0       10.258788    5.712932   -0.657861
     90          1           0       11.238619    3.560962    1.783535
     91          1           0       11.725341    2.004723    1.021855
     92          1           0        9.390406    1.668400    2.886423
     93          1           0       10.640456    2.636138    3.511537
     94          1           0       10.987738    0.944236    2.971607
     95          1           0       10.173150   -2.955891    0.839101
     96          1           0       10.397925   -2.299977   -0.839550
     97          1           0        9.653331   -3.871887   -0.494854
     98          1           0        4.422714   -4.197457    0.892833
     99          1           0        4.300788   -7.059054   -2.323972
    100          1           0        3.344192   -5.674243   -3.103965
    101          1           0        2.524731   -6.782219   -2.061158
    102          1           0       -2.297147   -5.008485   -0.556284
    103          1           0       -1.583699   -3.809654   -1.724640
    104          1           0       -3.131504   -2.066971   -0.564190
    105          1           0       -4.307532   -5.694809    0.187455
    106          1           0       -5.648330   -5.484641   -0.900846
    107          1           0       -5.815540   -5.004321    0.711949
    108          1           0       -6.598139   -2.971956   -0.912096
    109          1           0       -5.533903   -1.683908   -0.976236
    110          1           0       -5.579546   -1.976714    1.788614
    111          1           0       -6.908666   -3.031973    1.531329
    112          1           0       -7.368521   -0.615954    0.022697
    113          1           0       -6.653509   -0.207342    1.600130
    114          1           0       -9.038559   -2.035991    1.013489
    115          1           0       -8.412678   -2.664203    3.174614
    116          1           0       -9.496703   -1.312804    3.574469
    117          1           0       -7.787960   -1.060409    3.651181
    118          1           0       -8.989163    0.909834    1.177602
    119          1           0      -10.208810    0.181925    2.154249
    120          1           0      -10.054534   -0.655278   -0.674428
    121          1           0      -10.416449    1.031598   -0.166225
    122          1           0      -11.874411   -1.094362    1.365235
    123          1           0      -12.076492   -1.236830   -0.366039
    124          1           0      -12.730785    1.509673    0.788013
    125          1           0      -13.647827    0.820828    2.688688
    126          1           0      -13.959741   -0.916136    2.204361
    127          1           0      -15.018473    0.441193    1.809147
    128          1           0      -14.836786   -0.179714   -0.433693
    129          1           0      -13.505499   -0.038141   -1.516297
    130          1           0      -14.114852    1.943979   -2.163208
    131          1           0      -14.130259    2.585173   -0.471900
    132          1           0      -16.404151    1.448724   -0.248808
    133          1           0      -16.371620    1.321261   -2.012728
    134          1           0      -15.655783    4.112303   -1.573631
    135          1           0      -16.322386    3.352954    0.986597
    136          1           0      -17.732377    4.154836    0.482014
    137          1           0      -16.288153    5.061549    0.330659
    138          1           0      -17.416120    3.846171   -3.027507
    139          1           0      -18.239804    4.539047   -1.647972
    140          1           0      -18.354393    2.778777   -1.904998
 ---------------------------------------------------------------------

 SCF Done:  E(RZINDO/S) =  -474.202987726     A.U. after   19 cycles

 Excitation energies and oscillator strengths:

 Excited State   1:      Singlet-A      1.2222 eV 1014.41 nm  f=0.5798  <S**2>=0.000
     175 ->178        -0.20498
     176 ->177         0.65788
 This state for optimization and/or second-order correction.
 Total Energy, E(CIS/TDA) =  -474.158071596
 Copying the excited state density for this state as the 1-particle RhoCI density.

 Excited State   2:      Singlet-A      1.8449 eV  672.03 nm  f=0.0682  <S**2>=0.000
     175 ->177         0.56344
     176 ->178         0.40030

 Excited State   3:      Singlet-A      2.9528 eV  419.89 nm  f=0.5090  <S**2>=0.000
     168 ->177         0.14617
     168 ->181         0.16882
     169 ->177         0.11909
     169 ->179        -0.23398
     169 ->186        -0.10662
     170 ->177        -0.13938
     170 ->179         0.11076
     173 ->177         0.13761
     175 ->177        -0.24418
     176 ->178         0.37673
     176 ->179        -0.15415

 Excited State   4:      Singlet-A      2.9583 eV  419.11 nm  f=0.0210  <S**2>=0.000
     168 ->177         0.19904
     168 ->179         0.35748
     168 ->181         0.29055
     168 ->184        -0.11440
     168 ->186         0.20375
     169 ->177        -0.18856
     169 ->181        -0.21330

 Excited State   5:      Singlet-A      2.9910 eV  414.53 nm  f=0.6653  <S**2>=0.000
     168 ->177        -0.11816
     168 ->181        -0.11257
     169 ->177        -0.19823
     169 ->178        -0.10044
     169 ->179         0.25055
     169 ->181        -0.15157
     169 ->186         0.11195
     175 ->177        -0.27149
     176 ->178         0.38487

 The electronic state is 1-A.
 Alpha  occ. eigenvalues --   -1.84253  -1.81376  -1.80869  -1.73707  -1.71270
 Alpha  occ. eigenvalues --   -1.70009  -1.65179  -1.60698  -1.58606  -1.58400
 Alpha  occ. eigenvalues --   -1.53932  -1.52374  -1.50598  -1.47955  -1.44668
 Alpha  occ. eigenvalues --   -1.43815  -1.42923  -1.40241  -1.39705  -1.39685
 Alpha  occ. eigenvalues --   -1.37178  -1.32745  -1.31897  -1.30818  -1.27909
 Alpha  occ. eigenvalues --   -1.27429  -1.24084  -1.20947  -1.20353  -1.17301
 Alpha  occ. eigenvalues --   -1.17081  -1.15324  -1.15073  -1.14232  -1.12811
 Alpha  occ. eigenvalues --   -1.12047  -1.10378  -1.09814  -1.04657  -1.03014
 Alpha  occ. eigenvalues --   -1.02115  -1.01199  -0.98985  -0.98169  -0.96904
 Alpha  occ. eigenvalues --   -0.95210  -0.94206  -0.94016  -0.93183  -0.92957
 Alpha  occ. eigenvalues --   -0.90143  -0.89533  -0.89133  -0.87942  -0.86951
 Alpha  occ. eigenvalues --   -0.85715  -0.83900  -0.83536  -0.81847  -0.80411
 Alpha  occ. eigenvalues --   -0.80153  -0.78046  -0.77445  -0.76771  -0.76445
 Alpha  occ. eigenvalues --   -0.75803  -0.74919  -0.74424  -0.74239  -0.73979
 Alpha  occ. eigenvalues --   -0.73192  -0.72446  -0.72248  -0.71488  -0.70898
 Alpha  occ. eigenvalues --   -0.70565  -0.69872  -0.69018  -0.68490  -0.68421
 Alpha  occ. eigenvalues --   -0.67133  -0.66410  -0.66262  -0.65983  -0.65785
 Alpha  occ. eigenvalues --   -0.64899  -0.64594  -0.64049  -0.63481  -0.63064
 Alpha  occ. eigenvalues --   -0.62821  -0.62720  -0.62305  -0.61863  -0.61569
 Alpha  occ. eigenvalues --   -0.61155  -0.60657  -0.60474  -0.59962  -0.59693
 Alpha  occ. eigenvalues --   -0.59463  -0.59063  -0.58886  -0.58734  -0.57953
 Alpha  occ. eigenvalues --   -0.57589  -0.57244  -0.56849  -0.56253  -0.56222
 Alpha  occ. eigenvalues --   -0.55871  -0.55700  -0.55230  -0.54713  -0.54392
 Alpha  occ. eigenvalues --   -0.54092  -0.53998  -0.53645  -0.52954  -0.52845
 Alpha  occ. eigenvalues --   -0.52609  -0.52428  -0.51943  -0.51633  -0.51462
 Alpha  occ. eigenvalues --   -0.51324  -0.50878  -0.50677  -0.50184  -0.49528
 Alpha  occ. eigenvalues --   -0.49421  -0.49232  -0.49005  -0.48924  -0.48644
 Alpha  occ. eigenvalues --   -0.48336  -0.48224  -0.47815  -0.47656  -0.47521
 Alpha  occ. eigenvalues --   -0.47304  -0.46737  -0.46693  -0.46660  -0.46622
 Alpha  occ. eigenvalues --   -0.46349  -0.46076  -0.45988  -0.45633  -0.45583
 Alpha  occ. eigenvalues --   -0.45206  -0.45052  -0.44730  -0.44522  -0.44413
 Alpha  occ. eigenvalues --   -0.44272  -0.43657  -0.43294  -0.43112  -0.42445
 Alpha  occ. eigenvalues --   -0.41642  -0.41072  -0.40872  -0.39866  -0.38117
 Alpha  occ. eigenvalues --   -0.37672  -0.37155  -0.34782  -0.34616  -0.34353
 Alpha  occ. eigenvalues --   -0.32990  -0.32894  -0.31736  -0.31111  -0.25568
 Alpha  occ. eigenvalues --   -0.21238
 Alpha virt. eigenvalues --   -0.08097  -0.01650  -0.00253   0.00495   0.01261
 Alpha virt. eigenvalues --    0.03091   0.03305   0.03791   0.03875   0.05657
 Alpha virt. eigenvalues --    0.06710   0.06899   0.07644   0.07968   0.08313

 Mulliken charges:
               1
     1  Mg   0.431958
     2  C   -0.042022
     3  C   -0.079067
     4  C   -0.088361
     5  C   -0.104235
     6  N   -0.261404
     7  C    0.123030
     8  C    0.011270
     9  C    0.011728
    10  C    0.100943
    11  C   -0.049176
    12  C   -0.007066
    13  C    0.007054
    14  C    0.461718
    15  O   -0.509719
    16  O   -0.262935
    17  N   -0.275287
    18  C    0.074861
    19  C    0.013129
    20  C   -0.064545
    21  C    0.155626
    22  C   -0.038979
    23  C    0.326732
    24  O   -0.530077
    25  C   -0.026753
    26  N   -0.277481
    27  C    0.129267
    28  C    0.019574
    29  C    0.007086
    30  C    0.139012
    31  C   -0.052687
    32  C   -0.034029
    33  C   -0.061871
    34  N   -0.338727
    35  C    0.132645
    36  C    0.008418
    37  C   -0.045435
    38  C    0.098090
    39  C   -0.031815
    40  C    0.344174
    41  O   -0.504285
    42  C    0.063393
    43  C    0.500424
    44  O   -0.521193
    45  O   -0.282456
    46  C    0.069789
    47  C    0.106706
    48  C   -0.085059
    49  C   -0.016075
    50  C   -0.043345
    51  C   -0.025089
    52  C   -0.035938
    53  C   -0.039698
    54  C    0.003281
    55  C   -0.048188
    56  C   -0.046557
    57  C   -0.041912
    58  C   -0.031641
    59  C   -0.004989
    60  C   -0.062320
    61  C   -0.040497
    62  C   -0.044014
    63  C   -0.038953
    64  C   -0.017514
    65  C   -0.060929
    66  C   -0.051210
    67  H    0.028148
    68  H    0.033581
    69  H    0.024221
    70  H    0.042003
    71  H    0.023673
    72  H    0.022665
    73  H    0.025259
    74  H    0.021157
    75  H    0.013967
    76  H    0.024592
    77  H    0.035580
    78  H    0.037007
    79  H    0.027631
    80  H    0.013741
    81  H    0.037750
    82  H    0.035031
    83  H    0.035924
    84  H    0.033214
    85  H    0.039736
    86  H    0.034698
    87  H    0.036097
    88  H    0.015172
    89  H    0.018134
    90  H    0.025898
    91  H    0.021669
    92  H    0.023772
    93  H    0.012890
    94  H    0.026219
    95  H    0.032837
    96  H    0.032655
    97  H    0.027812
    98  H    0.058991
    99  H    0.046514
   100  H    0.053330
   101  H    0.036899
   102  H    0.043655
   103  H    0.066143
   104  H    0.031782
   105  H    0.018109
   106  H    0.027593
   107  H    0.024614
   108  H    0.013753
   109  H    0.023099
   110  H    0.013004
   111  H    0.026243
   112  H    0.014353
   113  H    0.022996
   114  H    0.022760
   115  H    0.018155
   116  H    0.012752
   117  H    0.022847
   118  H    0.011678
   119  H    0.008175
   120  H    0.019758
   121  H    0.023228
   122  H    0.014617
   123  H    0.017389
   124  H    0.029550
   125  H    0.013455
   126  H    0.030041
   127  H    0.016450
   128  H    0.015568
   129  H    0.017196
   130  H    0.019432
   131  H    0.020292
   132  H    0.022773
   133  H    0.021424
   134  H    0.023071
   135  H    0.016476
   136  H    0.011463
   137  H    0.020173
   138  H    0.012732
   139  H    0.014793
   140  H    0.023559
 Sum of Mulliken charges =  -0.00000

 Dipole moment (field-independent basis, Debye):
    X=             -6.6465    Y=              2.0502    Z=              5.4991  Tot=              8.8667
 N-N= 4.228489514651D+03 E-N= 0.000000000000D+00  KE=-9.131698501464D+03
 Leave Link  601 at Thu Apr 28 02:56:26 2022, MaxMem=  6710886400 cpu:               0.8 elap:               0.0
 (Enter /sw/apps/gaussian-16.0/g16/l9999.exe)
 1\1\GINC-BP1-COMPUTE142\SP\RZINDO CIS\STO-3G\C55H74Mg1N4O6\OF15641\28-
 Apr-2022\0\\#p ZINDO=(nstates=5)\\step_1401_chromophore_18 ZINDO\\0,1\
 Mg,0,33.671,48.627,25.037\C,0,34.098,47.199,28.237\C,0,31.973,51.248,2
 6.623\C,0,33.164,49.803,22.092\C,0,35.181,45.691,23.682\N,0,33.31,49.2
 22,27.253\C,0,33.567,48.521,28.334\C,0,33.284,49.366,29.611\C,0,32.468
 ,50.557,29.051\C,0,32.649,50.386,27.548\C,0,31.056,50.639,29.507\C,0,3
 4.501,49.72,30.352\C,0,34.414,49.696,31.856\C,0,33.015,49.56,32.542\O,

 Normal termination of Gaussian 16 at Thu Apr 28 02:56:26 2022.
