 Gaussian 16, Revision A.03,
 Gaussian 16:  ES64L-G16RevA.03 25-Dec-2016

 ------------------------------
 #p blyp/Def2SVP td=(nstates=5)
 ------------------------------

 --------------------------------------------------
 step_1001_chromophore_9 TDDFT with blyp functional
 --------------------------------------------------
 Symbolic Z-matrix:
 Charge =  0 Multiplicity = 1

                         Standard orientation:
 ---------------------------------------------------------------------
 Center     Atomic      Atomic             Coordinates (Angstroms)
 Number     Number       Type             X           Y           Z
 ---------------------------------------------------------------------
      1         12           0       -5.073205    0.824819   -0.187088
      2          6           0       -3.652500   -2.406851    0.097301
      3          6           0       -1.822080    2.013740   -0.892928
      4          6           0       -6.192506    3.915474    0.172463
      5          6           0       -8.178135   -0.559310    0.679744
      6          7           0       -2.960130   -0.113551   -0.422089
      7          6           0       -2.668607   -1.423987   -0.218725
      8          6           0       -1.187586   -1.643386   -0.735443
      9          6           0       -0.555790   -0.185158   -0.636787
     10          6           0       -1.868018    0.627863   -0.631440
     11          6           0        0.360211    0.034585    0.649270
     12          6           0       -1.114450   -2.390072   -2.151077
     13          6           0       -0.412893   -3.691127   -2.201600
     14          6           0        0.620422   -3.921361   -1.118854
     15          8           0        0.575808   -4.797296   -0.206678
     16          8           0        1.544620   -2.971994   -1.142177
     17          7           0       -4.098694    2.740432   -0.511216
     18          6           0       -2.834749    2.972742   -0.813200
     19          6           0       -2.667237    4.431046   -0.902410
     20          6           0       -3.966898    4.988065   -0.650609
     21          6           0       -4.847088    3.838214   -0.325994
     22          6           0       -1.330774    5.036989   -1.473746
     23          6           0       -4.477300    6.466054   -0.451851
     24          8           0       -5.666357    6.799919   -0.316131
     25          6           0       -3.585572    7.584690   -0.611616
     26          7           0       -6.908533    1.583942    0.348380
     27          6           0       -7.112366    2.887529    0.504964
     28          6           0       -8.553914    3.186986    0.897834
     29          6           0       -9.251416    1.757384    0.933675
     30          6           0       -8.077858    0.844948    0.582574
     31          6           0       -8.641207    3.865168    2.284350
     32          6           0      -10.415234    1.688760   -0.039846
     33          6           0      -10.147810    1.248160   -1.492145
     34          7           0       -5.790914   -1.069516    0.205958
     35          6           0       -7.042795   -1.472356    0.618155
     36          6           0       -7.042926   -2.916436    0.950961
     37          6           0       -5.742273   -3.335125    0.659867
     38          6           0       -4.998306   -2.130675    0.255380
     39          6           0       -8.220196   -3.758337    1.523817
     40          6           0       -4.864327   -4.486854    0.691473
     41          8           0       -5.057896   -5.674540    0.939610
     42          6           0       -3.450496   -3.922378    0.268271
     43          6           0       -2.469377   -4.312766    1.311218
     44          8           0       -2.193026   -3.555964    2.241721
     45          8           0       -1.980288   -5.582027    1.123660
     46          6           0       -1.088967   -6.086827    2.151803
     47          6           0        2.626527   -3.371593   -0.206482
     48          6           0        3.880808   -2.490412   -0.474300
     49          6           0        4.918920   -2.747817   -1.250109
     50          6           0        5.039635   -3.934339   -2.124151
     51          6           0        6.122127   -1.847264   -1.211788
     52          6           0        6.322593   -0.998306   -2.423796
     53          6           0        7.698327   -1.178111   -3.159825
     54          6           0        8.428040    0.146044   -3.442237
     55          6           0        9.179547    0.214149   -4.757240
     56          6           0        9.368541    0.371452   -2.247188
     57          6           0        9.707142    1.827556   -1.859587
     58          6           0       11.163268    2.164313   -1.455013
     59          6           0       11.280103    2.432634    0.095257
     60          6           0       12.326230    3.403162    0.504739
     61          6           0       11.501736    1.088501    0.933280
     62          6           0       10.608541    1.024406    2.215357
     63          6           0       11.246276    0.295529    3.515919
     64          6           0       11.382484    1.229442    4.769708
     65          6           0        9.982257    1.759103    5.151048
     66          6           0       12.485858    2.274709    4.620752
     67          1           0       -0.877939    2.468752   -1.199663
     68          1           0       -6.674769    4.895149    0.197713
     69          1           0       -9.154762   -0.927467    1.000183
     70          1           0       -0.739160   -2.211230    0.080247
     71          1           0       -0.111981    0.023345   -1.610299
     72          1           0        0.414579   -0.851739    1.281729
     73          1           0       -0.080639    0.824802    1.257409
     74          1           0        1.391268    0.351372    0.494105
     75          1           0       -0.678747   -1.684913   -2.858426
     76          1           0       -2.146781   -2.409535   -2.500342
     77          1           0        0.058487   -3.909552   -3.160183
     78          1           0       -1.113033   -4.525605   -2.163452
     79          1           0       -1.409156    6.054881   -1.855218
     80          1           0       -1.006982    4.411773   -2.305117
     81          1           0       -0.571477    5.058190   -0.691738
     82          1           0       -3.259303    7.507907   -1.648902
     83          1           0       -2.868284    7.405396    0.189532
     84          1           0       -4.057577    8.550481   -0.435154
     85          1           0       -9.032984    3.880030    0.205994
     86          1           0       -9.646963    1.391139    1.881109
     87          1           0       -9.029973    3.121105    2.979355
     88          1           0       -9.233525    4.779096    2.322172
     89          1           0       -7.682420    4.069823    2.759860
     90          1           0      -10.747752    2.711909   -0.211422
     91          1           0      -11.252952    1.152724    0.406901
     92          1           0      -10.284336    2.034135   -2.236344
     93          1           0      -10.871786    0.545031   -1.904872
     94          1           0       -9.199365    0.735815   -1.651116
     95          1           0       -9.063843   -3.067992    1.554230
     96          1           0       -7.875551   -4.132280    2.488020
     97          1           0       -8.404214   -4.454657    0.705498
     98          1           0       -3.188242   -4.472720   -0.635218
     99          1           0       -1.628181   -6.171864    3.095396
    100          1           0       -0.271331   -5.388660    2.328725
    101          1           0       -0.664426   -7.040832    1.841969
    102          1           0        2.818876   -4.434067   -0.354016
    103          1           0        2.370851   -3.227969    0.843124
    104          1           0        3.854460   -1.566775    0.104031
    105          1           0        5.002187   -3.699372   -3.187047
    106          1           0        4.191534   -4.609968   -2.011615
    107          1           0        5.943365   -4.430259   -1.770003
    108          1           0        7.047806   -2.401005   -1.050058
    109          1           0        6.047950   -1.232065   -0.314810
    110          1           0        6.264292    0.071239   -2.219738
    111          1           0        5.592177   -1.276223   -3.183376
    112          1           0        7.580308   -1.700116   -4.109355
    113          1           0        8.340864   -1.770658   -2.507846
    114          1           0        7.808892    1.042642   -3.426704
    115          1           0        9.914141    1.018497   -4.727072
    116          1           0        8.525935    0.503386   -5.580540
    117          1           0        9.550684   -0.797231   -4.922918
    118          1           0       10.263623   -0.224923   -2.424196
    119          1           0        8.930828   -0.081974   -1.357308
    120          1           0        9.043006    2.225955   -1.092676
    121          1           0        9.494828    2.536751   -2.659778
    122          1           0       11.430786    3.063182   -2.010246
    123          1           0       11.807757    1.344575   -1.774138
    124          1           0       10.389190    2.880662    0.537235
    125          1           0       12.065398    4.183096    1.220023
    126          1           0       12.653142    4.024459   -0.329614
    127          1           0       13.231544    2.925941    0.879860
    128          1           0       12.482618    1.054987    1.407471
    129          1           0       11.357038    0.195130    0.325149
    130          1           0        9.687904    0.493123    1.975243
    131          1           0       10.341550    2.006867    2.605218
    132          1           0       12.170114   -0.170725    3.174101
    133          1           0       10.609717   -0.529960    3.834487
    134          1           0       11.614452    0.557354    5.595411
    135          1           0        9.922844    2.837713    5.005241
    136          1           0        9.976110    1.632784    6.233947
    137          1           0        9.115927    1.230519    4.753376
    138          1           0       12.163072    3.236048    5.018780
    139          1           0       12.833178    2.392550    3.594029
    140          1           0       13.320956    1.888970    5.206269
 ---------------------------------------------------------------------

 SCF Done:  E(RB-LYP) =  -3007.37996031     A.U. after   21 cycles

 Excitation energies and oscillator strengths:

 Excited State   1:      Singlet-A      1.8377 eV  674.69 nm  f=0.3129  <S**2>=0.000
     245 -> 248       -0.20703
     246 -> 247        0.68375
     246 <- 247       -0.14230
 This state for optimization and/or second-order correction.
 Total Energy, E(TD-HF/TD-DFT) =  -3007.31242754
 Copying the excited state density for this state as the 1-particle RhoCI density.

 Excited State   2:      Singlet-A      1.9028 eV  651.60 nm  f=0.0032  <S**2>=0.000
     244 -> 247        0.70395

 Excited State   3:      Singlet-A      2.0253 eV  612.18 nm  f=0.0142  <S**2>=0.000
     243 -> 247        0.61926
     245 -> 247        0.31551
     246 -> 248        0.11667

 Excited State   4:      Singlet-A      2.0749 eV  597.55 nm  f=0.0453  <S**2>=0.000
     243 -> 247       -0.33676
     245 -> 247        0.55855
     246 -> 248        0.25566

 Excited State   5:      Singlet-A      2.5626 eV  483.83 nm  f=0.0029  <S**2>=0.000
     242 -> 247        0.70481

 The electronic state is 1-A.
 Alpha  occ. eigenvalues --  -46.27548 -18.83471 -18.80636 -18.76686 -18.75469
 Alpha  occ. eigenvalues --  -18.75209 -18.75185 -14.03078 -14.03051 -14.01403
 Alpha  occ. eigenvalues --  -14.00696 -10.04360 -10.02541  -9.99646  -9.99380
 Alpha  occ. eigenvalues --   -9.98135  -9.96387  -9.96338  -9.96166  -9.96139
 Alpha  occ. eigenvalues --   -9.96089  -9.95770  -9.95739  -9.94990  -9.94589
 Alpha  occ. eigenvalues --   -9.94239  -9.94092  -9.93810  -9.93724  -9.93707
 Alpha  occ. eigenvalues --   -9.93693  -9.93692  -9.93571  -9.93536  -9.93470
 Alpha  occ. eigenvalues --   -9.93269  -9.93192  -9.93124  -9.93100  -9.92757
 Alpha  occ. eigenvalues --   -9.92581  -9.92476  -9.92392  -9.92374  -9.91999
 Alpha  occ. eigenvalues --   -9.91981  -9.91967  -9.91933  -9.91929  -9.91896
 Alpha  occ. eigenvalues --   -9.91757  -9.91598  -9.91598  -9.91562  -9.91519
 Alpha  occ. eigenvalues --   -9.91277  -9.91195  -9.91183  -9.91175  -9.91170
 Alpha  occ. eigenvalues --   -9.91141  -9.91079  -9.91054  -9.90960  -9.90791
 Alpha  occ. eigenvalues --   -9.90257  -2.92086  -1.72532  -1.71959  -1.71797
 Alpha  occ. eigenvalues --   -0.99716  -0.95972  -0.90610  -0.90594  -0.88415
 Alpha  occ. eigenvalues --   -0.88253  -0.86707  -0.86190  -0.85787  -0.85214
 Alpha  occ. eigenvalues --   -0.74841  -0.74665  -0.73292  -0.72737  -0.72442
 Alpha  occ. eigenvalues --   -0.72048  -0.71120  -0.70924  -0.70209  -0.69683
 Alpha  occ. eigenvalues --   -0.69038  -0.68964  -0.68227  -0.66886  -0.66763
 Alpha  occ. eigenvalues --   -0.66414  -0.66048  -0.65212  -0.64573  -0.64457
 Alpha  occ. eigenvalues --   -0.64051  -0.62166  -0.61848  -0.61340  -0.61267
 Alpha  occ. eigenvalues --   -0.60508  -0.60204  -0.59924  -0.59634  -0.58752
 Alpha  occ. eigenvalues --   -0.58506  -0.57473  -0.56774  -0.55988  -0.55159
 Alpha  occ. eigenvalues --   -0.53963  -0.53691  -0.52673  -0.52248  -0.51286
 Alpha  occ. eigenvalues --   -0.51149  -0.51091  -0.50622  -0.50211  -0.49885
 Alpha  occ. eigenvalues --   -0.49820  -0.49475  -0.47417  -0.47303  -0.47033
 Alpha  occ. eigenvalues --   -0.45988  -0.45631  -0.45137  -0.44702  -0.44059
 Alpha  occ. eigenvalues --   -0.43701  -0.43363  -0.42872  -0.42458  -0.42258
 Alpha  occ. eigenvalues --   -0.41961  -0.41827  -0.41625  -0.41278  -0.41107
 Alpha  occ. eigenvalues --   -0.40855  -0.40676  -0.40563  -0.40374  -0.40190
 Alpha  occ. eigenvalues --   -0.39578  -0.39464  -0.39268  -0.39101  -0.38977
 Alpha  occ. eigenvalues --   -0.38898  -0.38848  -0.38607  -0.38445  -0.38361
 Alpha  occ. eigenvalues --   -0.38290  -0.37967  -0.37729  -0.37656  -0.37312
 Alpha  occ. eigenvalues --   -0.37147  -0.36997  -0.36757  -0.36558  -0.36366
 Alpha  occ. eigenvalues --   -0.36051  -0.35681  -0.35602  -0.35421  -0.35378
 Alpha  occ. eigenvalues --   -0.35096  -0.34997  -0.34738  -0.34643  -0.34620
 Alpha  occ. eigenvalues --   -0.34556  -0.34339  -0.34253  -0.34133  -0.33860
 Alpha  occ. eigenvalues --   -0.33740  -0.33481  -0.33369  -0.33159  -0.32696
 Alpha  occ. eigenvalues --   -0.32511  -0.32422  -0.32177  -0.32150  -0.31982
 Alpha  occ. eigenvalues --   -0.31671  -0.31632  -0.31375  -0.31342  -0.31130
 Alpha  occ. eigenvalues --   -0.31073  -0.30964  -0.30617  -0.30531  -0.30489
 Alpha  occ. eigenvalues --   -0.30277  -0.30042  -0.29849  -0.29697  -0.29538
 Alpha  occ. eigenvalues --   -0.29313  -0.29229  -0.28977  -0.28829  -0.28749
 Alpha  occ. eigenvalues --   -0.28526  -0.28251  -0.28187  -0.28138  -0.27849
 Alpha  occ. eigenvalues --   -0.27616  -0.27248  -0.26990  -0.26973  -0.26490
 Alpha  occ. eigenvalues --   -0.26068  -0.25902  -0.25779  -0.25477  -0.25200
 Alpha  occ. eigenvalues --   -0.24913  -0.24806  -0.23992  -0.23643  -0.23478
 Alpha  occ. eigenvalues --   -0.22822  -0.22419  -0.21757  -0.21079  -0.20881
 Alpha  occ. eigenvalues --   -0.20530  -0.20361  -0.18392  -0.17936  -0.17027
 Alpha  occ. eigenvalues --   -0.15451
 Alpha virt. eigenvalues --   -0.11025  -0.06607  -0.06116  -0.04560  -0.03633
 Alpha virt. eigenvalues --   -0.02608  -0.01963  -0.01244  -0.00649   0.00184
 Alpha virt. eigenvalues --    0.00895   0.01611   0.02099   0.02569   0.02729

 Mulliken charges:
               1
     1  Mg   0.691717
     2  C    0.031199
     3  C   -0.044734
     4  C   -0.022280
     5  C   -0.051681
     6  N   -0.158770
     7  C   -0.101592
     8  C   -0.042211
     9  C    0.009203
    10  C    0.017174
    11  C    0.123171
    12  C    0.164243
    13  C    0.208360
    14  C    0.050997
    15  O   -0.237400
    16  O   -0.237975
    17  N   -0.216646
    18  C    0.062470
    19  C   -0.141706
    20  C   -0.002761
    21  C    0.079618
    22  C    0.140607
    23  C   -0.060765
    24  O   -0.187948
    25  C    0.167083
    26  N   -0.258939
    27  C    0.035476
    28  C   -0.000141
    29  C    0.066601
    30  C    0.002412
    31  C    0.125724
    32  C    0.096180
    33  C    0.047721
    34  N   -0.236201
    35  C    0.105802
    36  C   -0.229823
    37  C    0.071286
    38  C    0.092243
    39  C    0.201748
    40  C   -0.054563
    41  O   -0.127699
    42  C    0.040743
    43  C    0.114637
    44  O   -0.208266
    45  O   -0.253611
    46  C    0.249262
    47  C    0.276999
    48  C   -0.101754
    49  C   -0.134297
    50  C    0.171945
    51  C    0.156238
    52  C    0.089360
    53  C    0.103736
    54  C   -0.094868
    55  C    0.124235
    56  C    0.084875
    57  C    0.073037
    58  C    0.124047
    59  C   -0.060974
    60  C    0.106473
    61  C    0.110756
    62  C    0.016198
    63  C    0.059538
    64  C   -0.095361
    65  C    0.102261
    66  C    0.124809
    67  H   -0.072698
    68  H   -0.040200
    69  H   -0.058943
    70  H    0.003064
    71  H   -0.026561
    72  H    0.005525
    73  H   -0.010806
    74  H   -0.004037
    75  H   -0.030816
    76  H   -0.018598
    77  H   -0.014087
    78  H   -0.013084
    79  H   -0.014584
    80  H    0.013287
    81  H    0.003092
    82  H    0.025896
    83  H   -0.000040
    84  H   -0.008960
    85  H   -0.007982
    86  H   -0.021789
    87  H   -0.028638
    88  H    0.000836
    89  H   -0.011745
    90  H   -0.028703
    91  H   -0.023786
    92  H   -0.017856
    93  H   -0.026284
    94  H    0.008816
    95  H   -0.025671
    96  H    0.034044
    97  H    0.017861
    98  H    0.001433
    99  H    0.000848
   100  H    0.003092
   101  H    0.010681
   102  H    0.002010
   103  H    0.007604
   104  H   -0.040003
   105  H    0.005037
   106  H   -0.028258
   107  H    0.001905
   108  H   -0.030781
   109  H   -0.041651
   110  H   -0.021906
   111  H   -0.021898
   112  H   -0.043606
   113  H   -0.035157
   114  H   -0.039843
   115  H   -0.017395
   116  H   -0.020679
   117  H   -0.012621
   118  H   -0.037438
   119  H   -0.033973
   120  H   -0.039786
   121  H   -0.043953
   122  H   -0.041751
   123  H   -0.025879
   124  H   -0.029936
   125  H   -0.018394
   126  H   -0.040834
   127  H   -0.019376
   128  H   -0.031712
   129  H   -0.027829
   130  H   -0.028098
   131  H   -0.021816
   132  H   -0.036978
   133  H   -0.040025
   134  H   -0.034590
   135  H   -0.017613
   136  H   -0.024257
   137  H   -0.006657
   138  H   -0.019534
   139  H   -0.007055
   140  H   -0.015101
 Sum of Mulliken charges =  -0.00000

 Dipole moment (field-independent basis, Debye):
    X=              3.3596    Y=              2.4654    Z=             -2.8954  Tot=              5.0743
 Quadrupole moment (field-independent basis, Debye-Ang):
   XX=           -380.2163   YY=           -437.1006   ZZ=           -397.1990
   XY=             -8.9268   XZ=             -0.0901   YZ=              8.8571

 Normal termination of Gaussian 16 at Tue Apr 26 23:54:03 2022.
