 Gaussian 16, Revision A.03,
 Gaussian 16:  ES64L-G16RevA.03 25-Dec-2016

 -----------------------------------
 #p cam-b3lyp/Def2SVP td=(nstates=5)
 -----------------------------------

 -------------------------------------------------------
 step_1001_chromophore_9 TDDFT with cam-b3lyp functional
 -------------------------------------------------------
 Symbolic Z-matrix:
 Charge =  0 Multiplicity = 1

                         Standard orientation:
 ---------------------------------------------------------------------
 Center     Atomic      Atomic             Coordinates (Angstroms)
 Number     Number       Type             X           Y           Z
 ---------------------------------------------------------------------
      1         12           0       -5.073205    0.824819   -0.187088
      2          6           0       -3.652500   -2.406851    0.097301
      3          6           0       -1.822080    2.013740   -0.892928
      4          6           0       -6.192506    3.915474    0.172463
      5          6           0       -8.178135   -0.559310    0.679744
      6          7           0       -2.960130   -0.113551   -0.422089
      7          6           0       -2.668607   -1.423987   -0.218725
      8          6           0       -1.187586   -1.643386   -0.735443
      9          6           0       -0.555790   -0.185158   -0.636787
     10          6           0       -1.868018    0.627863   -0.631440
     11          6           0        0.360211    0.034585    0.649270
     12          6           0       -1.114450   -2.390072   -2.151077
     13          6           0       -0.412893   -3.691127   -2.201600
     14          6           0        0.620422   -3.921361   -1.118854
     15          8           0        0.575808   -4.797296   -0.206678
     16          8           0        1.544620   -2.971994   -1.142177
     17          7           0       -4.098694    2.740432   -0.511216
     18          6           0       -2.834749    2.972742   -0.813200
     19          6           0       -2.667237    4.431046   -0.902410
     20          6           0       -3.966898    4.988065   -0.650609
     21          6           0       -4.847088    3.838214   -0.325994
     22          6           0       -1.330774    5.036989   -1.473746
     23          6           0       -4.477300    6.466054   -0.451851
     24          8           0       -5.666357    6.799919   -0.316131
     25          6           0       -3.585572    7.584690   -0.611616
     26          7           0       -6.908533    1.583942    0.348380
     27          6           0       -7.112366    2.887529    0.504964
     28          6           0       -8.553914    3.186986    0.897834
     29          6           0       -9.251416    1.757384    0.933675
     30          6           0       -8.077858    0.844948    0.582574
     31          6           0       -8.641207    3.865168    2.284350
     32          6           0      -10.415234    1.688760   -0.039846
     33          6           0      -10.147810    1.248160   -1.492145
     34          7           0       -5.790914   -1.069516    0.205958
     35          6           0       -7.042795   -1.472356    0.618155
     36          6           0       -7.042926   -2.916436    0.950961
     37          6           0       -5.742273   -3.335125    0.659867
     38          6           0       -4.998306   -2.130675    0.255380
     39          6           0       -8.220196   -3.758337    1.523817
     40          6           0       -4.864327   -4.486854    0.691473
     41          8           0       -5.057896   -5.674540    0.939610
     42          6           0       -3.450496   -3.922378    0.268271
     43          6           0       -2.469377   -4.312766    1.311218
     44          8           0       -2.193026   -3.555964    2.241721
     45          8           0       -1.980288   -5.582027    1.123660
     46          6           0       -1.088967   -6.086827    2.151803
     47          6           0        2.626527   -3.371593   -0.206482
     48          6           0        3.880808   -2.490412   -0.474300
     49          6           0        4.918920   -2.747817   -1.250109
     50          6           0        5.039635   -3.934339   -2.124151
     51          6           0        6.122127   -1.847264   -1.211788
     52          6           0        6.322593   -0.998306   -2.423796
     53          6           0        7.698327   -1.178111   -3.159825
     54          6           0        8.428040    0.146044   -3.442237
     55          6           0        9.179547    0.214149   -4.757240
     56          6           0        9.368541    0.371452   -2.247188
     57          6           0        9.707142    1.827556   -1.859587
     58          6           0       11.163268    2.164313   -1.455013
     59          6           0       11.280103    2.432634    0.095257
     60          6           0       12.326230    3.403162    0.504739
     61          6           0       11.501736    1.088501    0.933280
     62          6           0       10.608541    1.024406    2.215357
     63          6           0       11.246276    0.295529    3.515919
     64          6           0       11.382484    1.229442    4.769708
     65          6           0        9.982257    1.759103    5.151048
     66          6           0       12.485858    2.274709    4.620752
     67          1           0       -0.877939    2.468752   -1.199663
     68          1           0       -6.674769    4.895149    0.197713
     69          1           0       -9.154762   -0.927467    1.000183
     70          1           0       -0.739160   -2.211230    0.080247
     71          1           0       -0.111981    0.023345   -1.610299
     72          1           0        0.414579   -0.851739    1.281729
     73          1           0       -0.080639    0.824802    1.257409
     74          1           0        1.391268    0.351372    0.494105
     75          1           0       -0.678747   -1.684913   -2.858426
     76          1           0       -2.146781   -2.409535   -2.500342
     77          1           0        0.058487   -3.909552   -3.160183
     78          1           0       -1.113033   -4.525605   -2.163452
     79          1           0       -1.409156    6.054881   -1.855218
     80          1           0       -1.006982    4.411773   -2.305117
     81          1           0       -0.571477    5.058190   -0.691738
     82          1           0       -3.259303    7.507907   -1.648902
     83          1           0       -2.868284    7.405396    0.189532
     84          1           0       -4.057577    8.550481   -0.435154
     85          1           0       -9.032984    3.880030    0.205994
     86          1           0       -9.646963    1.391139    1.881109
     87          1           0       -9.029973    3.121105    2.979355
     88          1           0       -9.233525    4.779096    2.322172
     89          1           0       -7.682420    4.069823    2.759860
     90          1           0      -10.747752    2.711909   -0.211422
     91          1           0      -11.252952    1.152724    0.406901
     92          1           0      -10.284336    2.034135   -2.236344
     93          1           0      -10.871786    0.545031   -1.904872
     94          1           0       -9.199365    0.735815   -1.651116
     95          1           0       -9.063843   -3.067992    1.554230
     96          1           0       -7.875551   -4.132280    2.488020
     97          1           0       -8.404214   -4.454657    0.705498
     98          1           0       -3.188242   -4.472720   -0.635218
     99          1           0       -1.628181   -6.171864    3.095396
    100          1           0       -0.271331   -5.388660    2.328725
    101          1           0       -0.664426   -7.040832    1.841969
    102          1           0        2.818876   -4.434067   -0.354016
    103          1           0        2.370851   -3.227969    0.843124
    104          1           0        3.854460   -1.566775    0.104031
    105          1           0        5.002187   -3.699372   -3.187047
    106          1           0        4.191534   -4.609968   -2.011615
    107          1           0        5.943365   -4.430259   -1.770003
    108          1           0        7.047806   -2.401005   -1.050058
    109          1           0        6.047950   -1.232065   -0.314810
    110          1           0        6.264292    0.071239   -2.219738
    111          1           0        5.592177   -1.276223   -3.183376
    112          1           0        7.580308   -1.700116   -4.109355
    113          1           0        8.340864   -1.770658   -2.507846
    114          1           0        7.808892    1.042642   -3.426704
    115          1           0        9.914141    1.018497   -4.727072
    116          1           0        8.525935    0.503386   -5.580540
    117          1           0        9.550684   -0.797231   -4.922918
    118          1           0       10.263623   -0.224923   -2.424196
    119          1           0        8.930828   -0.081974   -1.357308
    120          1           0        9.043006    2.225955   -1.092676
    121          1           0        9.494828    2.536751   -2.659778
    122          1           0       11.430786    3.063182   -2.010246
    123          1           0       11.807757    1.344575   -1.774138
    124          1           0       10.389190    2.880662    0.537235
    125          1           0       12.065398    4.183096    1.220023
    126          1           0       12.653142    4.024459   -0.329614
    127          1           0       13.231544    2.925941    0.879860
    128          1           0       12.482618    1.054987    1.407471
    129          1           0       11.357038    0.195130    0.325149
    130          1           0        9.687904    0.493123    1.975243
    131          1           0       10.341550    2.006867    2.605218
    132          1           0       12.170114   -0.170725    3.174101
    133          1           0       10.609717   -0.529960    3.834487
    134          1           0       11.614452    0.557354    5.595411
    135          1           0        9.922844    2.837713    5.005241
    136          1           0        9.976110    1.632784    6.233947
    137          1           0        9.115927    1.230519    4.753376
    138          1           0       12.163072    3.236048    5.018780
    139          1           0       12.833178    2.392550    3.594029
    140          1           0       13.320956    1.888970    5.206269
 ---------------------------------------------------------------------

 SCF Done:  E(RCAM-B3LYP) =  -3007.17382256     A.U. after   17 cycles

 Excitation energies and oscillator strengths:

 Excited State   1:      Singlet-A      1.7369 eV  713.81 nm  f=0.3830  <S**2>=0.000
     245 -> 248       -0.19163
     246 -> 247        0.68305
     245 <- 248       -0.11070
 This state for optimization and/or second-order correction.
 Total Energy, E(TD-HF/TD-DFT) =  -3007.10999104
 Copying the excited state density for this state as the 1-particle RhoCI density.

 Excited State   2:      Singlet-A      2.2816 eV  543.41 nm  f=0.0752  <S**2>=0.000
     245 -> 247        0.62210
     246 -> 248        0.32873

 Excited State   3:      Singlet-A      3.4869 eV  355.57 nm  f=0.5885  <S**2>=0.000
     243 -> 247       -0.17935
     244 -> 247        0.21620
     245 -> 247       -0.27998
     246 -> 248        0.56734
     245 <- 247        0.10418

 Excited State   4:      Singlet-A      3.5362 eV  350.62 nm  f=0.0080  <S**2>=0.000
     241 -> 247       -0.11846
     241 -> 249       -0.11038
     242 -> 247        0.24158
     242 -> 250       -0.12257
     243 -> 247        0.25862
     243 -> 249        0.24755
     243 -> 250       -0.10433
     244 -> 247        0.41095
     244 -> 249        0.15809
     244 -> 250       -0.10798

 Excited State   5:      Singlet-A      3.5537 eV  348.89 nm  f=0.0046  <S**2>=0.000
     241 -> 247        0.11806
     242 -> 247        0.39870
     242 -> 249       -0.29138
     242 -> 250       -0.20562
     243 -> 247       -0.34110
     243 -> 249        0.10717
     243 -> 250        0.16335

 The electronic state is 1-A.
 Alpha  occ. eigenvalues --  -46.89127 -19.26413 -19.23466 -19.19577 -19.18556
 Alpha  occ. eigenvalues --  -19.18502 -19.18225 -14.41960 -14.41818 -14.39813
 Alpha  occ. eigenvalues --  -14.39160 -10.39616 -10.37986 -10.34977 -10.34664
 Alpha  occ. eigenvalues --  -10.32340 -10.30716 -10.30702 -10.30678 -10.30642
 Alpha  occ. eigenvalues --  -10.30337 -10.30193 -10.29612 -10.29423 -10.29175
 Alpha  occ. eigenvalues --  -10.28718 -10.28140 -10.28008 -10.27934 -10.27825
 Alpha  occ. eigenvalues --  -10.27814 -10.27613 -10.27599 -10.27596 -10.27586
 Alpha  occ. eigenvalues --  -10.27572 -10.27390 -10.27220 -10.27179 -10.26688
 Alpha  occ. eigenvalues --  -10.26397 -10.26210 -10.26120 -10.25977 -10.25924
 Alpha  occ. eigenvalues --  -10.25889 -10.25724 -10.25718 -10.25691 -10.25568
 Alpha  occ. eigenvalues --  -10.25546 -10.25457 -10.25311 -10.25284 -10.25211
 Alpha  occ. eigenvalues --  -10.25026 -10.25021 -10.24944 -10.24886 -10.24860
 Alpha  occ. eigenvalues --  -10.24856 -10.24734 -10.24700 -10.24564 -10.24406
 Alpha  occ. eigenvalues --  -10.23849  -3.17567  -1.92490  -1.92015  -1.91865
 Alpha  occ. eigenvalues --   -1.18173  -1.14405  -1.09082  -1.08878  -1.06226
 Alpha  occ. eigenvalues --   -1.06082  -1.04456  -1.03794  -1.03420  -1.02712
 Alpha  occ. eigenvalues --   -0.91795  -0.91712  -0.90108  -0.89477  -0.89056
 Alpha  occ. eigenvalues --   -0.88797  -0.87776  -0.87540  -0.86701  -0.86189
 Alpha  occ. eigenvalues --   -0.85800  -0.85313  -0.84507  -0.83008  -0.82883
 Alpha  occ. eigenvalues --   -0.82576  -0.82297  -0.81031  -0.80438  -0.80270
 Alpha  occ. eigenvalues --   -0.79841  -0.77790  -0.77497  -0.76823  -0.76693
 Alpha  occ. eigenvalues --   -0.75906  -0.75520  -0.75238  -0.74873  -0.74013
 Alpha  occ. eigenvalues --   -0.73594  -0.72428  -0.71685  -0.70802  -0.69771
 Alpha  occ. eigenvalues --   -0.68571  -0.68261  -0.67107  -0.66725  -0.65547
 Alpha  occ. eigenvalues --   -0.65394  -0.64972  -0.64542  -0.64125  -0.63904
 Alpha  occ. eigenvalues --   -0.63854  -0.63469  -0.61073  -0.61009  -0.60665
 Alpha  occ. eigenvalues --   -0.59640  -0.59104  -0.58578  -0.58113  -0.57344
 Alpha  occ. eigenvalues --   -0.57083  -0.56819  -0.56093  -0.55420  -0.55357
 Alpha  occ. eigenvalues --   -0.55161  -0.54962  -0.54451  -0.54266  -0.54046
 Alpha  occ. eigenvalues --   -0.53548  -0.53512  -0.53319  -0.53247  -0.52878
 Alpha  occ. eigenvalues --   -0.52466  -0.52160  -0.51798  -0.51734  -0.51633
 Alpha  occ. eigenvalues --   -0.51510  -0.51279  -0.51120  -0.50887  -0.50773
 Alpha  occ. eigenvalues --   -0.50590  -0.50473  -0.50266  -0.50016  -0.49724
 Alpha  occ. eigenvalues --   -0.49533  -0.49369  -0.49230  -0.48736  -0.48630
 Alpha  occ. eigenvalues --   -0.48413  -0.48028  -0.47836  -0.47589  -0.47471
 Alpha  occ. eigenvalues --   -0.47304  -0.47150  -0.46857  -0.46648  -0.46479
 Alpha  occ. eigenvalues --   -0.46435  -0.46092  -0.46057  -0.45900  -0.45604
 Alpha  occ. eigenvalues --   -0.45540  -0.45251  -0.45104  -0.44887  -0.44399
 Alpha  occ. eigenvalues --   -0.44122  -0.43967  -0.43833  -0.43718  -0.43598
 Alpha  occ. eigenvalues --   -0.43333  -0.43168  -0.43084  -0.43031  -0.42994
 Alpha  occ. eigenvalues --   -0.42693  -0.42456  -0.41961  -0.41800  -0.41739
 Alpha  occ. eigenvalues --   -0.41536  -0.41440  -0.41191  -0.40978  -0.40823
 Alpha  occ. eigenvalues --   -0.40619  -0.40379  -0.40250  -0.40067  -0.39937
 Alpha  occ. eigenvalues --   -0.39758  -0.39703  -0.39238  -0.39100  -0.38756
 Alpha  occ. eigenvalues --   -0.38620  -0.38070  -0.37956  -0.37745  -0.37254
 Alpha  occ. eigenvalues --   -0.37213  -0.36782  -0.36535  -0.36522  -0.35888
 Alpha  occ. eigenvalues --   -0.35680  -0.35356  -0.35164  -0.34353  -0.33842
 Alpha  occ. eigenvalues --   -0.33645  -0.32983  -0.32635  -0.31389  -0.31013
 Alpha  occ. eigenvalues --   -0.30421  -0.30327  -0.30206  -0.29916  -0.23747
 Alpha  occ. eigenvalues --   -0.20647
 Alpha virt. eigenvalues --   -0.07994  -0.01543   0.00443   0.02408   0.03227
 Alpha virt. eigenvalues --    0.04375   0.04812   0.05539   0.06350   0.06865
 Alpha virt. eigenvalues --    0.07918   0.08181   0.08715   0.08901   0.09192

 Mulliken charges:
               1
     1  Mg   0.824720
     2  C    0.003138
     3  C   -0.057293
     4  C   -0.046458
     5  C   -0.057266
     6  N   -0.226388
     7  C   -0.049774
     8  C   -0.093850
     9  C   -0.040315
    10  C    0.032387
    11  C    0.069454
    12  C    0.109675
    13  C    0.137187
    14  C    0.120883
    15  O   -0.280779
    16  O   -0.295808
    17  N   -0.308492
    18  C    0.074629
    19  C   -0.139949
    20  C   -0.063584
    21  C    0.105779
    22  C    0.083162
    23  C    0.016184
    24  O   -0.227989
    25  C    0.081689
    26  N   -0.336654
    27  C    0.061770
    28  C   -0.059706
    29  C    0.011461
    30  C    0.016369
    31  C    0.066740
    32  C    0.037005
    33  C   -0.012702
    34  N   -0.325858
    35  C    0.104390
    36  C   -0.224353
    37  C   -0.010251
    38  C    0.123406
    39  C    0.157342
    40  C    0.047377
    41  O   -0.166671
    42  C   -0.028778
    43  C    0.200609
    44  O   -0.244375
    45  O   -0.315652
    46  C    0.206648
    47  C    0.244153
    48  C   -0.119982
    49  C   -0.155869
    50  C    0.110450
    51  C    0.093020
    52  C    0.033913
    53  C    0.046972
    54  C   -0.149757
    55  C    0.067222
    56  C    0.035270
    57  C    0.017871
    58  C    0.069430
    59  C   -0.119108
    60  C    0.046850
    61  C    0.060955
    62  C   -0.032319
    63  C    0.009204
    64  C   -0.151318
    65  C    0.035554
    66  C    0.065467
    67  H   -0.035403
    68  H    0.001536
    69  H   -0.024821
    70  H    0.032904
    71  H    0.008733
    72  H    0.028386
    73  H    0.015208
    74  H    0.018664
    75  H    0.000423
    76  H    0.014630
    77  H    0.021195
    78  H    0.019999
    79  H    0.013602
    80  H    0.038858
    81  H    0.030656
    82  H    0.049478
    83  H    0.027217
    84  H    0.027370
    85  H    0.026034
    86  H    0.014194
    87  H   -0.002911
    88  H    0.025261
    89  H    0.015349
    90  H    0.000618
    91  H    0.005176
    92  H    0.006654
    93  H   -0.000444
    94  H    0.031579
    95  H   -0.002678
    96  H    0.057772
    97  H    0.042814
    98  H    0.041556
    99  H    0.024491
   100  H    0.026468
   101  H    0.034876
   102  H    0.032096
   103  H    0.034591
   104  H   -0.008808
   105  H    0.028817
   106  H   -0.002842
   107  H    0.025304
   108  H   -0.000582
   109  H   -0.008897
   110  H    0.007066
   111  H    0.007079
   112  H   -0.012964
   113  H   -0.006976
   114  H   -0.008663
   115  H    0.006282
   116  H    0.004662
   117  H    0.009941
   118  H   -0.010064
   119  H   -0.008350
   120  H   -0.010584
   121  H   -0.015098
   122  H   -0.010481
   123  H    0.001757
   124  H    0.002134
   125  H    0.006090
   126  H   -0.013677
   127  H    0.003772
   128  H   -0.006351
   129  H   -0.000883
   130  H   -0.001480
   131  H    0.002674
   132  H   -0.008368
   133  H   -0.010047
   134  H   -0.001761
   135  H    0.005697
   136  H    0.001541
   137  H    0.018396
   138  H    0.005060
   139  H    0.011560
   140  H    0.009878
 Sum of Mulliken charges =  -0.00000

 Dipole moment (field-independent basis, Debye):
    X=              3.8333    Y=              3.1544    Z=             -3.1093  Tot=              5.8577
 Quadrupole moment (field-independent basis, Debye-Ang):
   XX=           -380.8127   YY=           -433.4021   ZZ=           -396.5498
   XY=            -10.6666   XZ=              0.2717   YZ=              8.8661

 Normal termination of Gaussian 16 at Tue Apr 26 22:55:05 2022.
