 Gaussian 16, Revision A.03,
 Gaussian 16:  ES64L-G16RevA.03 25-Dec-2016

 ---------------------------------
 #p PBE1PBE/Def2SVP td=(nstates=5)
 ---------------------------------

 -----------------------------------------------------
 step_1001_chromophore_9 TDDFT with PBE1PBE functional
 -----------------------------------------------------
 Symbolic Z-matrix:
 Charge =  0 Multiplicity = 1

                         Standard orientation:
 ---------------------------------------------------------------------
 Center     Atomic      Atomic             Coordinates (Angstroms)
 Number     Number       Type             X           Y           Z
 ---------------------------------------------------------------------
      1         12           0       -5.073205    0.824819   -0.187088
      2          6           0       -3.652500   -2.406851    0.097301
      3          6           0       -1.822080    2.013740   -0.892928
      4          6           0       -6.192506    3.915474    0.172463
      5          6           0       -8.178135   -0.559310    0.679744
      6          7           0       -2.960130   -0.113551   -0.422089
      7          6           0       -2.668607   -1.423987   -0.218725
      8          6           0       -1.187586   -1.643386   -0.735443
      9          6           0       -0.555790   -0.185158   -0.636787
     10          6           0       -1.868018    0.627863   -0.631440
     11          6           0        0.360211    0.034585    0.649270
     12          6           0       -1.114450   -2.390072   -2.151077
     13          6           0       -0.412893   -3.691127   -2.201600
     14          6           0        0.620422   -3.921361   -1.118854
     15          8           0        0.575808   -4.797296   -0.206678
     16          8           0        1.544620   -2.971994   -1.142177
     17          7           0       -4.098694    2.740432   -0.511216
     18          6           0       -2.834749    2.972742   -0.813200
     19          6           0       -2.667237    4.431046   -0.902410
     20          6           0       -3.966898    4.988065   -0.650609
     21          6           0       -4.847088    3.838214   -0.325994
     22          6           0       -1.330774    5.036989   -1.473746
     23          6           0       -4.477300    6.466054   -0.451851
     24          8           0       -5.666357    6.799919   -0.316131
     25          6           0       -3.585572    7.584690   -0.611616
     26          7           0       -6.908533    1.583942    0.348380
     27          6           0       -7.112366    2.887529    0.504964
     28          6           0       -8.553914    3.186986    0.897834
     29          6           0       -9.251416    1.757384    0.933675
     30          6           0       -8.077858    0.844948    0.582574
     31          6           0       -8.641207    3.865168    2.284350
     32          6           0      -10.415234    1.688760   -0.039846
     33          6           0      -10.147810    1.248160   -1.492145
     34          7           0       -5.790914   -1.069516    0.205958
     35          6           0       -7.042795   -1.472356    0.618155
     36          6           0       -7.042926   -2.916436    0.950961
     37          6           0       -5.742273   -3.335125    0.659867
     38          6           0       -4.998306   -2.130675    0.255380
     39          6           0       -8.220196   -3.758337    1.523817
     40          6           0       -4.864327   -4.486854    0.691473
     41          8           0       -5.057896   -5.674540    0.939610
     42          6           0       -3.450496   -3.922378    0.268271
     43          6           0       -2.469377   -4.312766    1.311218
     44          8           0       -2.193026   -3.555964    2.241721
     45          8           0       -1.980288   -5.582027    1.123660
     46          6           0       -1.088967   -6.086827    2.151803
     47          6           0        2.626527   -3.371593   -0.206482
     48          6           0        3.880808   -2.490412   -0.474300
     49          6           0        4.918920   -2.747817   -1.250109
     50          6           0        5.039635   -3.934339   -2.124151
     51          6           0        6.122127   -1.847264   -1.211788
     52          6           0        6.322593   -0.998306   -2.423796
     53          6           0        7.698327   -1.178111   -3.159825
     54          6           0        8.428040    0.146044   -3.442237
     55          6           0        9.179547    0.214149   -4.757240
     56          6           0        9.368541    0.371452   -2.247188
     57          6           0        9.707142    1.827556   -1.859587
     58          6           0       11.163268    2.164313   -1.455013
     59          6           0       11.280103    2.432634    0.095257
     60          6           0       12.326230    3.403162    0.504739
     61          6           0       11.501736    1.088501    0.933280
     62          6           0       10.608541    1.024406    2.215357
     63          6           0       11.246276    0.295529    3.515919
     64          6           0       11.382484    1.229442    4.769708
     65          6           0        9.982257    1.759103    5.151048
     66          6           0       12.485858    2.274709    4.620752
     67          1           0       -0.877939    2.468752   -1.199663
     68          1           0       -6.674769    4.895149    0.197713
     69          1           0       -9.154762   -0.927467    1.000183
     70          1           0       -0.739160   -2.211230    0.080247
     71          1           0       -0.111981    0.023345   -1.610299
     72          1           0        0.414579   -0.851739    1.281729
     73          1           0       -0.080639    0.824802    1.257409
     74          1           0        1.391268    0.351372    0.494105
     75          1           0       -0.678747   -1.684913   -2.858426
     76          1           0       -2.146781   -2.409535   -2.500342
     77          1           0        0.058487   -3.909552   -3.160183
     78          1           0       -1.113033   -4.525605   -2.163452
     79          1           0       -1.409156    6.054881   -1.855218
     80          1           0       -1.006982    4.411773   -2.305117
     81          1           0       -0.571477    5.058190   -0.691738
     82          1           0       -3.259303    7.507907   -1.648902
     83          1           0       -2.868284    7.405396    0.189532
     84          1           0       -4.057577    8.550481   -0.435154
     85          1           0       -9.032984    3.880030    0.205994
     86          1           0       -9.646963    1.391139    1.881109
     87          1           0       -9.029973    3.121105    2.979355
     88          1           0       -9.233525    4.779096    2.322172
     89          1           0       -7.682420    4.069823    2.759860
     90          1           0      -10.747752    2.711909   -0.211422
     91          1           0      -11.252952    1.152724    0.406901
     92          1           0      -10.284336    2.034135   -2.236344
     93          1           0      -10.871786    0.545031   -1.904872
     94          1           0       -9.199365    0.735815   -1.651116
     95          1           0       -9.063843   -3.067992    1.554230
     96          1           0       -7.875551   -4.132280    2.488020
     97          1           0       -8.404214   -4.454657    0.705498
     98          1           0       -3.188242   -4.472720   -0.635218
     99          1           0       -1.628181   -6.171864    3.095396
    100          1           0       -0.271331   -5.388660    2.328725
    101          1           0       -0.664426   -7.040832    1.841969
    102          1           0        2.818876   -4.434067   -0.354016
    103          1           0        2.370851   -3.227969    0.843124
    104          1           0        3.854460   -1.566775    0.104031
    105          1           0        5.002187   -3.699372   -3.187047
    106          1           0        4.191534   -4.609968   -2.011615
    107          1           0        5.943365   -4.430259   -1.770003
    108          1           0        7.047806   -2.401005   -1.050058
    109          1           0        6.047950   -1.232065   -0.314810
    110          1           0        6.264292    0.071239   -2.219738
    111          1           0        5.592177   -1.276223   -3.183376
    112          1           0        7.580308   -1.700116   -4.109355
    113          1           0        8.340864   -1.770658   -2.507846
    114          1           0        7.808892    1.042642   -3.426704
    115          1           0        9.914141    1.018497   -4.727072
    116          1           0        8.525935    0.503386   -5.580540
    117          1           0        9.550684   -0.797231   -4.922918
    118          1           0       10.263623   -0.224923   -2.424196
    119          1           0        8.930828   -0.081974   -1.357308
    120          1           0        9.043006    2.225955   -1.092676
    121          1           0        9.494828    2.536751   -2.659778
    122          1           0       11.430786    3.063182   -2.010246
    123          1           0       11.807757    1.344575   -1.774138
    124          1           0       10.389190    2.880662    0.537235
    125          1           0       12.065398    4.183096    1.220023
    126          1           0       12.653142    4.024459   -0.329614
    127          1           0       13.231544    2.925941    0.879860
    128          1           0       12.482618    1.054987    1.407471
    129          1           0       11.357038    0.195130    0.325149
    130          1           0        9.687904    0.493123    1.975243
    131          1           0       10.341550    2.006867    2.605218
    132          1           0       12.170114   -0.170725    3.174101
    133          1           0       10.609717   -0.529960    3.834487
    134          1           0       11.614452    0.557354    5.595411
    135          1           0        9.922844    2.837713    5.005241
    136          1           0        9.976110    1.632784    6.233947
    137          1           0        9.115927    1.230519    4.753376
    138          1           0       12.163072    3.236048    5.018780
    139          1           0       12.833178    2.392550    3.594029
    140          1           0       13.320956    1.888970    5.206269
 ---------------------------------------------------------------------

 SCF Done:  E(RPBE1PBE) =  -3005.36211469     A.U. after   15 cycles

 Excitation energies and oscillator strengths:

 Excited State   1:      Singlet-A      1.8913 eV  655.54 nm  f=0.3759  <S**2>=0.000
     245 -> 248       -0.18604
     246 -> 247        0.68970
     246 <- 247       -0.10082
 This state for optimization and/or second-order correction.
 Total Energy, E(TD-HF/TD-DFT) =  -3005.29260988
 Copying the excited state density for this state as the 1-particle RhoCI density.

 Excited State   2:      Singlet-A      2.2883 eV  541.81 nm  f=0.0792  <S**2>=0.000
     245 -> 247        0.63742
     246 -> 248        0.29954

 Excited State   3:      Singlet-A      3.0255 eV  409.80 nm  f=0.0000  <S**2>=0.000
     244 -> 247        0.66949
     244 -> 249       -0.16724
     244 -> 250       -0.12322

 Excited State   4:      Singlet-A      3.0608 eV  405.07 nm  f=0.0004  <S**2>=0.000
     243 -> 247        0.66212
     243 -> 249        0.17868

 Excited State   5:      Singlet-A      3.2795 eV  378.05 nm  f=0.0986  <S**2>=0.000
     242 -> 247        0.58654
     245 -> 247        0.12620
     246 -> 248       -0.34636

 The electronic state is 1-A.
 Alpha  occ. eigenvalues --  -46.92508 -19.27019 -19.24134 -19.19915 -19.18875
 Alpha  occ. eigenvalues --  -19.18655 -19.18478 -14.41412 -14.41400 -14.39487
 Alpha  occ. eigenvalues --  -14.38724 -10.36666 -10.34998 -10.32020 -10.31884
 Alpha  occ. eigenvalues --  -10.29742 -10.28598 -10.28573 -10.28326 -10.28292
 Alpha  occ. eigenvalues --  -10.28114 -10.27884 -10.26953 -10.26855 -10.26700
 Alpha  occ. eigenvalues --  -10.26538 -10.25939 -10.25875 -10.25808 -10.25627
 Alpha  occ. eigenvalues --  -10.25423 -10.25400 -10.25286 -10.25251 -10.25186
 Alpha  occ. eigenvalues --  -10.25056 -10.24949 -10.24908 -10.24839 -10.24239
 Alpha  occ. eigenvalues --  -10.23918 -10.23668 -10.23649 -10.23568 -10.23566
 Alpha  occ. eigenvalues --  -10.23440 -10.23427 -10.23379 -10.23223 -10.23139
 Alpha  occ. eigenvalues --  -10.23085 -10.22902 -10.22896 -10.22847 -10.22741
 Alpha  occ. eigenvalues --  -10.22703 -10.22598 -10.22489 -10.22439 -10.22435
 Alpha  occ. eigenvalues --  -10.22397 -10.22161 -10.22105 -10.21918 -10.21808
 Alpha  occ. eigenvalues --  -10.21219  -3.14532  -1.87396  -1.86900  -1.86751
 Alpha  occ. eigenvalues --   -1.12970  -1.09186  -1.03710  -1.03698  -1.01051
 Alpha  occ. eigenvalues --   -1.00919  -0.99077  -0.98505  -0.98040  -0.97405
 Alpha  occ. eigenvalues --   -0.86124  -0.85919  -0.84216  -0.83642  -0.83385
 Alpha  occ. eigenvalues --   -0.82871  -0.82092  -0.81635  -0.81045  -0.80531
 Alpha  occ. eigenvalues --   -0.79953  -0.79544  -0.78688  -0.77242  -0.77196
 Alpha  occ. eigenvalues --   -0.76714  -0.76482  -0.75258  -0.74693  -0.74466
 Alpha  occ. eigenvalues --   -0.74223  -0.72082  -0.71682  -0.71085  -0.70885
 Alpha  occ. eigenvalues --   -0.69982  -0.69862  -0.69398  -0.69211  -0.68160
 Alpha  occ. eigenvalues --   -0.67882  -0.66909  -0.66077  -0.65165  -0.64151
 Alpha  occ. eigenvalues --   -0.62817  -0.62717  -0.61334  -0.61051  -0.59937
 Alpha  occ. eigenvalues --   -0.59653  -0.59541  -0.59118  -0.58621  -0.58455
 Alpha  occ. eigenvalues --   -0.57973  -0.57636  -0.55613  -0.55327  -0.55030
 Alpha  occ. eigenvalues --   -0.54158  -0.53718  -0.53073  -0.52684  -0.51812
 Alpha  occ. eigenvalues --   -0.51607  -0.51282  -0.50582  -0.49999  -0.49891
 Alpha  occ. eigenvalues --   -0.49648  -0.49505  -0.48823  -0.48747  -0.48558
 Alpha  occ. eigenvalues --   -0.48014  -0.47907  -0.47800  -0.47714  -0.47364
 Alpha  occ. eigenvalues --   -0.47126  -0.46702  -0.46309  -0.46283  -0.46242
 Alpha  occ. eigenvalues --   -0.46012  -0.45810  -0.45651  -0.45400  -0.45352
 Alpha  occ. eigenvalues --   -0.45067  -0.44977  -0.44897  -0.44579  -0.44262
 Alpha  occ. eigenvalues --   -0.44097  -0.43986  -0.43849  -0.43415  -0.43202
 Alpha  occ. eigenvalues --   -0.43112  -0.42680  -0.42417  -0.42205  -0.42042
 Alpha  occ. eigenvalues --   -0.41916  -0.41797  -0.41563  -0.41378  -0.41210
 Alpha  occ. eigenvalues --   -0.41103  -0.40882  -0.40729  -0.40555  -0.40329
 Alpha  occ. eigenvalues --   -0.40105  -0.40039  -0.39805  -0.39686  -0.39113
 Alpha  occ. eigenvalues --   -0.38934  -0.38645  -0.38589  -0.38483  -0.38363
 Alpha  occ. eigenvalues --   -0.38138  -0.37900  -0.37811  -0.37721  -0.37677
 Alpha  occ. eigenvalues --   -0.37457  -0.37154  -0.36894  -0.36711  -0.36478
 Alpha  occ. eigenvalues --   -0.36320  -0.36282  -0.35950  -0.35803  -0.35608
 Alpha  occ. eigenvalues --   -0.35456  -0.35215  -0.35122  -0.34851  -0.34813
 Alpha  occ. eigenvalues --   -0.34622  -0.34541  -0.34026  -0.33927  -0.33622
 Alpha  occ. eigenvalues --   -0.33486  -0.32903  -0.32834  -0.32546  -0.32148
 Alpha  occ. eigenvalues --   -0.32046  -0.31807  -0.31615  -0.31366  -0.30767
 Alpha  occ. eigenvalues --   -0.30689  -0.30249  -0.30050  -0.29337  -0.28919
 Alpha  occ. eigenvalues --   -0.28652  -0.28516  -0.27468  -0.26709  -0.26579
 Alpha  occ. eigenvalues --   -0.26075  -0.25595  -0.25131  -0.24931  -0.20691
 Alpha  occ. eigenvalues --   -0.18333
 Alpha virt. eigenvalues --   -0.10534  -0.05003  -0.03802  -0.01983  -0.00300
 Alpha virt. eigenvalues --    0.00314   0.00447   0.01775   0.02077   0.02933
 Alpha virt. eigenvalues --    0.03722   0.04699   0.04970   0.05503   0.05699

 Mulliken charges:
               1
     1  Mg   0.969135
     2  C   -0.012706
     3  C   -0.048056
     4  C   -0.030405
     5  C   -0.044869
     6  N   -0.329407
     7  C    0.043560
     8  C   -0.168214
     9  C   -0.116488
    10  C    0.069849
    11  C    0.015269
    12  C    0.058256
    13  C    0.068587
    14  C    0.169017
    15  O   -0.310409
    16  O   -0.319477
    17  N   -0.430217
    18  C    0.102517
    19  C   -0.159328
    20  C   -0.108816
    21  C    0.138093
    22  C    0.020092
    23  C    0.059075
    24  O   -0.264242
    25  C    0.007456
    26  N   -0.446851
    27  C    0.097198
    28  C   -0.142525
    29  C   -0.062430
    30  C    0.048144
    31  C    0.015097
    32  C   -0.024647
    33  C   -0.080911
    34  N   -0.458631
    35  C    0.121011
    36  C   -0.231125
    37  C   -0.053609
    38  C    0.166885
    39  C    0.097025
    40  C    0.140338
    41  O   -0.212049
    42  C   -0.134584
    43  C    0.289881
    44  O   -0.278026
    45  O   -0.349184
    46  C    0.151130
    47  C    0.198837
    48  C   -0.127685
    49  C   -0.205259
    50  C    0.051104
    51  C    0.029581
    52  C   -0.024900
    53  C   -0.011639
    54  C   -0.236479
    55  C    0.005829
    56  C   -0.019698
    57  C   -0.039659
    58  C    0.011321
    59  C   -0.209151
    60  C   -0.006809
    61  C    0.006784
    62  C   -0.091264
    63  C   -0.046585
    64  C   -0.244270
    65  C   -0.027222
    66  C    0.001640
    67  H   -0.003997
    68  H    0.033538
    69  H    0.006624
    70  H    0.078247
    71  H    0.045006
    72  H    0.053822
    73  H    0.043015
    74  H    0.045651
    75  H    0.032773
    76  H    0.047848
    77  H    0.053344
    78  H    0.052112
    79  H    0.041402
    80  H    0.064210
    81  H    0.058025
    82  H    0.074914
    83  H    0.054702
    84  H    0.054463
    85  H    0.060490
    86  H    0.049504
    87  H    0.024877
    88  H    0.051912
    89  H    0.043263
    90  H    0.035282
    91  H    0.036521
    92  H    0.034269
    93  H    0.027909
    94  H    0.060645
    95  H    0.027329
    96  H    0.084545
    97  H    0.071222
    98  H    0.080188
    99  H    0.047459
   100  H    0.048649
   101  H    0.056744
   102  H    0.058055
   103  H    0.060657
   104  H    0.020626
   105  H    0.055307
   106  H    0.026045
   107  H    0.052372
   108  H    0.031656
   109  H    0.022919
   110  H    0.039450
   111  H    0.041153
   112  H    0.019863
   113  H    0.025224
   114  H    0.029236
   115  H    0.034594
   116  H    0.033480
   117  H    0.037355
   118  H    0.021796
   119  H    0.027282
   120  H    0.021811
   121  H    0.016871
   122  H    0.022120
   123  H    0.033657
   124  H    0.039915
   125  H    0.032726
   126  H    0.014366
   127  H    0.029811
   128  H    0.025997
   129  H    0.031821
   130  H    0.031549
   131  H    0.036221
   132  H    0.024250
   133  H    0.023444
   134  H    0.036480
   135  H    0.032586
   136  H    0.030417
   137  H    0.045495
   138  H    0.032184
   139  H    0.042141
   140  H    0.037679
 Sum of Mulliken charges =  -0.00000

 Dipole moment (field-independent basis, Debye):
    X=              3.6476    Y=              2.9327    Z=             -3.0445  Tot=              5.5835
 Quadrupole moment (field-independent basis, Debye-Ang):
   XX=           -373.8458   YY=           -431.1527   ZZ=           -393.7281
   XY=             -9.8573   XZ=             -0.4190   YZ=              8.9823

 Normal termination of Gaussian 16 at Tue Apr 26 23:15:50 2022.
