 Gaussian 16, Revision A.03,
 Gaussian 16:  ES64L-G16RevA.03 25-Dec-2016

 --------------------------------
 #p wB97XD/Def2SVP td=(nstates=5)
 --------------------------------

 ----------------------------------------------------
 step_1001_chromophore_9 TDDFT with wB97XD functional
 ----------------------------------------------------
 Symbolic Z-matrix:
 Charge =  0 Multiplicity = 1

                         Standard orientation:
 ---------------------------------------------------------------------
 Center     Atomic      Atomic             Coordinates (Angstroms)
 Number     Number       Type             X           Y           Z
 ---------------------------------------------------------------------
      1         12           0       -5.073205    0.824819   -0.187088
      2          6           0       -3.652500   -2.406851    0.097301
      3          6           0       -1.822080    2.013740   -0.892928
      4          6           0       -6.192506    3.915474    0.172463
      5          6           0       -8.178135   -0.559310    0.679744
      6          7           0       -2.960130   -0.113551   -0.422089
      7          6           0       -2.668607   -1.423987   -0.218725
      8          6           0       -1.187586   -1.643386   -0.735443
      9          6           0       -0.555790   -0.185158   -0.636787
     10          6           0       -1.868018    0.627863   -0.631440
     11          6           0        0.360211    0.034585    0.649270
     12          6           0       -1.114450   -2.390072   -2.151077
     13          6           0       -0.412893   -3.691127   -2.201600
     14          6           0        0.620422   -3.921361   -1.118854
     15          8           0        0.575808   -4.797296   -0.206678
     16          8           0        1.544620   -2.971994   -1.142177
     17          7           0       -4.098694    2.740432   -0.511216
     18          6           0       -2.834749    2.972742   -0.813200
     19          6           0       -2.667237    4.431046   -0.902410
     20          6           0       -3.966898    4.988065   -0.650609
     21          6           0       -4.847088    3.838214   -0.325994
     22          6           0       -1.330774    5.036989   -1.473746
     23          6           0       -4.477300    6.466054   -0.451851
     24          8           0       -5.666357    6.799919   -0.316131
     25          6           0       -3.585572    7.584690   -0.611616
     26          7           0       -6.908533    1.583942    0.348380
     27          6           0       -7.112366    2.887529    0.504964
     28          6           0       -8.553914    3.186986    0.897834
     29          6           0       -9.251416    1.757384    0.933675
     30          6           0       -8.077858    0.844948    0.582574
     31          6           0       -8.641207    3.865168    2.284350
     32          6           0      -10.415234    1.688760   -0.039846
     33          6           0      -10.147810    1.248160   -1.492145
     34          7           0       -5.790914   -1.069516    0.205958
     35          6           0       -7.042795   -1.472356    0.618155
     36          6           0       -7.042926   -2.916436    0.950961
     37          6           0       -5.742273   -3.335125    0.659867
     38          6           0       -4.998306   -2.130675    0.255380
     39          6           0       -8.220196   -3.758337    1.523817
     40          6           0       -4.864327   -4.486854    0.691473
     41          8           0       -5.057896   -5.674540    0.939610
     42          6           0       -3.450496   -3.922378    0.268271
     43          6           0       -2.469377   -4.312766    1.311218
     44          8           0       -2.193026   -3.555964    2.241721
     45          8           0       -1.980288   -5.582027    1.123660
     46          6           0       -1.088967   -6.086827    2.151803
     47          6           0        2.626527   -3.371593   -0.206482
     48          6           0        3.880808   -2.490412   -0.474300
     49          6           0        4.918920   -2.747817   -1.250109
     50          6           0        5.039635   -3.934339   -2.124151
     51          6           0        6.122127   -1.847264   -1.211788
     52          6           0        6.322593   -0.998306   -2.423796
     53          6           0        7.698327   -1.178111   -3.159825
     54          6           0        8.428040    0.146044   -3.442237
     55          6           0        9.179547    0.214149   -4.757240
     56          6           0        9.368541    0.371452   -2.247188
     57          6           0        9.707142    1.827556   -1.859587
     58          6           0       11.163268    2.164313   -1.455013
     59          6           0       11.280103    2.432634    0.095257
     60          6           0       12.326230    3.403162    0.504739
     61          6           0       11.501736    1.088501    0.933280
     62          6           0       10.608541    1.024406    2.215357
     63          6           0       11.246276    0.295529    3.515919
     64          6           0       11.382484    1.229442    4.769708
     65          6           0        9.982257    1.759103    5.151048
     66          6           0       12.485858    2.274709    4.620752
     67          1           0       -0.877939    2.468752   -1.199663
     68          1           0       -6.674769    4.895149    0.197713
     69          1           0       -9.154762   -0.927467    1.000183
     70          1           0       -0.739160   -2.211230    0.080247
     71          1           0       -0.111981    0.023345   -1.610299
     72          1           0        0.414579   -0.851739    1.281729
     73          1           0       -0.080639    0.824802    1.257409
     74          1           0        1.391268    0.351372    0.494105
     75          1           0       -0.678747   -1.684913   -2.858426
     76          1           0       -2.146781   -2.409535   -2.500342
     77          1           0        0.058487   -3.909552   -3.160183
     78          1           0       -1.113033   -4.525605   -2.163452
     79          1           0       -1.409156    6.054881   -1.855218
     80          1           0       -1.006982    4.411773   -2.305117
     81          1           0       -0.571477    5.058190   -0.691738
     82          1           0       -3.259303    7.507907   -1.648902
     83          1           0       -2.868284    7.405396    0.189532
     84          1           0       -4.057577    8.550481   -0.435154
     85          1           0       -9.032984    3.880030    0.205994
     86          1           0       -9.646963    1.391139    1.881109
     87          1           0       -9.029973    3.121105    2.979355
     88          1           0       -9.233525    4.779096    2.322172
     89          1           0       -7.682420    4.069823    2.759860
     90          1           0      -10.747752    2.711909   -0.211422
     91          1           0      -11.252952    1.152724    0.406901
     92          1           0      -10.284336    2.034135   -2.236344
     93          1           0      -10.871786    0.545031   -1.904872
     94          1           0       -9.199365    0.735815   -1.651116
     95          1           0       -9.063843   -3.067992    1.554230
     96          1           0       -7.875551   -4.132280    2.488020
     97          1           0       -8.404214   -4.454657    0.705498
     98          1           0       -3.188242   -4.472720   -0.635218
     99          1           0       -1.628181   -6.171864    3.095396
    100          1           0       -0.271331   -5.388660    2.328725
    101          1           0       -0.664426   -7.040832    1.841969
    102          1           0        2.818876   -4.434067   -0.354016
    103          1           0        2.370851   -3.227969    0.843124
    104          1           0        3.854460   -1.566775    0.104031
    105          1           0        5.002187   -3.699372   -3.187047
    106          1           0        4.191534   -4.609968   -2.011615
    107          1           0        5.943365   -4.430259   -1.770003
    108          1           0        7.047806   -2.401005   -1.050058
    109          1           0        6.047950   -1.232065   -0.314810
    110          1           0        6.264292    0.071239   -2.219738
    111          1           0        5.592177   -1.276223   -3.183376
    112          1           0        7.580308   -1.700116   -4.109355
    113          1           0        8.340864   -1.770658   -2.507846
    114          1           0        7.808892    1.042642   -3.426704
    115          1           0        9.914141    1.018497   -4.727072
    116          1           0        8.525935    0.503386   -5.580540
    117          1           0        9.550684   -0.797231   -4.922918
    118          1           0       10.263623   -0.224923   -2.424196
    119          1           0        8.930828   -0.081974   -1.357308
    120          1           0        9.043006    2.225955   -1.092676
    121          1           0        9.494828    2.536751   -2.659778
    122          1           0       11.430786    3.063182   -2.010246
    123          1           0       11.807757    1.344575   -1.774138
    124          1           0       10.389190    2.880662    0.537235
    125          1           0       12.065398    4.183096    1.220023
    126          1           0       12.653142    4.024459   -0.329614
    127          1           0       13.231544    2.925941    0.879860
    128          1           0       12.482618    1.054987    1.407471
    129          1           0       11.357038    0.195130    0.325149
    130          1           0        9.687904    0.493123    1.975243
    131          1           0       10.341550    2.006867    2.605218
    132          1           0       12.170114   -0.170725    3.174101
    133          1           0       10.609717   -0.529960    3.834487
    134          1           0       11.614452    0.557354    5.595411
    135          1           0        9.922844    2.837713    5.005241
    136          1           0        9.976110    1.632784    6.233947
    137          1           0        9.115927    1.230519    4.753376
    138          1           0       12.163072    3.236048    5.018780
    139          1           0       12.833178    2.392550    3.594029
    140          1           0       13.320956    1.888970    5.206269
 ---------------------------------------------------------------------

 SCF Done:  E(RwB97XD) =  -3007.87375303     A.U. after   17 cycles

 Excitation energies and oscillator strengths:

 Excited State   1:      Singlet-A      1.6807 eV  737.70 nm  f=0.3801  <S**2>=0.000
     245 -> 248       -0.19709
     246 -> 247        0.68099
     245 <- 248       -0.12004
 This state for optimization and/or second-order correction.
 Total Energy, E(TD-HF/TD-DFT) =  -3007.81198919
 Copying the excited state density for this state as the 1-particle RhoCI density.

 Excited State   2:      Singlet-A      2.2280 eV  556.48 nm  f=0.0734  <S**2>=0.000
     245 -> 247        0.62065
     246 -> 248        0.33056

 Excited State   3:      Singlet-A      3.4925 eV  355.00 nm  f=0.5959  <S**2>=0.000
     241 -> 247       -0.13468
     242 -> 247       -0.20951
     244 -> 247        0.14760
     245 -> 247       -0.27824
     246 -> 248        0.56694
     245 <- 247        0.10921

 Excited State   4:      Singlet-A      3.5578 eV  348.49 nm  f=0.0055  <S**2>=0.000
     242 -> 247        0.22187
     242 -> 250       -0.13075
     243 -> 247        0.41631
     243 -> 249       -0.32866
     243 -> 250       -0.22387
     244 -> 247        0.23450

 Excited State   5:      Singlet-A      3.5727 eV  347.03 nm  f=0.0049  <S**2>=0.000
     242 -> 247        0.10277
     242 -> 249        0.20452
     243 -> 247       -0.28253
     243 -> 250        0.14444
     244 -> 247        0.43999
     244 -> 249        0.27466
     244 -> 250       -0.14139

 The electronic state is 1-A.
 Alpha  occ. eigenvalues --  -46.95454 -19.31585 -19.28670 -19.24505 -19.23603
 Alpha  occ. eigenvalues --  -19.23554 -19.23151 -14.46545 -14.46397 -14.44390
 Alpha  occ. eigenvalues --  -14.43725 -10.43402 -10.41820 -10.38956 -10.38675
 Alpha  occ. eigenvalues --  -10.36247 -10.34743 -10.34726 -10.34695 -10.34670
 Alpha  occ. eigenvalues --  -10.34430 -10.34205 -10.33471 -10.33389 -10.33340
 Alpha  occ. eigenvalues --  -10.32688 -10.32197 -10.32113 -10.32012 -10.31965
 Alpha  occ. eigenvalues --  -10.31955 -10.31635 -10.31633 -10.31562 -10.31509
 Alpha  occ. eigenvalues --  -10.31471 -10.31433 -10.31210 -10.31191 -10.30760
 Alpha  occ. eigenvalues --  -10.30253 -10.30025 -10.30005 -10.29969 -10.29897
 Alpha  occ. eigenvalues --  -10.29818 -10.29717 -10.29656 -10.29615 -10.29464
 Alpha  occ. eigenvalues --  -10.29431 -10.29419 -10.29255 -10.29224 -10.29066
 Alpha  occ. eigenvalues --  -10.29060 -10.28970 -10.28871 -10.28825 -10.28787
 Alpha  occ. eigenvalues --  -10.28787 -10.28561 -10.28508 -10.28363 -10.28231
 Alpha  occ. eigenvalues --  -10.27667  -3.21344  -1.94956  -1.94459  -1.94310
 Alpha  occ. eigenvalues --   -1.20326  -1.16558  -1.11305  -1.11108  -1.08385
 Alpha  occ. eigenvalues --   -1.08246  -1.06475  -1.05826  -1.05411  -1.04734
 Alpha  occ. eigenvalues --   -0.93689  -0.93585  -0.91886  -0.91286  -0.90915
 Alpha  occ. eigenvalues --   -0.90553  -0.89722  -0.89306  -0.88617  -0.88125
 Alpha  occ. eigenvalues --   -0.87756  -0.87175  -0.86347  -0.84907  -0.84778
 Alpha  occ. eigenvalues --   -0.84431  -0.84211  -0.82905  -0.82306  -0.82131
 Alpha  occ. eigenvalues --   -0.81810  -0.79733  -0.79388  -0.78710  -0.78546
 Alpha  occ. eigenvalues --   -0.77686  -0.77453  -0.77072  -0.76791  -0.75839
 Alpha  occ. eigenvalues --   -0.75494  -0.74404  -0.73632  -0.72732  -0.71674
 Alpha  occ. eigenvalues --   -0.70434  -0.70250  -0.68979  -0.68695  -0.67482
 Alpha  occ. eigenvalues --   -0.67287  -0.66926  -0.66515  -0.66087  -0.65887
 Alpha  occ. eigenvalues --   -0.65669  -0.65297  -0.62987  -0.62932  -0.62550
 Alpha  occ. eigenvalues --   -0.61657  -0.61072  -0.60517  -0.60089  -0.59231
 Alpha  occ. eigenvalues --   -0.59046  -0.58765  -0.57996  -0.57382  -0.57284
 Alpha  occ. eigenvalues --   -0.57071  -0.56916  -0.56277  -0.56183  -0.55991
 Alpha  occ. eigenvalues --   -0.55445  -0.55425  -0.55219  -0.55172  -0.54764
 Alpha  occ. eigenvalues --   -0.54418  -0.54073  -0.53686  -0.53628  -0.53538
 Alpha  occ. eigenvalues --   -0.53395  -0.53155  -0.53025  -0.52764  -0.52692
 Alpha  occ. eigenvalues --   -0.52453  -0.52420  -0.52197  -0.51902  -0.51685
 Alpha  occ. eigenvalues --   -0.51423  -0.51259  -0.51136  -0.50667  -0.50506
 Alpha  occ. eigenvalues --   -0.50358  -0.49945  -0.49775  -0.49511  -0.49409
 Alpha  occ. eigenvalues --   -0.49191  -0.49054  -0.48780  -0.48575  -0.48405
 Alpha  occ. eigenvalues --   -0.48311  -0.47996  -0.47937  -0.47775  -0.47471
 Alpha  occ. eigenvalues --   -0.47377  -0.47175  -0.46990  -0.46806  -0.46290
 Alpha  occ. eigenvalues --   -0.46051  -0.45825  -0.45703  -0.45602  -0.45555
 Alpha  occ. eigenvalues --   -0.45256  -0.45064  -0.44980  -0.44940  -0.44887
 Alpha  occ. eigenvalues --   -0.44654  -0.44314  -0.43850  -0.43741  -0.43604
 Alpha  occ. eigenvalues --   -0.43457  -0.43383  -0.43141  -0.42895  -0.42689
 Alpha  occ. eigenvalues --   -0.42486  -0.42302  -0.42139  -0.41915  -0.41829
 Alpha  occ. eigenvalues --   -0.41613  -0.41566  -0.41074  -0.40952  -0.40630
 Alpha  occ. eigenvalues --   -0.40487  -0.39911  -0.39851  -0.39591  -0.39185
 Alpha  occ. eigenvalues --   -0.39083  -0.38774  -0.38628  -0.38385  -0.37732
 Alpha  occ. eigenvalues --   -0.37600  -0.37232  -0.37079  -0.36207  -0.35779
 Alpha  occ. eigenvalues --   -0.35617  -0.35192  -0.34588  -0.33404  -0.33219
 Alpha  occ. eigenvalues --   -0.32568  -0.32362  -0.32206  -0.32018  -0.25672
 Alpha  occ. eigenvalues --   -0.22456
 Alpha virt. eigenvalues --   -0.06341   0.00358   0.02502   0.04511   0.06313
 Alpha virt. eigenvalues --    0.06648   0.07078   0.08359   0.08649   0.09356
 Alpha virt. eigenvalues --    0.10435   0.11563   0.11696   0.12274   0.12559

 Mulliken charges:
               1
     1  Mg   0.961212
     2  C   -0.009199
     3  C   -0.065570
     4  C   -0.054752
     5  C   -0.066279
     6  N   -0.293479
     7  C   -0.000477
     8  C   -0.132736
     9  C   -0.090080
    10  C    0.054431
    11  C    0.024320
    12  C    0.068706
    13  C    0.078164
    14  C    0.165423
    15  O   -0.307839
    16  O   -0.320878
    17  N   -0.393626
    18  C    0.094222
    19  C   -0.152672
    20  C   -0.104570
    21  C    0.129913
    22  C    0.034982
    23  C    0.061072
    24  O   -0.258328
    25  C    0.016723
    26  N   -0.413603
    27  C    0.087412
    28  C   -0.116945
    29  C   -0.039068
    30  C    0.039234
    31  C    0.023009
    32  C   -0.011279
    33  C   -0.064441
    34  N   -0.417621
    35  C    0.114827
    36  C   -0.233502
    37  C   -0.053384
    38  C    0.151171
    39  C    0.114074
    40  C    0.122839
    41  O   -0.202950
    42  C   -0.095237
    43  C    0.264177
    44  O   -0.271654
    45  O   -0.345581
    46  C    0.164080
    47  C    0.215979
    48  C   -0.137565
    49  C   -0.187743
    50  C    0.062292
    51  C    0.048189
    52  C   -0.012978
    53  C    0.007827
    54  C   -0.205218
    55  C    0.017647
    56  C   -0.001480
    57  C   -0.025989
    58  C    0.026790
    59  C   -0.175421
    60  C    0.001940
    61  C    0.024763
    62  C   -0.074670
    63  C   -0.030826
    64  C   -0.212395
    65  C   -0.018199
    66  C    0.015551
    67  H   -0.009601
    68  H    0.028684
    69  H    0.001191
    70  H    0.051834
    71  H    0.035052
    72  H    0.049586
    73  H    0.036499
    74  H    0.040764
    75  H    0.025469
    76  H    0.040037
    77  H    0.049185
    78  H    0.046303
    79  H    0.036490
    80  H    0.059676
    81  H    0.054085
    82  H    0.069413
    83  H    0.049432
    84  H    0.054164
    85  H    0.051732
    86  H    0.040225
    87  H    0.018318
    88  H    0.047720
    89  H    0.036968
    90  H    0.025321
    91  H    0.030970
    92  H    0.028774
    93  H    0.022278
    94  H    0.050673
    95  H    0.019470
    96  H    0.079988
    97  H    0.065612
    98  H    0.071035
    99  H    0.043563
   100  H    0.044359
   101  H    0.054497
   102  H    0.050388
   103  H    0.056480
   104  H    0.017515
   105  H    0.050442
   106  H    0.019452
   107  H    0.046824
   108  H    0.021879
   109  H    0.016670
   110  H    0.031246
   111  H    0.031691
   112  H    0.012577
   113  H    0.012281
   114  H    0.015623
   115  H    0.027715
   116  H    0.028143
   117  H    0.030586
   118  H    0.010557
   119  H    0.014273
   120  H    0.013035
   121  H    0.008271
   122  H    0.014776
   123  H    0.024704
   124  H    0.025506
   125  H    0.027845
   126  H    0.008315
   127  H    0.023288
   128  H    0.010971
   129  H    0.023617
   130  H    0.023545
   131  H    0.021144
   132  H    0.015479
   133  H    0.015242
   134  H    0.026409
   135  H    0.026137
   136  H    0.024940
   137  H    0.040079
   138  H    0.026631
   139  H    0.030585
   140  H    0.032639
 Sum of Mulliken charges =  -0.00000

 Dipole moment (field-independent basis, Debye):
    X=              3.8946    Y=              3.2876    Z=             -3.1498  Tot=              5.9915
 Quadrupole moment (field-independent basis, Debye-Ang):
   XX=           -376.3809   YY=           -428.9115   ZZ=           -393.2714
   XY=            -10.8009   XZ=             -0.0197   YZ=              8.7746

 Normal termination of Gaussian 16 at Tue Apr 26 23:41:23 2022.
