 Gaussian 16, Revision A.03,
 Gaussian 16:  ES64L-G16RevA.03 25-Dec-2016

 --------------------
 #p ZINDO=(nstates=5)
 --------------------

 -----------------------------
 step_1001_chromophore_9 ZINDO
 -----------------------------
 Symbolic Z-matrix:
 Charge =  0 Multiplicity = 1

                         Standard orientation:
 ---------------------------------------------------------------------
 Center     Atomic      Atomic             Coordinates (Angstroms)
 Number     Number       Type             X           Y           Z
 ---------------------------------------------------------------------
      1         12           0       -5.073205    0.824819   -0.187088
      2          6           0       -3.652500   -2.406851    0.097301
      3          6           0       -1.822080    2.013740   -0.892928
      4          6           0       -6.192506    3.915474    0.172463
      5          6           0       -8.178135   -0.559310    0.679744
      6          7           0       -2.960130   -0.113551   -0.422089
      7          6           0       -2.668607   -1.423987   -0.218725
      8          6           0       -1.187586   -1.643386   -0.735443
      9          6           0       -0.555790   -0.185158   -0.636787
     10          6           0       -1.868018    0.627863   -0.631440
     11          6           0        0.360211    0.034585    0.649270
     12          6           0       -1.114450   -2.390072   -2.151077
     13          6           0       -0.412893   -3.691127   -2.201600
     14          6           0        0.620422   -3.921361   -1.118854
     15          8           0        0.575808   -4.797296   -0.206678
     16          8           0        1.544620   -2.971994   -1.142177
     17          7           0       -4.098694    2.740432   -0.511216
     18          6           0       -2.834749    2.972742   -0.813200
     19          6           0       -2.667237    4.431046   -0.902410
     20          6           0       -3.966898    4.988065   -0.650609
     21          6           0       -4.847088    3.838214   -0.325994
     22          6           0       -1.330774    5.036989   -1.473746
     23          6           0       -4.477300    6.466054   -0.451851
     24          8           0       -5.666357    6.799919   -0.316131
     25          6           0       -3.585572    7.584690   -0.611616
     26          7           0       -6.908533    1.583942    0.348380
     27          6           0       -7.112366    2.887529    0.504964
     28          6           0       -8.553914    3.186986    0.897834
     29          6           0       -9.251416    1.757384    0.933675
     30          6           0       -8.077858    0.844948    0.582574
     31          6           0       -8.641207    3.865168    2.284350
     32          6           0      -10.415234    1.688760   -0.039846
     33          6           0      -10.147810    1.248160   -1.492145
     34          7           0       -5.790914   -1.069516    0.205958
     35          6           0       -7.042795   -1.472356    0.618155
     36          6           0       -7.042926   -2.916436    0.950961
     37          6           0       -5.742273   -3.335125    0.659867
     38          6           0       -4.998306   -2.130675    0.255380
     39          6           0       -8.220196   -3.758337    1.523817
     40          6           0       -4.864327   -4.486854    0.691473
     41          8           0       -5.057896   -5.674540    0.939610
     42          6           0       -3.450496   -3.922378    0.268271
     43          6           0       -2.469377   -4.312766    1.311218
     44          8           0       -2.193026   -3.555964    2.241721
     45          8           0       -1.980288   -5.582027    1.123660
     46          6           0       -1.088967   -6.086827    2.151803
     47          6           0        2.626527   -3.371593   -0.206482
     48          6           0        3.880808   -2.490412   -0.474300
     49          6           0        4.918920   -2.747817   -1.250109
     50          6           0        5.039635   -3.934339   -2.124151
     51          6           0        6.122127   -1.847264   -1.211788
     52          6           0        6.322593   -0.998306   -2.423796
     53          6           0        7.698327   -1.178111   -3.159825
     54          6           0        8.428040    0.146044   -3.442237
     55          6           0        9.179547    0.214149   -4.757240
     56          6           0        9.368541    0.371452   -2.247188
     57          6           0        9.707142    1.827556   -1.859587
     58          6           0       11.163268    2.164313   -1.455013
     59          6           0       11.280103    2.432634    0.095257
     60          6           0       12.326230    3.403162    0.504739
     61          6           0       11.501736    1.088501    0.933280
     62          6           0       10.608541    1.024406    2.215357
     63          6           0       11.246276    0.295529    3.515919
     64          6           0       11.382484    1.229442    4.769708
     65          6           0        9.982257    1.759103    5.151048
     66          6           0       12.485858    2.274709    4.620752
     67          1           0       -0.877939    2.468752   -1.199663
     68          1           0       -6.674769    4.895149    0.197713
     69          1           0       -9.154762   -0.927467    1.000183
     70          1           0       -0.739160   -2.211230    0.080247
     71          1           0       -0.111981    0.023345   -1.610299
     72          1           0        0.414579   -0.851739    1.281729
     73          1           0       -0.080639    0.824802    1.257409
     74          1           0        1.391268    0.351372    0.494105
     75          1           0       -0.678747   -1.684913   -2.858426
     76          1           0       -2.146781   -2.409535   -2.500342
     77          1           0        0.058487   -3.909552   -3.160183
     78          1           0       -1.113033   -4.525605   -2.163452
     79          1           0       -1.409156    6.054881   -1.855218
     80          1           0       -1.006982    4.411773   -2.305117
     81          1           0       -0.571477    5.058190   -0.691738
     82          1           0       -3.259303    7.507907   -1.648902
     83          1           0       -2.868284    7.405396    0.189532
     84          1           0       -4.057577    8.550481   -0.435154
     85          1           0       -9.032984    3.880030    0.205994
     86          1           0       -9.646963    1.391139    1.881109
     87          1           0       -9.029973    3.121105    2.979355
     88          1           0       -9.233525    4.779096    2.322172
     89          1           0       -7.682420    4.069823    2.759860
     90          1           0      -10.747752    2.711909   -0.211422
     91          1           0      -11.252952    1.152724    0.406901
     92          1           0      -10.284336    2.034135   -2.236344
     93          1           0      -10.871786    0.545031   -1.904872
     94          1           0       -9.199365    0.735815   -1.651116
     95          1           0       -9.063843   -3.067992    1.554230
     96          1           0       -7.875551   -4.132280    2.488020
     97          1           0       -8.404214   -4.454657    0.705498
     98          1           0       -3.188242   -4.472720   -0.635218
     99          1           0       -1.628181   -6.171864    3.095396
    100          1           0       -0.271331   -5.388660    2.328725
    101          1           0       -0.664426   -7.040832    1.841969
    102          1           0        2.818876   -4.434067   -0.354016
    103          1           0        2.370851   -3.227969    0.843124
    104          1           0        3.854460   -1.566775    0.104031
    105          1           0        5.002187   -3.699372   -3.187047
    106          1           0        4.191534   -4.609968   -2.011615
    107          1           0        5.943365   -4.430259   -1.770003
    108          1           0        7.047806   -2.401005   -1.050058
    109          1           0        6.047950   -1.232065   -0.314810
    110          1           0        6.264292    0.071239   -2.219738
    111          1           0        5.592177   -1.276223   -3.183376
    112          1           0        7.580308   -1.700116   -4.109355
    113          1           0        8.340864   -1.770658   -2.507846
    114          1           0        7.808892    1.042642   -3.426704
    115          1           0        9.914141    1.018497   -4.727072
    116          1           0        8.525935    0.503386   -5.580540
    117          1           0        9.550684   -0.797231   -4.922918
    118          1           0       10.263623   -0.224923   -2.424196
    119          1           0        8.930828   -0.081974   -1.357308
    120          1           0        9.043006    2.225955   -1.092676
    121          1           0        9.494828    2.536751   -2.659778
    122          1           0       11.430786    3.063182   -2.010246
    123          1           0       11.807757    1.344575   -1.774138
    124          1           0       10.389190    2.880662    0.537235
    125          1           0       12.065398    4.183096    1.220023
    126          1           0       12.653142    4.024459   -0.329614
    127          1           0       13.231544    2.925941    0.879860
    128          1           0       12.482618    1.054987    1.407471
    129          1           0       11.357038    0.195130    0.325149
    130          1           0        9.687904    0.493123    1.975243
    131          1           0       10.341550    2.006867    2.605218
    132          1           0       12.170114   -0.170725    3.174101
    133          1           0       10.609717   -0.529960    3.834487
    134          1           0       11.614452    0.557354    5.595411
    135          1           0        9.922844    2.837713    5.005241
    136          1           0        9.976110    1.632784    6.233947
    137          1           0        9.115927    1.230519    4.753376
    138          1           0       12.163072    3.236048    5.018780
    139          1           0       12.833178    2.392550    3.594029
    140          1           0       13.320956    1.888970    5.206269
 ---------------------------------------------------------------------

 SCF Done:  E(RZINDO/S) =  -474.230350516     A.U. after   20 cycles

 Excitation energies and oscillator strengths:

 Excited State   1:      Singlet-A      1.2647 eV  980.33 nm  f=0.5975  <S**2>=0.000
     175 ->178        -0.19571
     176 ->177         0.66192
 This state for optimization and/or second-order correction.
 Total Energy, E(CIS/TDA) =  -474.183872927
 Copying the excited state density for this state as the 1-particle RhoCI density.

 Excited State   2:      Singlet-A      1.9178 eV  646.48 nm  f=0.0092  <S**2>=0.000
     175 ->177         0.50867
     176 ->178         0.46748

 Excited State   3:      Singlet-A      2.8336 eV  437.54 nm  f=0.0006  <S**2>=0.000
     168 ->179         0.11221
     168 ->181         0.10385
     170 ->177         0.27430
     170 ->179        -0.35886
     170 ->181        -0.32890
     170 ->184         0.12132
     170 ->185        -0.21309
     170 ->193        -0.10318

 Excited State   4:      Singlet-A      2.8806 eV  430.41 nm  f=0.4065  <S**2>=0.000
     175 ->177        -0.27665
     176 ->178         0.37136
     176 ->179         0.46568
     176 ->181        -0.15707

 Excited State   5:      Singlet-A      3.0353 eV  408.48 nm  f=0.0023  <S**2>=0.000
     168 ->177         0.24942
     168 ->178         0.15613
     168 ->179         0.27727
     168 ->181        -0.26207
     168 ->185         0.14169
     168 ->187         0.11550
     169 ->177         0.18889
     169 ->178         0.11296
     169 ->179         0.20743
     169 ->181        -0.18872
     169 ->185         0.10309

 The electronic state is 1-A.
 Alpha  occ. eigenvalues --   -1.82688  -1.81130  -1.80075  -1.76684  -1.71307
 Alpha  occ. eigenvalues --   -1.70115  -1.66072  -1.61330  -1.59758  -1.56915
 Alpha  occ. eigenvalues --   -1.55974  -1.52215  -1.48350  -1.47236  -1.45938
 Alpha  occ. eigenvalues --   -1.42699  -1.41655  -1.38196  -1.37829  -1.37171
 Alpha  occ. eigenvalues --   -1.34908  -1.32668  -1.32204  -1.31379  -1.28195
 Alpha  occ. eigenvalues --   -1.28001  -1.24049  -1.22100  -1.19667  -1.17579
 Alpha  occ. eigenvalues --   -1.17064  -1.16517  -1.16268  -1.14624  -1.12956
 Alpha  occ. eigenvalues --   -1.12559  -1.11073  -1.10751  -1.04928  -1.03426
 Alpha  occ. eigenvalues --   -1.02695  -1.01061  -1.00011  -0.98114  -0.97899
 Alpha  occ. eigenvalues --   -0.97048  -0.95445  -0.94298  -0.92702  -0.92005
 Alpha  occ. eigenvalues --   -0.91001  -0.89080  -0.88583  -0.87528  -0.85428
 Alpha  occ. eigenvalues --   -0.84407  -0.83051  -0.82501  -0.80801  -0.80162
 Alpha  occ. eigenvalues --   -0.80013  -0.78561  -0.78084  -0.77182  -0.76387
 Alpha  occ. eigenvalues --   -0.75788  -0.75290  -0.75025  -0.74565  -0.73605
 Alpha  occ. eigenvalues --   -0.72954  -0.72691  -0.72247  -0.70920  -0.70648
 Alpha  occ. eigenvalues --   -0.70431  -0.69635  -0.69457  -0.68177  -0.67876
 Alpha  occ. eigenvalues --   -0.67666  -0.67329  -0.67008  -0.66522  -0.65328
 Alpha  occ. eigenvalues --   -0.65006  -0.64513  -0.64281  -0.63964  -0.63622
 Alpha  occ. eigenvalues --   -0.63509  -0.63053  -0.62879  -0.62331  -0.61964
 Alpha  occ. eigenvalues --   -0.61556  -0.61494  -0.60472  -0.60328  -0.60033
 Alpha  occ. eigenvalues --   -0.59316  -0.58971  -0.58777  -0.58566  -0.58221
 Alpha  occ. eigenvalues --   -0.57855  -0.57134  -0.57032  -0.56613  -0.56151
 Alpha  occ. eigenvalues --   -0.55850  -0.55665  -0.54788  -0.54627  -0.54417
 Alpha  occ. eigenvalues --   -0.53896  -0.53512  -0.53227  -0.53060  -0.52478
 Alpha  occ. eigenvalues --   -0.52323  -0.52184  -0.51914  -0.51353  -0.51327
 Alpha  occ. eigenvalues --   -0.51017  -0.50642  -0.50349  -0.50082  -0.49978
 Alpha  occ. eigenvalues --   -0.49950  -0.49727  -0.49491  -0.48848  -0.48617
 Alpha  occ. eigenvalues --   -0.48545  -0.48341  -0.47948  -0.47929  -0.47589
 Alpha  occ. eigenvalues --   -0.46985  -0.46722  -0.46579  -0.46342  -0.46277
 Alpha  occ. eigenvalues --   -0.46102  -0.45911  -0.45755  -0.45239  -0.45141
 Alpha  occ. eigenvalues --   -0.44848  -0.44337  -0.44268  -0.44140  -0.44108
 Alpha  occ. eigenvalues --   -0.43752  -0.43401  -0.42634  -0.42541  -0.41919
 Alpha  occ. eigenvalues --   -0.41661  -0.41238  -0.40392  -0.38361  -0.38277
 Alpha  occ. eigenvalues --   -0.37260  -0.36378  -0.34716  -0.34448  -0.34341
 Alpha  occ. eigenvalues --   -0.33488  -0.33313  -0.32682  -0.32025  -0.26362
 Alpha  occ. eigenvalues --   -0.21233
 Alpha virt. eigenvalues --   -0.07862  -0.02040  -0.00231   0.01258   0.01422
 Alpha virt. eigenvalues --    0.02707   0.03332   0.03532   0.04972   0.04987
 Alpha virt. eigenvalues --    0.06272   0.06596   0.06845   0.07882   0.08251

 Mulliken charges:
               1
     1  Mg   0.423774
     2  C   -0.025341
     3  C   -0.084891
     4  C   -0.088542
     5  C   -0.081140
     6  N   -0.268491
     7  C    0.096740
     8  C   -0.008002
     9  C   -0.000797
    10  C    0.143478
    11  C   -0.047245
    12  C   -0.009957
    13  C    0.017500
    14  C    0.476763
    15  O   -0.544555
    16  O   -0.250777
    17  N   -0.306623
    18  C    0.120888
    19  C   -0.002320
    20  C   -0.052658
    21  C    0.140188
    22  C   -0.042716
    23  C    0.329633
    24  O   -0.536860
    25  C   -0.022232
    26  N   -0.271041
    27  C    0.160251
    28  C    0.009835
    29  C    0.005445
    30  C    0.103525
    31  C   -0.055659
    32  C   -0.024346
    33  C   -0.060786
    34  N   -0.293223
    35  C    0.078231
    36  C    0.015283
    37  C   -0.064673
    38  C    0.108078
    39  C   -0.043326
    40  C    0.334883
    41  O   -0.522677
    42  C    0.055612
    43  C    0.492763
    44  O   -0.537145
    45  O   -0.252745
    46  C    0.080936
    47  C    0.098975
    48  C   -0.103213
    49  C    0.015183
    50  C   -0.042141
    51  C   -0.014603
    52  C   -0.030266
    53  C   -0.036348
    54  C   -0.011258
    55  C   -0.055633
    56  C   -0.030614
    57  C   -0.042288
    58  C   -0.029448
    59  C   -0.007872
    60  C   -0.054598
    61  C   -0.042016
    62  C   -0.048153
    63  C   -0.044524
    64  C   -0.006236
    65  C   -0.058337
    66  C   -0.051754
    67  H    0.022610
    68  H    0.050448
    69  H    0.032902
    70  H    0.040371
    71  H    0.032407
    72  H    0.032835
    73  H    0.020831
    74  H    0.022866
    75  H    0.019633
    76  H    0.026223
    77  H    0.037172
    78  H    0.031899
    79  H    0.022030
    80  H    0.029825
    81  H    0.032150
    82  H    0.047666
    83  H    0.036706
    84  H    0.039404
    85  H    0.040949
    86  H    0.036878
    87  H    0.014296
    88  H    0.026629
    89  H    0.022073
    90  H    0.013782
    91  H    0.020911
    92  H    0.018003
    93  H    0.010443
    94  H    0.027086
    95  H    0.022899
    96  H    0.052651
    97  H    0.042093
    98  H    0.055008
    99  H    0.040136
   100  H    0.043729
   101  H    0.035867
   102  H    0.052073
   103  H    0.050597
   104  H    0.022761
   105  H    0.033224
   106  H    0.017175
   107  H    0.031632
   108  H    0.023147
   109  H    0.014267
   110  H    0.024636
   111  H    0.017899
   112  H    0.014911
   113  H    0.021968
   114  H    0.018178
   115  H    0.021568
   116  H    0.011306
   117  H    0.024332
   118  H    0.016513
   119  H    0.010609
   120  H    0.017212
   121  H    0.008942
   122  H    0.018445
   123  H    0.025152
   124  H    0.024785
   125  H    0.016604
   126  H    0.004737
   127  H    0.015667
   128  H    0.023544
   129  H    0.022765
   130  H    0.014122
   131  H    0.023381
   132  H    0.015403
   133  H    0.011195
   134  H    0.013809
   135  H    0.019312
   136  H    0.007833
   137  H    0.028110
   138  H    0.020927
   139  H    0.023885
   140  H    0.016073
 Sum of Mulliken charges =  -0.00000

 Dipole moment (field-independent basis, Debye):
    X=              5.2815    Y=              4.7682    Z=             -4.7751  Tot=              8.5692
 N-N= 4.386141715684D+03 E-N= 0.000000000000D+00  KE=-9.447105130942D+03
 Leave Link  601 at Tue Apr 26 23:54:11 2022, MaxMem=  6710886400 cpu:               1.1 elap:               0.1
 (Enter /sw/apps/gaussian-16.0/g16/l9999.exe)
 1\1\GINC-BP1-COMPUTE148\SP\RZINDO CIS\STO-3G\C55H74Mg1N4O6\OF15641\26-
 Apr-2022\0\\#p ZINDO=(nstates=5)\\step_1001_chromophore_9 ZINDO\\0,1\M
 g,0,35.928,1.24,29.73\C,0,33.793,2.237,32.374\C,0,38.504,0.964,32.132\
 C,0,38.111,0.944,27.264\C,0,33.258,1.727,27.507\N,0,36.113,1.525,32.02
 9\C,0,35.114,1.964,32.837\C,0,35.613,1.758,34.326\C,0,37.198,1.757,34.
 174\C,0,37.279,1.41,32.672\C,0,37.884,3.141,34.568\C,0,34.936,0.501,35
 .053\C,0,34.132,0.765,36.266\C,0,34.472,2.037,37.014\O,0,33.721,3.043,

 Normal termination of Gaussian 16 at Tue Apr 26 23:54:11 2022.
