 Gaussian 16, Revision A.03,
 Gaussian 16:  ES64L-G16RevA.03 25-Dec-2016

 ------------------------------
 #p blyp/Def2SVP td=(nstates=5)
 ------------------------------

 --------------------------------------------------
 step_1501_chromophore_1 TDDFT with blyp functional
 --------------------------------------------------
 Symbolic Z-matrix:
 Charge =  0 Multiplicity = 1

                         Standard orientation:
 ---------------------------------------------------------------------
 Center     Atomic      Atomic             Coordinates (Angstroms)
 Number     Number       Type             X           Y           Z
 ---------------------------------------------------------------------
      1         12           0        6.282999    0.577429    0.004732
      2          6           0        4.309900   -2.440239   -0.495173
      3          6           0        3.488399    2.384664   -1.094730
      4          6           0        8.096645    3.316804    0.074324
      5          6           0        8.840165   -1.404617    0.809471
      6          7           0        4.098011   -0.048126   -0.872675
      7          6           0        3.529361   -1.303851   -0.940697
      8          6           0        2.054677   -1.134121   -1.359924
      9          6           0        1.887628    0.385837   -1.482305
     10          6           0        3.230181    0.964367   -1.086951
     11          6           0        1.463042    0.967143   -2.900054
     12          6           0        0.942913   -1.987490   -0.543777
     13          6           0       -0.452148   -1.314719   -0.455071
     14          6           0       -1.659680   -2.189285   -0.582253
     15          8           0       -1.619392   -3.440227   -0.586897
     16          8           0       -2.814156   -1.444586   -0.746916
     17          7           0        5.865465    2.584949   -0.446079
     18          6           0        4.604791    3.164806   -0.733209
     19          6           0        4.828230    4.588489   -0.815961
     20          6           0        6.150721    4.905619   -0.415771
     21          6           0        6.743499    3.608507   -0.178255
     22          6           0        3.764064    5.560558   -1.334539
     23          6           0        6.843652    6.149866   -0.246582
     24          8           0        8.039885    6.308313   -0.015695
     25          6           0        6.057377    7.508232   -0.342698
     26          7           0        8.216161    0.905583    0.332290
     27          6           0        8.794005    2.117899    0.355566
     28          6           0       10.260542    2.006209    0.429506
     29          6           0       10.376663    0.614373    1.123695
     30          6           0        9.040389   -0.005743    0.767112
     31          6           0       10.982825    2.053057   -0.976870
     32          6           0       10.577504    0.630349    2.730223
     33          6           0        9.386981    0.892947    3.718006
     34          7           0        6.620565   -1.494751    0.062963
     35          6           0        7.684181   -2.180119    0.402596
     36          6           0        7.478008   -3.562397    0.316137
     37          6           0        6.178687   -3.678302    0.054310
     38          6           0        5.641596   -2.452240   -0.128070
     39          6           0        8.597751   -4.530148    0.436860
     40          6           0        5.153148   -4.741396   -0.135361
     41          8           0        5.300977   -5.961011   -0.160188
     42          6           0        3.855036   -3.932584   -0.486243
     43          6           0        2.924826   -4.356350    0.572383
     44          8           0        2.747007   -3.819362    1.635526
     45          8           0        2.379300   -5.532342    0.163607
     46          6           0        1.236096   -6.023639    0.924981
     47          6           0       -3.916985   -2.314355   -1.123406
     48          6           0       -5.191605   -1.536265   -0.884035
     49          6           0       -6.487800   -1.941821   -0.732332
     50          6           0       -6.888525   -3.425532   -0.957723
     51          6           0       -7.612640   -0.960098   -0.626005
     52          6           0       -8.485574   -0.928712    0.649743
     53          6           0       -8.434039    0.404947    1.476572
     54          6           0       -9.782357    1.223272    1.267880
     55          6           0       -9.558461    2.370712    0.233792
     56          6           0      -10.389456    1.638737    2.610091
     57          6           0      -11.795441    2.326832    2.445824
     58          6           0      -12.933691    1.609375    3.150762
     59          6           0      -14.192648    1.553559    2.247312
     60          6           0      -15.347980    1.364508    3.234037
     61          6           0      -14.239214    0.527050    1.103851
     62          6           0      -14.925203    0.943285   -0.227834
     63          6           0      -14.024300    1.391807   -1.429311
     64          6           0      -13.453930    0.255227   -2.250553
     65          6           0      -11.928341    0.492431   -2.586499
     66          6           0      -14.131466    0.260431   -3.622784
     67          1           0        2.549165    2.926852   -1.228005
     68          1           0        8.779178    4.162075    0.186194
     69          1           0        9.766132   -1.941276    1.026552
     70          1           0        2.007306   -1.635455   -2.327462
     71          1           0        1.127139    0.740676   -0.786240
     72          1           0        2.248455    1.565185   -3.362143
     73          1           0        0.440807    1.336746   -2.819715
     74          1           0        1.507194    0.133970   -3.601427
     75          1           0        1.333689   -1.954509    0.473721
     76          1           0        0.833015   -3.032176   -0.834501
     77          1           0       -0.528690   -0.583114   -1.258943
     78          1           0       -0.521731   -0.809478    0.508157
     79          1           0        4.244477    6.370973   -1.882754
     80          1           0        3.084235    6.031142   -0.624835
     81          1           0        3.107941    5.003639   -2.003639
     82          1           0        5.367591    7.468605    0.500330
     83          1           0        5.625007    7.710903   -1.322775
     84          1           0        6.620279    8.416753   -0.130047
     85          1           0       10.640668    2.853699    0.999835
     86          1           0       11.099040   -0.039476    0.635692
     87          1           0       10.381244    2.798506   -1.498820
     88          1           0       10.834026    1.097245   -1.479912
     89          1           0       12.012740    2.313229   -0.731833
     90          1           0       11.322974    1.406013    2.903173
     91          1           0       11.227676   -0.230095    2.885582
     92          1           0        8.455023    0.704140    3.186795
     93          1           0        9.281077    1.877180    4.175426
     94          1           0        9.496566    0.151494    4.510039
     95          1           0        9.441211   -3.997187   -0.003691
     96          1           0        8.363705   -5.424463   -0.140808
     97          1           0        8.839707   -4.728652    1.480461
     98          1           0        3.461152   -4.225515   -1.460221
     99          1           0        1.448580   -6.818334    1.639425
    100          1           0        0.518414   -6.465623    0.233756
    101          1           0        0.806341   -5.140934    1.398842
    102          1           0       -4.043812   -3.143748   -0.426561
    103          1           0       -3.981550   -2.515685   -2.192262
    104          1           0       -4.999603   -0.465865   -0.820133
    105          1           0       -6.129616   -4.133139   -1.291357
    106          1           0       -7.800009   -3.531096   -1.546730
    107          1           0       -7.333962   -3.707191   -0.004080
    108          1           0       -8.351580   -1.052723   -1.422210
    109          1           0       -7.161719    0.023129   -0.761192
    110          1           0       -8.244895   -1.657831    1.422374
    111          1           0       -9.541212   -1.095280    0.434884
    112          1           0       -7.487469    0.797404    1.106528
    113          1           0       -8.340883    0.074545    2.511644
    114          1           0      -10.563942    0.588309    0.850314
    115          1           0      -10.065459    1.959284   -0.638552
    116          1           0       -8.523595    2.454436   -0.099349
    117          1           0       -9.958519    3.248903    0.739475
    118          1           0       -9.731865    2.233446    3.244844
    119          1           0      -10.685758    0.732443    3.139034
    120          1           0      -12.075086    2.511600    1.408295
    121          1           0      -11.760119    3.328049    2.875737
    122          1           0      -12.907511    2.166141    4.087459
    123          1           0      -12.690206    0.589089    3.449694
    124          1           0      -14.156048    2.517674    1.739498
    125          1           0      -15.848613    2.292603    3.509984
    126          1           0      -15.071544    0.956796    4.206645
    127          1           0      -16.097475    0.684062    2.829756
    128          1           0      -14.688278   -0.437420    1.342061
    129          1           0      -13.317883    0.062584    0.753123
    130          1           0      -15.498904    1.839182    0.006273
    131          1           0      -15.659636    0.216851   -0.578597
    132          1           0      -13.133442    1.899762   -1.060023
    133          1           0      -14.464961    2.186078   -2.031375
    134          1           0      -13.514965   -0.671188   -1.679363
    135          1           0      -11.327867    0.531102   -1.677280
    136          1           0      -11.881218    1.453556   -3.097676
    137          1           0      -11.554294   -0.223896   -3.318935
    138          1           0      -14.359194   -0.783042   -3.841746
    139          1           0      -13.526003    0.692140   -4.418963
    140          1           0      -15.040997    0.859917   -3.665573
 ---------------------------------------------------------------------

 SCF Done:  E(RB-LYP) =  -3007.32410915     A.U. after   21 cycles

 Excitation energies and oscillator strengths:

 Excited State   1:      Singlet-A      1.7369 eV  713.82 nm  f=0.0004  <S**2>=0.000
     244 -> 247        0.70472
 This state for optimization and/or second-order correction.
 Total Energy, E(TD-HF/TD-DFT) =  -3007.26027912
 Copying the excited state density for this state as the 1-particle RhoCI density.

 Excited State   2:      Singlet-A      1.8150 eV  683.10 nm  f=0.2942  <S**2>=0.000
     245 -> 248        0.21652
     246 -> 247        0.68120
     246 <- 247       -0.13878

 Excited State   3:      Singlet-A      1.9460 eV  637.11 nm  f=0.0622  <S**2>=0.000
     243 -> 247        0.10207
     245 -> 247        0.64965
     246 -> 248       -0.23593

 Excited State   4:      Singlet-A      2.1838 eV  567.75 nm  f=0.0043  <S**2>=0.000
     243 -> 247        0.69607

 Excited State   5:      Singlet-A      2.3239 eV  533.52 nm  f=0.0001  <S**2>=0.000
     242 -> 247        0.70700

 The electronic state is 1-A.
 Alpha  occ. eigenvalues --  -46.27240 -18.83492 -18.81281 -18.77676 -18.76811
 Alpha  occ. eigenvalues --  -18.76437 -18.74951 -14.03145 -14.02482 -14.01074
 Alpha  occ. eigenvalues --  -14.00474 -10.05069 -10.03406 -10.00489  -9.99379
 Alpha  occ. eigenvalues --   -9.98311  -9.97230  -9.96764  -9.96748  -9.95987
 Alpha  occ. eigenvalues --   -9.95813  -9.95688  -9.95586  -9.94808  -9.94696
 Alpha  occ. eigenvalues --   -9.94430  -9.94401  -9.94366  -9.94322  -9.94090
 Alpha  occ. eigenvalues --   -9.93941  -9.93652  -9.93533  -9.93326  -9.93298
 Alpha  occ. eigenvalues --   -9.93285  -9.93193  -9.92933  -9.92771  -9.92647
 Alpha  occ. eigenvalues --   -9.92556  -9.92393  -9.92386  -9.92333  -9.92325
 Alpha  occ. eigenvalues --   -9.92143  -9.92143  -9.92056  -9.92016  -9.91937
 Alpha  occ. eigenvalues --   -9.91749  -9.91679  -9.91662  -9.91445  -9.91282
 Alpha  occ. eigenvalues --   -9.91221  -9.91112  -9.91074  -9.90994  -9.90944
 Alpha  occ. eigenvalues --   -9.90939  -9.90767  -9.90761  -9.90748  -9.90638
 Alpha  occ. eigenvalues --   -9.90440  -2.91927  -1.72345  -1.71816  -1.71640
 Alpha  occ. eigenvalues --   -0.98494  -0.97937  -0.91683  -0.90871  -0.90238
 Alpha  occ. eigenvalues --   -0.89873  -0.88545  -0.87795  -0.85585  -0.84420
 Alpha  occ. eigenvalues --   -0.75964  -0.73560  -0.73221  -0.72582  -0.72168
 Alpha  occ. eigenvalues --   -0.71703  -0.71556  -0.71176  -0.71087  -0.70276
 Alpha  occ. eigenvalues --   -0.70153  -0.69466  -0.68298  -0.67800  -0.67249
 Alpha  occ. eigenvalues --   -0.66597  -0.65808  -0.65136  -0.64719  -0.64061
 Alpha  occ. eigenvalues --   -0.63598  -0.62708  -0.62343  -0.61703  -0.60712
 Alpha  occ. eigenvalues --   -0.60623  -0.60079  -0.59893  -0.59773  -0.59377
 Alpha  occ. eigenvalues --   -0.58275  -0.57996  -0.56897  -0.55956  -0.55357
 Alpha  occ. eigenvalues --   -0.54573  -0.54080  -0.53204  -0.52547  -0.51831
 Alpha  occ. eigenvalues --   -0.51655  -0.51115  -0.50953  -0.50467  -0.50208
 Alpha  occ. eigenvalues --   -0.49451  -0.49093  -0.48652  -0.47840  -0.46768
 Alpha  occ. eigenvalues --   -0.46476  -0.46348  -0.45932  -0.45017  -0.44839
 Alpha  occ. eigenvalues --   -0.44610  -0.44367  -0.43320  -0.42753  -0.42463
 Alpha  occ. eigenvalues --   -0.42081  -0.41966  -0.41618  -0.41422  -0.41239
 Alpha  occ. eigenvalues --   -0.41010  -0.40970  -0.40911  -0.40319  -0.39973
 Alpha  occ. eigenvalues --   -0.39717  -0.39550  -0.39321  -0.39265  -0.39218
 Alpha  occ. eigenvalues --   -0.39123  -0.38925  -0.38817  -0.38615  -0.38383
 Alpha  occ. eigenvalues --   -0.38040  -0.37944  -0.37638  -0.37483  -0.37003
 Alpha  occ. eigenvalues --   -0.36972  -0.36892  -0.36662  -0.36560  -0.36160
 Alpha  occ. eigenvalues --   -0.35941  -0.35821  -0.35634  -0.35529  -0.35433
 Alpha  occ. eigenvalues --   -0.35320  -0.35122  -0.35073  -0.34902  -0.34705
 Alpha  occ. eigenvalues --   -0.34500  -0.34257  -0.34067  -0.33936  -0.33885
 Alpha  occ. eigenvalues --   -0.33829  -0.33712  -0.33606  -0.33343  -0.33121
 Alpha  occ. eigenvalues --   -0.33003  -0.32773  -0.32559  -0.32482  -0.32137
 Alpha  occ. eigenvalues --   -0.31989  -0.31807  -0.31732  -0.31627  -0.31313
 Alpha  occ. eigenvalues --   -0.31288  -0.31189  -0.30938  -0.30758  -0.30741
 Alpha  occ. eigenvalues --   -0.30665  -0.30551  -0.30329  -0.30162  -0.30125
 Alpha  occ. eigenvalues --   -0.29974  -0.29902  -0.29827  -0.28968  -0.28927
 Alpha  occ. eigenvalues --   -0.28791  -0.28645  -0.28254  -0.27888  -0.27879
 Alpha  occ. eigenvalues --   -0.27590  -0.27269  -0.27156  -0.26798  -0.26787
 Alpha  occ. eigenvalues --   -0.26328  -0.25961  -0.25947  -0.25656  -0.25348
 Alpha  occ. eigenvalues --   -0.25078  -0.24550  -0.24313  -0.24196  -0.23403
 Alpha  occ. eigenvalues --   -0.23156  -0.22444  -0.22124  -0.21905  -0.21246
 Alpha  occ. eigenvalues --   -0.20374  -0.19973  -0.19318  -0.17730  -0.17023
 Alpha  occ. eigenvalues --   -0.15845
 Alpha virt. eigenvalues --   -0.11433  -0.07146  -0.06700  -0.04723  -0.04035
 Alpha virt. eigenvalues --   -0.02319  -0.01831  -0.01349  -0.01116   0.00152
 Alpha virt. eigenvalues --    0.00783   0.01489   0.01821   0.02393   0.03143

 Mulliken charges:
               1
     1  Mg   0.691589
     2  C   -0.020617
     3  C   -0.041142
     4  C   -0.046266
     5  C   -0.086854
     6  N   -0.170105
     7  C   -0.120247
     8  C    0.084749
     9  C   -0.036324
    10  C   -0.027672
    11  C    0.136672
    12  C    0.094856
    13  C    0.105988
    14  C    0.098430
    15  O   -0.216081
    16  O   -0.271869
    17  N   -0.325561
    18  C    0.158214
    19  C   -0.131777
    20  C    0.124567
    21  C    0.110881
    22  C    0.157709
    23  C   -0.112344
    24  O   -0.164591
    25  C    0.099753
    26  N   -0.228659
    27  C   -0.012982
    28  C    0.007468
    29  C    0.030725
    30  C    0.003549
    31  C    0.155487
    32  C    0.090990
    33  C    0.079023
    34  N   -0.219447
    35  C    0.090901
    36  C   -0.208550
    37  C    0.098997
    38  C    0.136136
    39  C    0.196252
    40  C   -0.036539
    41  O   -0.114918
    42  C    0.009484
    43  C    0.112383
    44  O   -0.165678
    45  O   -0.264835
    46  C    0.213153
    47  C    0.346245
    48  C   -0.188614
    49  C   -0.098332
    50  C    0.135426
    51  C    0.152584
    52  C    0.029450
    53  C    0.105612
    54  C   -0.117050
    55  C    0.136842
    56  C    0.115306
    57  C    0.025928
    58  C    0.074323
    59  C   -0.014476
    60  C    0.126842
    61  C    0.118382
    62  C    0.053175
    63  C    0.112865
    64  C   -0.103489
    65  C    0.062473
    66  C    0.115260
    67  H   -0.050377
    68  H   -0.045618
    69  H   -0.072734
    70  H   -0.028370
    71  H   -0.012416
    72  H   -0.000886
    73  H    0.009260
    74  H   -0.030923
    75  H   -0.004108
    76  H    0.006850
    77  H    0.004671
    78  H    0.017921
    79  H   -0.010915
    80  H    0.003337
    81  H   -0.014205
    82  H   -0.002152
    83  H    0.009788
    84  H   -0.024695
    85  H   -0.033895
    86  H   -0.042589
    87  H   -0.004057
    88  H   -0.006040
    89  H    0.010081
    90  H   -0.032787
    91  H   -0.025855
    92  H    0.005465
    93  H    0.003962
    94  H   -0.000062
    95  H   -0.009694
    96  H    0.008010
    97  H    0.003886
    98  H    0.009863
    99  H    0.016296
   100  H    0.012791
   101  H    0.018991
   102  H    0.023989
   103  H    0.018273
   104  H   -0.036815
   105  H    0.005000
   106  H   -0.020177
   107  H   -0.017691
   108  H   -0.023118
   109  H   -0.035425
   110  H   -0.030297
   111  H   -0.043256
   112  H   -0.028130
   113  H   -0.040946
   114  H   -0.018158
   115  H   -0.026133
   116  H   -0.020893
   117  H    0.002204
   118  H   -0.028604
   119  H   -0.040216
   120  H   -0.021248
   121  H   -0.037084
   122  H   -0.027146
   123  H   -0.031540
   124  H   -0.032126
   125  H   -0.020619
   126  H   -0.017615
   127  H   -0.026056
   128  H   -0.051008
   129  H   -0.055442
   130  H   -0.038603
   131  H   -0.028952
   132  H   -0.051451
   133  H   -0.039409
   134  H   -0.029544
   135  H    0.010173
   136  H   -0.016061
   137  H   -0.014467
   138  H   -0.015057
   139  H   -0.018382
   140  H   -0.020416
 Sum of Mulliken charges =  -0.00000

 Dipole moment (field-independent basis, Debye):
    X=             -3.8232    Y=              1.8152    Z=             -0.8922  Tot=              4.3253
 Quadrupole moment (field-independent basis, Debye-Ang):
   XX=           -377.0193   YY=           -440.0092   ZZ=           -401.1078
   XY=             -2.8891   XZ=              6.2189   YZ=              0.3093

 Normal termination of Gaussian 16 at Wed May  4 07:50:26 2022.
