 Gaussian 16, Revision A.03,
 Gaussian 16:  ES64L-G16RevA.03 25-Dec-2016

 -----------------------------------
 #p cam-b3lyp/Def2SVP td=(nstates=5)
 -----------------------------------

 -------------------------------------------------------
 step_1501_chromophore_1 TDDFT with cam-b3lyp functional
 -------------------------------------------------------
 Symbolic Z-matrix:
 Charge =  0 Multiplicity = 1

                         Standard orientation:
 ---------------------------------------------------------------------
 Center     Atomic      Atomic             Coordinates (Angstroms)
 Number     Number       Type             X           Y           Z
 ---------------------------------------------------------------------
      1         12           0        6.282999    0.577429    0.004732
      2          6           0        4.309900   -2.440239   -0.495173
      3          6           0        3.488399    2.384664   -1.094730
      4          6           0        8.096645    3.316804    0.074324
      5          6           0        8.840165   -1.404617    0.809471
      6          7           0        4.098011   -0.048126   -0.872675
      7          6           0        3.529361   -1.303851   -0.940697
      8          6           0        2.054677   -1.134121   -1.359924
      9          6           0        1.887628    0.385837   -1.482305
     10          6           0        3.230181    0.964367   -1.086951
     11          6           0        1.463042    0.967143   -2.900054
     12          6           0        0.942913   -1.987490   -0.543777
     13          6           0       -0.452148   -1.314719   -0.455071
     14          6           0       -1.659680   -2.189285   -0.582253
     15          8           0       -1.619392   -3.440227   -0.586897
     16          8           0       -2.814156   -1.444586   -0.746916
     17          7           0        5.865465    2.584949   -0.446079
     18          6           0        4.604791    3.164806   -0.733209
     19          6           0        4.828230    4.588489   -0.815961
     20          6           0        6.150721    4.905619   -0.415771
     21          6           0        6.743499    3.608507   -0.178255
     22          6           0        3.764064    5.560558   -1.334539
     23          6           0        6.843652    6.149866   -0.246582
     24          8           0        8.039885    6.308313   -0.015695
     25          6           0        6.057377    7.508232   -0.342698
     26          7           0        8.216161    0.905583    0.332290
     27          6           0        8.794005    2.117899    0.355566
     28          6           0       10.260542    2.006209    0.429506
     29          6           0       10.376663    0.614373    1.123695
     30          6           0        9.040389   -0.005743    0.767112
     31          6           0       10.982825    2.053057   -0.976870
     32          6           0       10.577504    0.630349    2.730223
     33          6           0        9.386981    0.892947    3.718006
     34          7           0        6.620565   -1.494751    0.062963
     35          6           0        7.684181   -2.180119    0.402596
     36          6           0        7.478008   -3.562397    0.316137
     37          6           0        6.178687   -3.678302    0.054310
     38          6           0        5.641596   -2.452240   -0.128070
     39          6           0        8.597751   -4.530148    0.436860
     40          6           0        5.153148   -4.741396   -0.135361
     41          8           0        5.300977   -5.961011   -0.160188
     42          6           0        3.855036   -3.932584   -0.486243
     43          6           0        2.924826   -4.356350    0.572383
     44          8           0        2.747007   -3.819362    1.635526
     45          8           0        2.379300   -5.532342    0.163607
     46          6           0        1.236096   -6.023639    0.924981
     47          6           0       -3.916985   -2.314355   -1.123406
     48          6           0       -5.191605   -1.536265   -0.884035
     49          6           0       -6.487800   -1.941821   -0.732332
     50          6           0       -6.888525   -3.425532   -0.957723
     51          6           0       -7.612640   -0.960098   -0.626005
     52          6           0       -8.485574   -0.928712    0.649743
     53          6           0       -8.434039    0.404947    1.476572
     54          6           0       -9.782357    1.223272    1.267880
     55          6           0       -9.558461    2.370712    0.233792
     56          6           0      -10.389456    1.638737    2.610091
     57          6           0      -11.795441    2.326832    2.445824
     58          6           0      -12.933691    1.609375    3.150762
     59          6           0      -14.192648    1.553559    2.247312
     60          6           0      -15.347980    1.364508    3.234037
     61          6           0      -14.239214    0.527050    1.103851
     62          6           0      -14.925203    0.943285   -0.227834
     63          6           0      -14.024300    1.391807   -1.429311
     64          6           0      -13.453930    0.255227   -2.250553
     65          6           0      -11.928341    0.492431   -2.586499
     66          6           0      -14.131466    0.260431   -3.622784
     67          1           0        2.549165    2.926852   -1.228005
     68          1           0        8.779178    4.162075    0.186194
     69          1           0        9.766132   -1.941276    1.026552
     70          1           0        2.007306   -1.635455   -2.327462
     71          1           0        1.127139    0.740676   -0.786240
     72          1           0        2.248455    1.565185   -3.362143
     73          1           0        0.440807    1.336746   -2.819715
     74          1           0        1.507194    0.133970   -3.601427
     75          1           0        1.333689   -1.954509    0.473721
     76          1           0        0.833015   -3.032176   -0.834501
     77          1           0       -0.528690   -0.583114   -1.258943
     78          1           0       -0.521731   -0.809478    0.508157
     79          1           0        4.244477    6.370973   -1.882754
     80          1           0        3.084235    6.031142   -0.624835
     81          1           0        3.107941    5.003639   -2.003639
     82          1           0        5.367591    7.468605    0.500330
     83          1           0        5.625007    7.710903   -1.322775
     84          1           0        6.620279    8.416753   -0.130047
     85          1           0       10.640668    2.853699    0.999835
     86          1           0       11.099040   -0.039476    0.635692
     87          1           0       10.381244    2.798506   -1.498820
     88          1           0       10.834026    1.097245   -1.479912
     89          1           0       12.012740    2.313229   -0.731833
     90          1           0       11.322974    1.406013    2.903173
     91          1           0       11.227676   -0.230095    2.885582
     92          1           0        8.455023    0.704140    3.186795
     93          1           0        9.281077    1.877180    4.175426
     94          1           0        9.496566    0.151494    4.510039
     95          1           0        9.441211   -3.997187   -0.003691
     96          1           0        8.363705   -5.424463   -0.140808
     97          1           0        8.839707   -4.728652    1.480461
     98          1           0        3.461152   -4.225515   -1.460221
     99          1           0        1.448580   -6.818334    1.639425
    100          1           0        0.518414   -6.465623    0.233756
    101          1           0        0.806341   -5.140934    1.398842
    102          1           0       -4.043812   -3.143748   -0.426561
    103          1           0       -3.981550   -2.515685   -2.192262
    104          1           0       -4.999603   -0.465865   -0.820133
    105          1           0       -6.129616   -4.133139   -1.291357
    106          1           0       -7.800009   -3.531096   -1.546730
    107          1           0       -7.333962   -3.707191   -0.004080
    108          1           0       -8.351580   -1.052723   -1.422210
    109          1           0       -7.161719    0.023129   -0.761192
    110          1           0       -8.244895   -1.657831    1.422374
    111          1           0       -9.541212   -1.095280    0.434884
    112          1           0       -7.487469    0.797404    1.106528
    113          1           0       -8.340883    0.074545    2.511644
    114          1           0      -10.563942    0.588309    0.850314
    115          1           0      -10.065459    1.959284   -0.638552
    116          1           0       -8.523595    2.454436   -0.099349
    117          1           0       -9.958519    3.248903    0.739475
    118          1           0       -9.731865    2.233446    3.244844
    119          1           0      -10.685758    0.732443    3.139034
    120          1           0      -12.075086    2.511600    1.408295
    121          1           0      -11.760119    3.328049    2.875737
    122          1           0      -12.907511    2.166141    4.087459
    123          1           0      -12.690206    0.589089    3.449694
    124          1           0      -14.156048    2.517674    1.739498
    125          1           0      -15.848613    2.292603    3.509984
    126          1           0      -15.071544    0.956796    4.206645
    127          1           0      -16.097475    0.684062    2.829756
    128          1           0      -14.688278   -0.437420    1.342061
    129          1           0      -13.317883    0.062584    0.753123
    130          1           0      -15.498904    1.839182    0.006273
    131          1           0      -15.659636    0.216851   -0.578597
    132          1           0      -13.133442    1.899762   -1.060023
    133          1           0      -14.464961    2.186078   -2.031375
    134          1           0      -13.514965   -0.671188   -1.679363
    135          1           0      -11.327867    0.531102   -1.677280
    136          1           0      -11.881218    1.453556   -3.097676
    137          1           0      -11.554294   -0.223896   -3.318935
    138          1           0      -14.359194   -0.783042   -3.841746
    139          1           0      -13.526003    0.692140   -4.418963
    140          1           0      -15.040997    0.859917   -3.665573
 ---------------------------------------------------------------------

 SCF Done:  E(RCAM-B3LYP) =  -3007.12102666     A.U. after   17 cycles

 Excitation energies and oscillator strengths:

 Excited State   1:      Singlet-A      1.7436 eV  711.10 nm  f=0.3744  <S**2>=0.000
     245 -> 248       -0.20270
     246 -> 247        0.67855
     245 <- 248       -0.10861
 This state for optimization and/or second-order correction.
 Total Energy, E(TD-HF/TD-DFT) =  -3007.05695196
 Copying the excited state density for this state as the 1-particle RhoCI density.

 Excited State   2:      Singlet-A      2.2077 eV  561.60 nm  f=0.0891  <S**2>=0.000
     245 -> 247        0.63779
     246 -> 248        0.29489

 Excited State   3:      Singlet-A      3.3992 eV  364.75 nm  f=0.0021  <S**2>=0.000
     242 -> 247        0.53889
     242 -> 248        0.11339
     242 -> 249        0.32711
     242 -> 250       -0.23043

 Excited State   4:      Singlet-A      3.4241 eV  362.10 nm  f=0.4409  <S**2>=0.000
     241 -> 247       -0.18313
     243 -> 247       -0.15810
     244 -> 247       -0.26652
     245 -> 247       -0.23469
     246 -> 248        0.55430

 Excited State   5:      Singlet-A      3.4632 eV  358.01 nm  f=0.1261  <S**2>=0.000
     239 -> 247       -0.14927
     241 -> 247       -0.13315
     243 -> 247        0.29845
     244 -> 247        0.50484
     245 -> 247       -0.11676
     246 -> 248        0.23867

 The electronic state is 1-A.
 Alpha  occ. eigenvalues --  -46.88778 -19.26494 -19.24343 -19.20729 -19.20191
 Alpha  occ. eigenvalues --  -19.19702 -19.18104 -14.42286 -14.40989 -14.39496
 Alpha  occ. eigenvalues --  -14.38896 -10.40504 -10.38976 -10.35983 -10.34563
 Alpha  occ. eigenvalues --  -10.32356 -10.31763 -10.31088 -10.30822 -10.30342
 Alpha  occ. eigenvalues --  -10.30078 -10.30021 -10.30015 -10.29172 -10.29062
 Alpha  occ. eigenvalues --  -10.28961 -10.28902 -10.28611 -10.28368 -10.28348
 Alpha  occ. eigenvalues --  -10.28167 -10.28003 -10.27524 -10.27508 -10.27380
 Alpha  occ. eigenvalues --  -10.27052 -10.26879 -10.26768 -10.26688 -10.26566
 Alpha  occ. eigenvalues --  -10.26358 -10.26277 -10.26162 -10.26103 -10.26028
 Alpha  occ. eigenvalues --  -10.25897 -10.25843 -10.25824 -10.25820 -10.25752
 Alpha  occ. eigenvalues --  -10.25683 -10.25361 -10.25337 -10.25265 -10.25227
 Alpha  occ. eigenvalues --  -10.24953 -10.24946 -10.24823 -10.24709 -10.24650
 Alpha  occ. eigenvalues --  -10.24615 -10.24595 -10.24401 -10.24342 -10.24340
 Alpha  occ. eigenvalues --  -10.24334  -3.17373  -1.92264  -1.91838  -1.91669
 Alpha  occ. eigenvalues --   -1.16984  -1.16691  -1.10208  -1.09217  -1.08354
 Alpha  occ. eigenvalues --   -1.07804  -1.06280  -1.05491  -1.03336  -1.01918
 Alpha  occ. eigenvalues --   -0.93267  -0.90441  -0.90069  -0.89385  -0.88895
 Alpha  occ. eigenvalues --   -0.88324  -0.88133  -0.87782  -0.87702  -0.86884
 Alpha  occ. eigenvalues --   -0.86697  -0.85851  -0.84603  -0.84062  -0.83386
 Alpha  occ. eigenvalues --   -0.82662  -0.81732  -0.81029  -0.80520  -0.79863
 Alpha  occ. eigenvalues --   -0.79626  -0.78385  -0.78148  -0.77143  -0.76109
 Alpha  occ. eigenvalues --   -0.76019  -0.75339  -0.75209  -0.75085  -0.74671
 Alpha  occ. eigenvalues --   -0.73373  -0.73053  -0.71840  -0.70820  -0.69900
 Alpha  occ. eigenvalues --   -0.69361  -0.68690  -0.67684  -0.66966  -0.65968
 Alpha  occ. eigenvalues --   -0.65651  -0.65273  -0.65075  -0.64646  -0.64200
 Alpha  occ. eigenvalues --   -0.63346  -0.62990  -0.62571  -0.61612  -0.60462
 Alpha  occ. eigenvalues --   -0.60061  -0.60021  -0.59493  -0.58519  -0.58360
 Alpha  occ. eigenvalues --   -0.58202  -0.57728  -0.56570  -0.55936  -0.55752
 Alpha  occ. eigenvalues --   -0.55070  -0.54959  -0.54724  -0.54587  -0.54292
 Alpha  occ. eigenvalues --   -0.53887  -0.53803  -0.53642  -0.53056  -0.52818
 Alpha  occ. eigenvalues --   -0.52578  -0.52193  -0.52119  -0.52000  -0.51952
 Alpha  occ. eigenvalues --   -0.51664  -0.51528  -0.51477  -0.51107  -0.50719
 Alpha  occ. eigenvalues --   -0.50430  -0.50308  -0.50066  -0.49787  -0.49647
 Alpha  occ. eigenvalues --   -0.49283  -0.49095  -0.48942  -0.48817  -0.48648
 Alpha  occ. eigenvalues --   -0.48412  -0.47837  -0.47769  -0.47594  -0.47516
 Alpha  occ. eigenvalues --   -0.47439  -0.47168  -0.46994  -0.46932  -0.46866
 Alpha  occ. eigenvalues --   -0.46370  -0.46074  -0.45793  -0.45717  -0.45652
 Alpha  occ. eigenvalues --   -0.45540  -0.45496  -0.45420  -0.45368  -0.44910
 Alpha  occ. eigenvalues --   -0.44727  -0.44502  -0.44437  -0.44132  -0.43793
 Alpha  occ. eigenvalues --   -0.43685  -0.43525  -0.43164  -0.43067  -0.42845
 Alpha  occ. eigenvalues --   -0.42758  -0.42673  -0.42520  -0.42268  -0.42153
 Alpha  occ. eigenvalues --   -0.41972  -0.41937  -0.41750  -0.41400  -0.41323
 Alpha  occ. eigenvalues --   -0.41130  -0.41123  -0.41012  -0.40976  -0.40079
 Alpha  occ. eigenvalues --   -0.39973  -0.39625  -0.39267  -0.38928  -0.38905
 Alpha  occ. eigenvalues --   -0.38479  -0.38257  -0.38058  -0.37940  -0.37866
 Alpha  occ. eigenvalues --   -0.37550  -0.36696  -0.36625  -0.36458  -0.36277
 Alpha  occ. eigenvalues --   -0.35915  -0.35692  -0.34879  -0.34863  -0.34668
 Alpha  occ. eigenvalues --   -0.34313  -0.33669  -0.33532  -0.31369  -0.31207
 Alpha  occ. eigenvalues --   -0.30583  -0.29906  -0.29550  -0.29524  -0.23721
 Alpha  occ. eigenvalues --   -0.21178
 Alpha virt. eigenvalues --   -0.08431  -0.02125  -0.00196   0.02166   0.02752
 Alpha virt. eigenvalues --    0.03893   0.05427   0.05581   0.06273   0.06626
 Alpha virt. eigenvalues --    0.07675   0.08020   0.08574   0.09116   0.09679

 Mulliken charges:
               1
     1  Mg   0.825330
     2  C   -0.035618
     3  C   -0.050426
     4  C   -0.071072
     5  C   -0.093565
     6  N   -0.230191
     7  C   -0.077354
     8  C    0.039784
     9  C   -0.097303
    10  C   -0.006506
    11  C    0.073057
    12  C    0.039518
    13  C    0.033823
    14  C    0.183345
    15  O   -0.258978
    16  O   -0.335431
    17  N   -0.408372
    18  C    0.157356
    19  C   -0.130959
    20  C    0.040271
    21  C    0.141232
    22  C    0.105506
    23  C   -0.035282
    24  O   -0.206853
    25  C    0.025512
    26  N   -0.309499
    27  C    0.013356
    28  C   -0.052509
    29  C   -0.031970
    30  C    0.022510
    31  C    0.101273
    32  C    0.040298
    33  C    0.018867
    34  N   -0.308389
    35  C    0.096351
    36  C   -0.205357
    37  C    0.021110
    38  C    0.159406
    39  C    0.143923
    40  C    0.065658
    41  O   -0.149902
    42  C   -0.062394
    43  C    0.194176
    44  O   -0.201559
    45  O   -0.326694
    46  C    0.176923
    47  C    0.309931
    48  C   -0.202871
    49  C   -0.123459
    50  C    0.073236
    51  C    0.093345
    52  C   -0.022950
    53  C    0.051522
    54  C   -0.164600
    55  C    0.082427
    56  C    0.063257
    57  C   -0.027128
    58  C    0.026731
    59  C   -0.077558
    60  C    0.065496
    61  C    0.062328
    62  C    0.001749
    63  C    0.057852
    64  C   -0.163173
    65  C    0.015551
    66  C    0.052725
    67  H   -0.015803
    68  H   -0.005759
    69  H   -0.039280
    70  H    0.007230
    71  H    0.020527
    72  H    0.027239
    73  H    0.031857
    74  H   -0.003773
    75  H    0.027807
    76  H    0.036805
    77  H    0.034746
    78  H    0.050056
    79  H    0.014088
    80  H    0.030678
    81  H    0.012485
    82  H    0.025113
    83  H    0.035430
    84  H    0.011468
    85  H    0.001909
    86  H   -0.004761
    87  H    0.020642
    88  H    0.016725
    89  H    0.033474
    90  H   -0.003987
    91  H    0.002976
    92  H    0.024391
    93  H    0.027478
    94  H    0.023324
    95  H    0.014484
    96  H    0.034880
    97  H    0.030952
    98  H    0.053012
    99  H    0.038547
   100  H    0.036062
   101  H    0.042507
   102  H    0.052609
   103  H    0.044798
   104  H   -0.002373
   105  H    0.028821
   106  H    0.006570
   107  H    0.006653
   108  H    0.006375
   109  H   -0.006932
   110  H   -0.001527
   111  H   -0.014162
   112  H   -0.001202
   113  H   -0.009028
   114  H    0.005201
   115  H   -0.006988
   116  H    0.003619
   117  H    0.024988
   118  H    0.000466
   119  H   -0.011395
   120  H    0.001758
   121  H   -0.007117
   122  H    0.003351
   123  H   -0.004544
   124  H   -0.000509
   125  H    0.004919
   126  H    0.006985
   127  H   -0.000929
   128  H   -0.018799
   129  H   -0.028891
   130  H   -0.009439
   131  H   -0.000389
   132  H   -0.024792
   133  H   -0.008460
   134  H    0.001027
   135  H    0.021209
   136  H    0.006289
   137  H    0.010941
   138  H    0.009676
   139  H    0.006430
   140  H    0.004453
 Sum of Mulliken charges =  -0.00000

 Dipole moment (field-independent basis, Debye):
    X=             -4.2790    Y=              2.1629    Z=             -0.9881  Tot=              4.8954
 Quadrupole moment (field-independent basis, Debye-Ang):
   XX=           -380.3668   YY=           -435.4907   ZZ=           -401.0868
   XY=             -1.5947   XZ=              6.2592   YZ=             -0.1958

 Normal termination of Gaussian 16 at Wed May  4 06:53:12 2022.
