 Gaussian 16, Revision A.03,
 Gaussian 16:  ES64L-G16RevA.03 25-Dec-2016

 ---------------------------------
 #p PBE1PBE/Def2SVP td=(nstates=5)
 ---------------------------------

 -----------------------------------------------------
 step_1501_chromophore_1 TDDFT with PBE1PBE functional
 -----------------------------------------------------
 Symbolic Z-matrix:
 Charge =  0 Multiplicity = 1

                         Standard orientation:
 ---------------------------------------------------------------------
 Center     Atomic      Atomic             Coordinates (Angstroms)
 Number     Number       Type             X           Y           Z
 ---------------------------------------------------------------------
      1         12           0        6.282999    0.577429    0.004732
      2          6           0        4.309900   -2.440239   -0.495173
      3          6           0        3.488399    2.384664   -1.094730
      4          6           0        8.096645    3.316804    0.074324
      5          6           0        8.840165   -1.404617    0.809471
      6          7           0        4.098011   -0.048126   -0.872675
      7          6           0        3.529361   -1.303851   -0.940697
      8          6           0        2.054677   -1.134121   -1.359924
      9          6           0        1.887628    0.385837   -1.482305
     10          6           0        3.230181    0.964367   -1.086951
     11          6           0        1.463042    0.967143   -2.900054
     12          6           0        0.942913   -1.987490   -0.543777
     13          6           0       -0.452148   -1.314719   -0.455071
     14          6           0       -1.659680   -2.189285   -0.582253
     15          8           0       -1.619392   -3.440227   -0.586897
     16          8           0       -2.814156   -1.444586   -0.746916
     17          7           0        5.865465    2.584949   -0.446079
     18          6           0        4.604791    3.164806   -0.733209
     19          6           0        4.828230    4.588489   -0.815961
     20          6           0        6.150721    4.905619   -0.415771
     21          6           0        6.743499    3.608507   -0.178255
     22          6           0        3.764064    5.560558   -1.334539
     23          6           0        6.843652    6.149866   -0.246582
     24          8           0        8.039885    6.308313   -0.015695
     25          6           0        6.057377    7.508232   -0.342698
     26          7           0        8.216161    0.905583    0.332290
     27          6           0        8.794005    2.117899    0.355566
     28          6           0       10.260542    2.006209    0.429506
     29          6           0       10.376663    0.614373    1.123695
     30          6           0        9.040389   -0.005743    0.767112
     31          6           0       10.982825    2.053057   -0.976870
     32          6           0       10.577504    0.630349    2.730223
     33          6           0        9.386981    0.892947    3.718006
     34          7           0        6.620565   -1.494751    0.062963
     35          6           0        7.684181   -2.180119    0.402596
     36          6           0        7.478008   -3.562397    0.316137
     37          6           0        6.178687   -3.678302    0.054310
     38          6           0        5.641596   -2.452240   -0.128070
     39          6           0        8.597751   -4.530148    0.436860
     40          6           0        5.153148   -4.741396   -0.135361
     41          8           0        5.300977   -5.961011   -0.160188
     42          6           0        3.855036   -3.932584   -0.486243
     43          6           0        2.924826   -4.356350    0.572383
     44          8           0        2.747007   -3.819362    1.635526
     45          8           0        2.379300   -5.532342    0.163607
     46          6           0        1.236096   -6.023639    0.924981
     47          6           0       -3.916985   -2.314355   -1.123406
     48          6           0       -5.191605   -1.536265   -0.884035
     49          6           0       -6.487800   -1.941821   -0.732332
     50          6           0       -6.888525   -3.425532   -0.957723
     51          6           0       -7.612640   -0.960098   -0.626005
     52          6           0       -8.485574   -0.928712    0.649743
     53          6           0       -8.434039    0.404947    1.476572
     54          6           0       -9.782357    1.223272    1.267880
     55          6           0       -9.558461    2.370712    0.233792
     56          6           0      -10.389456    1.638737    2.610091
     57          6           0      -11.795441    2.326832    2.445824
     58          6           0      -12.933691    1.609375    3.150762
     59          6           0      -14.192648    1.553559    2.247312
     60          6           0      -15.347980    1.364508    3.234037
     61          6           0      -14.239214    0.527050    1.103851
     62          6           0      -14.925203    0.943285   -0.227834
     63          6           0      -14.024300    1.391807   -1.429311
     64          6           0      -13.453930    0.255227   -2.250553
     65          6           0      -11.928341    0.492431   -2.586499
     66          6           0      -14.131466    0.260431   -3.622784
     67          1           0        2.549165    2.926852   -1.228005
     68          1           0        8.779178    4.162075    0.186194
     69          1           0        9.766132   -1.941276    1.026552
     70          1           0        2.007306   -1.635455   -2.327462
     71          1           0        1.127139    0.740676   -0.786240
     72          1           0        2.248455    1.565185   -3.362143
     73          1           0        0.440807    1.336746   -2.819715
     74          1           0        1.507194    0.133970   -3.601427
     75          1           0        1.333689   -1.954509    0.473721
     76          1           0        0.833015   -3.032176   -0.834501
     77          1           0       -0.528690   -0.583114   -1.258943
     78          1           0       -0.521731   -0.809478    0.508157
     79          1           0        4.244477    6.370973   -1.882754
     80          1           0        3.084235    6.031142   -0.624835
     81          1           0        3.107941    5.003639   -2.003639
     82          1           0        5.367591    7.468605    0.500330
     83          1           0        5.625007    7.710903   -1.322775
     84          1           0        6.620279    8.416753   -0.130047
     85          1           0       10.640668    2.853699    0.999835
     86          1           0       11.099040   -0.039476    0.635692
     87          1           0       10.381244    2.798506   -1.498820
     88          1           0       10.834026    1.097245   -1.479912
     89          1           0       12.012740    2.313229   -0.731833
     90          1           0       11.322974    1.406013    2.903173
     91          1           0       11.227676   -0.230095    2.885582
     92          1           0        8.455023    0.704140    3.186795
     93          1           0        9.281077    1.877180    4.175426
     94          1           0        9.496566    0.151494    4.510039
     95          1           0        9.441211   -3.997187   -0.003691
     96          1           0        8.363705   -5.424463   -0.140808
     97          1           0        8.839707   -4.728652    1.480461
     98          1           0        3.461152   -4.225515   -1.460221
     99          1           0        1.448580   -6.818334    1.639425
    100          1           0        0.518414   -6.465623    0.233756
    101          1           0        0.806341   -5.140934    1.398842
    102          1           0       -4.043812   -3.143748   -0.426561
    103          1           0       -3.981550   -2.515685   -2.192262
    104          1           0       -4.999603   -0.465865   -0.820133
    105          1           0       -6.129616   -4.133139   -1.291357
    106          1           0       -7.800009   -3.531096   -1.546730
    107          1           0       -7.333962   -3.707191   -0.004080
    108          1           0       -8.351580   -1.052723   -1.422210
    109          1           0       -7.161719    0.023129   -0.761192
    110          1           0       -8.244895   -1.657831    1.422374
    111          1           0       -9.541212   -1.095280    0.434884
    112          1           0       -7.487469    0.797404    1.106528
    113          1           0       -8.340883    0.074545    2.511644
    114          1           0      -10.563942    0.588309    0.850314
    115          1           0      -10.065459    1.959284   -0.638552
    116          1           0       -8.523595    2.454436   -0.099349
    117          1           0       -9.958519    3.248903    0.739475
    118          1           0       -9.731865    2.233446    3.244844
    119          1           0      -10.685758    0.732443    3.139034
    120          1           0      -12.075086    2.511600    1.408295
    121          1           0      -11.760119    3.328049    2.875737
    122          1           0      -12.907511    2.166141    4.087459
    123          1           0      -12.690206    0.589089    3.449694
    124          1           0      -14.156048    2.517674    1.739498
    125          1           0      -15.848613    2.292603    3.509984
    126          1           0      -15.071544    0.956796    4.206645
    127          1           0      -16.097475    0.684062    2.829756
    128          1           0      -14.688278   -0.437420    1.342061
    129          1           0      -13.317883    0.062584    0.753123
    130          1           0      -15.498904    1.839182    0.006273
    131          1           0      -15.659636    0.216851   -0.578597
    132          1           0      -13.133442    1.899762   -1.060023
    133          1           0      -14.464961    2.186078   -2.031375
    134          1           0      -13.514965   -0.671188   -1.679363
    135          1           0      -11.327867    0.531102   -1.677280
    136          1           0      -11.881218    1.453556   -3.097676
    137          1           0      -11.554294   -0.223896   -3.318935
    138          1           0      -14.359194   -0.783042   -3.841746
    139          1           0      -13.526003    0.692140   -4.418963
    140          1           0      -15.040997    0.859917   -3.665573
 ---------------------------------------------------------------------

 SCF Done:  E(RPBE1PBE) =  -3005.31111656     A.U. after   15 cycles

 Excitation energies and oscillator strengths:

 Excited State   1:      Singlet-A      1.8850 eV  657.74 nm  f=0.3627  <S**2>=0.000
     245 -> 248       -0.19560
     246 -> 247        0.68552
 This state for optimization and/or second-order correction.
 Total Energy, E(TD-HF/TD-DFT) =  -3005.24184386
 Copying the excited state density for this state as the 1-particle RhoCI density.

 Excited State   2:      Singlet-A      2.1875 eV  566.78 nm  f=0.0880  <S**2>=0.000
     245 -> 247        0.65203
     246 -> 248        0.26397

 Excited State   3:      Singlet-A      2.8468 eV  435.52 nm  f=0.0001  <S**2>=0.000
     244 -> 247        0.66839
     244 -> 249        0.17946
     244 -> 250       -0.11032

 Excited State   4:      Singlet-A      3.0978 eV  400.23 nm  f=0.0050  <S**2>=0.000
     241 -> 247       -0.18939
     242 -> 247        0.65813

 Excited State   5:      Singlet-A      3.1928 eV  388.33 nm  f=0.0770  <S**2>=0.000
     240 -> 247        0.12174
     241 -> 247        0.51515
     241 -> 249       -0.11652
     242 -> 247        0.20891
     245 -> 247        0.10590
     246 -> 248       -0.35412

 The electronic state is 1-A.
 Alpha  occ. eigenvalues --  -46.92190 -19.27174 -19.24925 -19.21037 -19.20338
 Alpha  occ. eigenvalues --  -19.19825 -19.18372 -14.41634 -14.40643 -14.39217
 Alpha  occ. eigenvalues --  -14.38512 -10.37549 -10.35871 -10.33113 -10.31697
 Alpha  occ. eigenvalues --  -10.29764 -10.29567 -10.28907 -10.28051 -10.27985
 Alpha  occ. eigenvalues --  -10.27814 -10.27794 -10.27661 -10.26783 -10.26735
 Alpha  occ. eigenvalues --  -10.26694 -10.26568 -10.26178 -10.26157 -10.25870
 Alpha  occ. eigenvalues --  -10.25840 -10.25480 -10.25412 -10.25195 -10.25012
 Alpha  occ. eigenvalues --  -10.24919 -10.24585 -10.24303 -10.24215 -10.24153
 Alpha  occ. eigenvalues --  -10.24059 -10.24038 -10.23932 -10.23665 -10.23511
 Alpha  occ. eigenvalues --  -10.23475 -10.23447 -10.23423 -10.23364 -10.23264
 Alpha  occ. eigenvalues --  -10.23112 -10.23081 -10.22910 -10.22901 -10.22549
 Alpha  occ. eigenvalues --  -10.22523 -10.22433 -10.22381 -10.22278 -10.22225
 Alpha  occ. eigenvalues --  -10.22173 -10.22170 -10.21901 -10.21799 -10.21743
 Alpha  occ. eigenvalues --  -10.21725  -3.14366  -1.87197  -1.86750  -1.86583
 Alpha  occ. eigenvalues --   -1.11798  -1.11367  -1.04880  -1.03974  -1.03097
 Alpha  occ. eigenvalues --   -1.02648  -1.00985  -1.00209  -0.97907  -0.96597
 Alpha  occ. eigenvalues --   -0.87571  -0.84536  -0.84194  -0.83561  -0.83017
 Alpha  occ. eigenvalues --   -0.82684  -0.82473  -0.82068  -0.81887  -0.81189
 Alpha  occ. eigenvalues --   -0.81022  -0.80119  -0.78819  -0.78312  -0.77634
 Alpha  occ. eigenvalues --   -0.76874  -0.75995  -0.75238  -0.74892  -0.74037
 Alpha  occ. eigenvalues --   -0.73814  -0.72651  -0.72358  -0.71447  -0.70396
 Alpha  occ. eigenvalues --   -0.70185  -0.69709  -0.69339  -0.69203  -0.68824
 Alpha  occ. eigenvalues --   -0.67699  -0.67459  -0.66287  -0.65141  -0.64277
 Alpha  occ. eigenvalues --   -0.63785  -0.62924  -0.62196  -0.61210  -0.60404
 Alpha  occ. eigenvalues --   -0.60171  -0.59813  -0.59241  -0.58870  -0.58746
 Alpha  occ. eigenvalues --   -0.57831  -0.57172  -0.56764  -0.56164  -0.54953
 Alpha  occ. eigenvalues --   -0.54593  -0.54536  -0.53984  -0.52977  -0.52813
 Alpha  occ. eigenvalues --   -0.52544  -0.52334  -0.51090  -0.50511  -0.50291
 Alpha  occ. eigenvalues --   -0.49646  -0.49482  -0.49311  -0.49148  -0.48831
 Alpha  occ. eigenvalues --   -0.48303  -0.48281  -0.48004  -0.47614  -0.47409
 Alpha  occ. eigenvalues --   -0.47109  -0.46714  -0.46567  -0.46494  -0.46268
 Alpha  occ. eigenvalues --   -0.46150  -0.46094  -0.46017  -0.45774  -0.45314
 Alpha  occ. eigenvalues --   -0.45009  -0.44864  -0.44672  -0.44368  -0.44242
 Alpha  occ. eigenvalues --   -0.43815  -0.43686  -0.43579  -0.43428  -0.43243
 Alpha  occ. eigenvalues --   -0.43076  -0.42543  -0.42453  -0.42202  -0.42092
 Alpha  occ. eigenvalues --   -0.42025  -0.41841  -0.41646  -0.41611  -0.41521
 Alpha  occ. eigenvalues --   -0.41048  -0.40722  -0.40535  -0.40424  -0.40402
 Alpha  occ. eigenvalues --   -0.40227  -0.40139  -0.40115  -0.40015  -0.39677
 Alpha  occ. eigenvalues --   -0.39380  -0.39285  -0.39184  -0.38881  -0.38527
 Alpha  occ. eigenvalues --   -0.38467  -0.38320  -0.37972  -0.37871  -0.37686
 Alpha  occ. eigenvalues --   -0.37595  -0.37385  -0.37230  -0.37072  -0.37037
 Alpha  occ. eigenvalues --   -0.36854  -0.36670  -0.36614  -0.36378  -0.36091
 Alpha  occ. eigenvalues --   -0.36042  -0.35968  -0.35843  -0.35762  -0.34870
 Alpha  occ. eigenvalues --   -0.34813  -0.34411  -0.34035  -0.33857  -0.33733
 Alpha  occ. eigenvalues --   -0.33298  -0.33249  -0.33049  -0.32844  -0.32732
 Alpha  occ. eigenvalues --   -0.32345  -0.31703  -0.31492  -0.31420  -0.31153
 Alpha  occ. eigenvalues --   -0.30918  -0.30530  -0.29787  -0.29759  -0.29547
 Alpha  occ. eigenvalues --   -0.29370  -0.29031  -0.28520  -0.26957  -0.26278
 Alpha  occ. eigenvalues --   -0.26113  -0.25198  -0.24854  -0.24691  -0.20675
 Alpha  occ. eigenvalues --   -0.18793
 Alpha virt. eigenvalues --   -0.10967  -0.05576  -0.04417  -0.02202  -0.00765
 Alpha virt. eigenvalues --   -0.00070   0.01138   0.01620   0.01747   0.02908
 Alpha virt. eigenvalues --    0.03669   0.04245   0.04887   0.05263   0.06123

 Mulliken charges:
               1
     1  Mg   0.973095
     2  C   -0.046952
     3  C   -0.056108
     4  C   -0.063156
     5  C   -0.072191
     6  N   -0.332495
     7  C    0.010407
     8  C   -0.023711
     9  C   -0.186841
    10  C    0.043768
    11  C    0.014454
    12  C   -0.012599
    13  C   -0.047727
    14  C    0.249542
    15  O   -0.289604
    16  O   -0.366485
    17  N   -0.513365
    18  C    0.182866
    19  C   -0.159477
    20  C   -0.017073
    21  C    0.176678
    22  C    0.051929
    23  C    0.014071
    24  O   -0.244347
    25  C   -0.047151
    26  N   -0.420129
    27  C    0.047106
    28  C   -0.129105
    29  C   -0.112770
    30  C    0.057039
    31  C    0.041183
    32  C   -0.011803
    33  C   -0.059755
    34  N   -0.436589
    35  C    0.120353
    36  C   -0.225577
    37  C   -0.032791
    38  C    0.192977
    39  C    0.088375
    40  C    0.166323
    41  O   -0.195271
    42  C   -0.158603
    43  C    0.278981
    44  O   -0.238191
    45  O   -0.358739
    46  C    0.124562
    47  C    0.265104
    48  C   -0.210091
    49  C   -0.168189
    50  C    0.013733
    51  C    0.024314
    52  C   -0.079139
    53  C   -0.003532
    54  C   -0.256270
    55  C    0.016221
    56  C    0.005817
    57  C   -0.091851
    58  C   -0.019467
    59  C   -0.178593
    60  C    0.007634
    61  C    0.013849
    62  C   -0.063589
    63  C    0.002176
    64  C   -0.255117
    65  C   -0.058629
    66  C   -0.004904
    67  H    0.015156
    68  H    0.026301
    69  H   -0.006920
    70  H    0.047229
    71  H    0.059470
    72  H    0.055407
    73  H    0.057659
    74  H    0.025111
    75  H    0.063504
    76  H    0.069473
    77  H    0.069240
    78  H    0.081340
    79  H    0.042325
    80  H    0.057398
    81  H    0.039713
    82  H    0.052939
    83  H    0.060470
    84  H    0.039668
    85  H    0.037475
    86  H    0.030903
    87  H    0.050354
    88  H    0.045031
    89  H    0.061381
    90  H    0.029949
    91  H    0.034314
    92  H    0.057158
    93  H    0.054278
    94  H    0.051323
    95  H    0.041545
    96  H    0.063087
    97  H    0.059187
    98  H    0.087312
    99  H    0.059960
   100  H    0.057254
   101  H    0.062649
   102  H    0.079378
   103  H    0.072065
   104  H    0.027795
   105  H    0.054214
   106  H    0.034332
   107  H    0.035946
   108  H    0.039279
   109  H    0.024964
   110  H    0.030785
   111  H    0.018352
   112  H    0.031089
   113  H    0.024197
   114  H    0.048519
   115  H    0.026108
   116  H    0.031431
   117  H    0.052419
   118  H    0.032477
   119  H    0.023390
   120  H    0.037325
   121  H    0.026791
   122  H    0.035318
   123  H    0.027283
   124  H    0.037683
   125  H    0.033083
   126  H    0.033875
   127  H    0.026552
   128  H    0.013584
   129  H    0.006674
   130  H    0.024544
   131  H    0.032111
   132  H    0.012364
   133  H    0.022638
   134  H    0.036657
   135  H    0.055843
   136  H    0.034901
   137  H    0.040184
   138  H    0.038025
   139  H    0.032952
   140  H    0.031646
 Sum of Mulliken charges =  -0.00000

 Dipole moment (field-independent basis, Debye):
    X=             -4.1187    Y=              2.2054    Z=             -0.9613  Tot=              4.7699
 Quadrupole moment (field-independent basis, Debye-Ang):
   XX=           -371.8573   YY=           -433.3249   ZZ=           -398.4889
   XY=             -1.5612   XZ=              6.9414   YZ=             -0.1346

 Normal termination of Gaussian 16 at Wed May  4 07:12:48 2022.
