 Gaussian 16, Revision A.03,
 Gaussian 16:  ES64L-G16RevA.03 25-Dec-2016

 --------------------------------
 #p wB97XD/Def2SVP td=(nstates=5)
 --------------------------------

 ----------------------------------------------------
 step_1501_chromophore_1 TDDFT with wB97XD functional
 ----------------------------------------------------
 Symbolic Z-matrix:
 Charge =  0 Multiplicity = 1

                         Standard orientation:
 ---------------------------------------------------------------------
 Center     Atomic      Atomic             Coordinates (Angstroms)
 Number     Number       Type             X           Y           Z
 ---------------------------------------------------------------------
      1         12           0        6.282999    0.577429    0.004732
      2          6           0        4.309900   -2.440239   -0.495173
      3          6           0        3.488399    2.384664   -1.094730
      4          6           0        8.096645    3.316804    0.074324
      5          6           0        8.840165   -1.404617    0.809471
      6          7           0        4.098011   -0.048126   -0.872675
      7          6           0        3.529361   -1.303851   -0.940697
      8          6           0        2.054677   -1.134121   -1.359924
      9          6           0        1.887628    0.385837   -1.482305
     10          6           0        3.230181    0.964367   -1.086951
     11          6           0        1.463042    0.967143   -2.900054
     12          6           0        0.942913   -1.987490   -0.543777
     13          6           0       -0.452148   -1.314719   -0.455071
     14          6           0       -1.659680   -2.189285   -0.582253
     15          8           0       -1.619392   -3.440227   -0.586897
     16          8           0       -2.814156   -1.444586   -0.746916
     17          7           0        5.865465    2.584949   -0.446079
     18          6           0        4.604791    3.164806   -0.733209
     19          6           0        4.828230    4.588489   -0.815961
     20          6           0        6.150721    4.905619   -0.415771
     21          6           0        6.743499    3.608507   -0.178255
     22          6           0        3.764064    5.560558   -1.334539
     23          6           0        6.843652    6.149866   -0.246582
     24          8           0        8.039885    6.308313   -0.015695
     25          6           0        6.057377    7.508232   -0.342698
     26          7           0        8.216161    0.905583    0.332290
     27          6           0        8.794005    2.117899    0.355566
     28          6           0       10.260542    2.006209    0.429506
     29          6           0       10.376663    0.614373    1.123695
     30          6           0        9.040389   -0.005743    0.767112
     31          6           0       10.982825    2.053057   -0.976870
     32          6           0       10.577504    0.630349    2.730223
     33          6           0        9.386981    0.892947    3.718006
     34          7           0        6.620565   -1.494751    0.062963
     35          6           0        7.684181   -2.180119    0.402596
     36          6           0        7.478008   -3.562397    0.316137
     37          6           0        6.178687   -3.678302    0.054310
     38          6           0        5.641596   -2.452240   -0.128070
     39          6           0        8.597751   -4.530148    0.436860
     40          6           0        5.153148   -4.741396   -0.135361
     41          8           0        5.300977   -5.961011   -0.160188
     42          6           0        3.855036   -3.932584   -0.486243
     43          6           0        2.924826   -4.356350    0.572383
     44          8           0        2.747007   -3.819362    1.635526
     45          8           0        2.379300   -5.532342    0.163607
     46          6           0        1.236096   -6.023639    0.924981
     47          6           0       -3.916985   -2.314355   -1.123406
     48          6           0       -5.191605   -1.536265   -0.884035
     49          6           0       -6.487800   -1.941821   -0.732332
     50          6           0       -6.888525   -3.425532   -0.957723
     51          6           0       -7.612640   -0.960098   -0.626005
     52          6           0       -8.485574   -0.928712    0.649743
     53          6           0       -8.434039    0.404947    1.476572
     54          6           0       -9.782357    1.223272    1.267880
     55          6           0       -9.558461    2.370712    0.233792
     56          6           0      -10.389456    1.638737    2.610091
     57          6           0      -11.795441    2.326832    2.445824
     58          6           0      -12.933691    1.609375    3.150762
     59          6           0      -14.192648    1.553559    2.247312
     60          6           0      -15.347980    1.364508    3.234037
     61          6           0      -14.239214    0.527050    1.103851
     62          6           0      -14.925203    0.943285   -0.227834
     63          6           0      -14.024300    1.391807   -1.429311
     64          6           0      -13.453930    0.255227   -2.250553
     65          6           0      -11.928341    0.492431   -2.586499
     66          6           0      -14.131466    0.260431   -3.622784
     67          1           0        2.549165    2.926852   -1.228005
     68          1           0        8.779178    4.162075    0.186194
     69          1           0        9.766132   -1.941276    1.026552
     70          1           0        2.007306   -1.635455   -2.327462
     71          1           0        1.127139    0.740676   -0.786240
     72          1           0        2.248455    1.565185   -3.362143
     73          1           0        0.440807    1.336746   -2.819715
     74          1           0        1.507194    0.133970   -3.601427
     75          1           0        1.333689   -1.954509    0.473721
     76          1           0        0.833015   -3.032176   -0.834501
     77          1           0       -0.528690   -0.583114   -1.258943
     78          1           0       -0.521731   -0.809478    0.508157
     79          1           0        4.244477    6.370973   -1.882754
     80          1           0        3.084235    6.031142   -0.624835
     81          1           0        3.107941    5.003639   -2.003639
     82          1           0        5.367591    7.468605    0.500330
     83          1           0        5.625007    7.710903   -1.322775
     84          1           0        6.620279    8.416753   -0.130047
     85          1           0       10.640668    2.853699    0.999835
     86          1           0       11.099040   -0.039476    0.635692
     87          1           0       10.381244    2.798506   -1.498820
     88          1           0       10.834026    1.097245   -1.479912
     89          1           0       12.012740    2.313229   -0.731833
     90          1           0       11.322974    1.406013    2.903173
     91          1           0       11.227676   -0.230095    2.885582
     92          1           0        8.455023    0.704140    3.186795
     93          1           0        9.281077    1.877180    4.175426
     94          1           0        9.496566    0.151494    4.510039
     95          1           0        9.441211   -3.997187   -0.003691
     96          1           0        8.363705   -5.424463   -0.140808
     97          1           0        8.839707   -4.728652    1.480461
     98          1           0        3.461152   -4.225515   -1.460221
     99          1           0        1.448580   -6.818334    1.639425
    100          1           0        0.518414   -6.465623    0.233756
    101          1           0        0.806341   -5.140934    1.398842
    102          1           0       -4.043812   -3.143748   -0.426561
    103          1           0       -3.981550   -2.515685   -2.192262
    104          1           0       -4.999603   -0.465865   -0.820133
    105          1           0       -6.129616   -4.133139   -1.291357
    106          1           0       -7.800009   -3.531096   -1.546730
    107          1           0       -7.333962   -3.707191   -0.004080
    108          1           0       -8.351580   -1.052723   -1.422210
    109          1           0       -7.161719    0.023129   -0.761192
    110          1           0       -8.244895   -1.657831    1.422374
    111          1           0       -9.541212   -1.095280    0.434884
    112          1           0       -7.487469    0.797404    1.106528
    113          1           0       -8.340883    0.074545    2.511644
    114          1           0      -10.563942    0.588309    0.850314
    115          1           0      -10.065459    1.959284   -0.638552
    116          1           0       -8.523595    2.454436   -0.099349
    117          1           0       -9.958519    3.248903    0.739475
    118          1           0       -9.731865    2.233446    3.244844
    119          1           0      -10.685758    0.732443    3.139034
    120          1           0      -12.075086    2.511600    1.408295
    121          1           0      -11.760119    3.328049    2.875737
    122          1           0      -12.907511    2.166141    4.087459
    123          1           0      -12.690206    0.589089    3.449694
    124          1           0      -14.156048    2.517674    1.739498
    125          1           0      -15.848613    2.292603    3.509984
    126          1           0      -15.071544    0.956796    4.206645
    127          1           0      -16.097475    0.684062    2.829756
    128          1           0      -14.688278   -0.437420    1.342061
    129          1           0      -13.317883    0.062584    0.753123
    130          1           0      -15.498904    1.839182    0.006273
    131          1           0      -15.659636    0.216851   -0.578597
    132          1           0      -13.133442    1.899762   -1.060023
    133          1           0      -14.464961    2.186078   -2.031375
    134          1           0      -13.514965   -0.671188   -1.679363
    135          1           0      -11.327867    0.531102   -1.677280
    136          1           0      -11.881218    1.453556   -3.097676
    137          1           0      -11.554294   -0.223896   -3.318935
    138          1           0      -14.359194   -0.783042   -3.841746
    139          1           0      -13.526003    0.692140   -4.418963
    140          1           0      -15.040997    0.859917   -3.665573
 ---------------------------------------------------------------------

 SCF Done:  E(RwB97XD) =  -3007.82026187     A.U. after   19 cycles

 Excitation energies and oscillator strengths:

 Excited State   1:      Singlet-A      1.6855 eV  735.59 nm  f=0.3717  <S**2>=0.000
     245 -> 248       -0.20830
     246 -> 247        0.67638
     245 <- 248       -0.11816
 This state for optimization and/or second-order correction.
 Total Energy, E(TD-HF/TD-DFT) =  -3007.75832100
 Copying the excited state density for this state as the 1-particle RhoCI density.

 Excited State   2:      Singlet-A      2.1562 eV  575.00 nm  f=0.0869  <S**2>=0.000
     245 -> 247        0.63626
     246 -> 248        0.29609

 Excited State   3:      Singlet-A      3.4208 eV  362.44 nm  f=0.0015  <S**2>=0.000
     242 -> 247        0.50796
     242 -> 248        0.11175
     242 -> 249        0.34742
     242 -> 250       -0.24486
     243 -> 247       -0.13204

 Excited State   4:      Singlet-A      3.4369 eV  360.74 nm  f=0.4510  <S**2>=0.000
     241 -> 247       -0.18736
     243 -> 247       -0.30597
     245 -> 247       -0.23258
     246 -> 248        0.55405
     245 <- 247        0.10242

 Excited State   5:      Singlet-A      3.4826 eV  356.01 nm  f=0.1261  <S**2>=0.000
     239 -> 247       -0.11658
     241 -> 247       -0.15069
     242 -> 247        0.13374
     243 -> 247        0.56597
     245 -> 247       -0.11577
     246 -> 248        0.23451

 The electronic state is 1-A.
 Alpha  occ. eigenvalues --  -46.95099 -19.31763 -19.29574 -19.25692 -19.25264
 Alpha  occ. eigenvalues --  -19.24645 -19.23117 -14.46912 -14.45516 -14.44109
 Alpha  occ. eigenvalues --  -14.43500 -10.44333 -10.42821 -10.40043 -10.38513
 Alpha  occ. eigenvalues --  -10.36256 -10.35822 -10.35101 -10.34541 -10.34345
 Alpha  occ. eigenvalues --  -10.34089 -10.34060 -10.34045 -10.33335 -10.33243
 Alpha  occ. eigenvalues --  -10.32981 -10.32977 -10.32675 -10.32399 -10.32304
 Alpha  occ. eigenvalues --  -10.32174 -10.32129 -10.31560 -10.31559 -10.31404
 Alpha  occ. eigenvalues --  -10.31070 -10.30832 -10.30711 -10.30615 -10.30583
 Alpha  occ. eigenvalues --  -10.30354 -10.30352 -10.30190 -10.29963 -10.29876
 Alpha  occ. eigenvalues --  -10.29845 -10.29785 -10.29767 -10.29755 -10.29636
 Alpha  occ. eigenvalues --  -10.29560 -10.29278 -10.29272 -10.29236 -10.29124
 Alpha  occ. eigenvalues --  -10.28879 -10.28807 -10.28775 -10.28683 -10.28650
 Alpha  occ. eigenvalues --  -10.28535 -10.28530 -10.28271 -10.28250 -10.28166
 Alpha  occ. eigenvalues --  -10.28162  -3.21148  -1.94727  -1.94274  -1.94112
 Alpha  occ. eigenvalues --   -1.19193  -1.18860  -1.12468  -1.11411  -1.10555
 Alpha  occ. eigenvalues --   -1.10012  -1.08298  -1.07542  -1.05346  -1.03957
 Alpha  occ. eigenvalues --   -0.95276  -0.92216  -0.91872  -0.91222  -0.90676
 Alpha  occ. eigenvalues --   -0.90253  -0.90025  -0.89642  -0.89549  -0.88844
 Alpha  occ. eigenvalues --   -0.88623  -0.87755  -0.86476  -0.85976  -0.85265
 Alpha  occ. eigenvalues --   -0.84520  -0.83609  -0.82901  -0.82481  -0.81714
 Alpha  occ. eigenvalues --   -0.81546  -0.80306  -0.80068  -0.79061  -0.78021
 Alpha  occ. eigenvalues --   -0.77875  -0.77279  -0.77018  -0.76890  -0.76506
 Alpha  occ. eigenvalues --   -0.75312  -0.75030  -0.73825  -0.72756  -0.71798
 Alpha  occ. eigenvalues --   -0.71371  -0.70561  -0.69696  -0.68840  -0.67919
 Alpha  occ. eigenvalues --   -0.67572  -0.67277  -0.66899  -0.66512  -0.66209
 Alpha  occ. eigenvalues --   -0.65317  -0.64810  -0.64410  -0.63612  -0.62426
 Alpha  occ. eigenvalues --   -0.62037  -0.62010  -0.61458  -0.60459  -0.60353
 Alpha  occ. eigenvalues --   -0.60073  -0.59705  -0.58515  -0.57903  -0.57712
 Alpha  occ. eigenvalues --   -0.57034  -0.56904  -0.56694  -0.56538  -0.56237
 Alpha  occ. eigenvalues --   -0.55757  -0.55688  -0.55489  -0.54992  -0.54781
 Alpha  occ. eigenvalues --   -0.54488  -0.54121  -0.54057  -0.53904  -0.53871
 Alpha  occ. eigenvalues --   -0.53530  -0.53421  -0.53379  -0.53059  -0.52625
 Alpha  occ. eigenvalues --   -0.52341  -0.52202  -0.51970  -0.51679  -0.51548
 Alpha  occ. eigenvalues --   -0.51232  -0.50974  -0.50866  -0.50743  -0.50544
 Alpha  occ. eigenvalues --   -0.50326  -0.49761  -0.49693  -0.49506  -0.49438
 Alpha  occ. eigenvalues --   -0.49311  -0.49100  -0.48916  -0.48856  -0.48782
 Alpha  occ. eigenvalues --   -0.48289  -0.47976  -0.47746  -0.47633  -0.47540
 Alpha  occ. eigenvalues --   -0.47446  -0.47362  -0.47325  -0.47257  -0.46850
 Alpha  occ. eigenvalues --   -0.46604  -0.46438  -0.46360  -0.46044  -0.45788
 Alpha  occ. eigenvalues --   -0.45595  -0.45441  -0.45038  -0.44991  -0.44755
 Alpha  occ. eigenvalues --   -0.44692  -0.44543  -0.44435  -0.44135  -0.44115
 Alpha  occ. eigenvalues --   -0.43924  -0.43798  -0.43663  -0.43359  -0.43178
 Alpha  occ. eigenvalues --   -0.43075  -0.43016  -0.42892  -0.42847  -0.41930
 Alpha  occ. eigenvalues --   -0.41850  -0.41475  -0.41127  -0.40906  -0.40784
 Alpha  occ. eigenvalues --   -0.40343  -0.40186  -0.40023  -0.39879  -0.39768
 Alpha  occ. eigenvalues --   -0.39389  -0.38616  -0.38539  -0.38491  -0.38106
 Alpha  occ. eigenvalues --   -0.37924  -0.37526  -0.36805  -0.36726  -0.36627
 Alpha  occ. eigenvalues --   -0.36290  -0.35908  -0.35389  -0.33515  -0.33291
 Alpha  occ. eigenvalues --   -0.32755  -0.31826  -0.31726  -0.31585  -0.25644
 Alpha  occ. eigenvalues --   -0.22988
 Alpha virt. eigenvalues --   -0.06786  -0.00216   0.01866   0.04258   0.05834
 Alpha virt. eigenvalues --    0.06131   0.07799   0.08257   0.08437   0.09220
 Alpha virt. eigenvalues --    0.10384   0.10714   0.11712   0.12015   0.12965

 Mulliken charges:
               1
     1  Mg   0.962025
     2  C   -0.044821
     3  C   -0.063827
     4  C   -0.082630
     5  C   -0.098896
     6  N   -0.293825
     7  C   -0.033017
     8  C   -0.000715
     9  C   -0.155549
    10  C    0.024117
    11  C    0.025559
    12  C    0.000658
    13  C   -0.027826
    14  C    0.242044
    15  O   -0.288505
    16  O   -0.366179
    17  N   -0.486484
    18  C    0.171259
    19  C   -0.148197
    20  C   -0.010509
    21  C    0.168320
    22  C    0.063650
    23  C    0.010690
    24  O   -0.238909
    25  C   -0.034292
    26  N   -0.388069
    27  C    0.037417
    28  C   -0.106154
    29  C   -0.085690
    30  C    0.048125
    31  C    0.052500
    32  C   -0.003814
    33  C   -0.037317
    34  N   -0.398936
    35  C    0.113215
    36  C   -0.219950
    37  C   -0.025360
    38  C    0.183188
    39  C    0.099939
    40  C    0.143061
    41  O   -0.184760
    42  C   -0.124179
    43  C    0.255255
    44  O   -0.230637
    45  O   -0.357922
    46  C    0.140111
    47  C    0.279883
    48  C   -0.216877
    49  C   -0.157732
    50  C    0.025305
    51  C    0.048827
    52  C   -0.065967
    53  C    0.011177
    54  C   -0.213166
    55  C    0.034852
    56  C    0.022627
    57  C   -0.070184
    58  C   -0.009017
    59  C   -0.138302
    60  C    0.018123
    61  C    0.023577
    62  C   -0.045043
    63  C    0.020923
    64  C   -0.229234
    65  C   -0.029288
    66  C    0.004811
    67  H    0.009036
    68  H    0.020289
    69  H   -0.013865
    70  H    0.034705
    71  H    0.046112
    72  H    0.048788
    73  H    0.053373
    74  H    0.018559
    75  H    0.052715
    76  H    0.059914
    77  H    0.058835
    78  H    0.076478
    79  H    0.035264
    80  H    0.054041
    81  H    0.034306
    82  H    0.046683
    83  H    0.055587
    84  H    0.038093
    85  H    0.029620
    86  H    0.021953
    87  H    0.042939
    88  H    0.038231
    89  H    0.056607
    90  H    0.021281
    91  H    0.027832
    92  H    0.044170
    93  H    0.049792
    94  H    0.045900
    95  H    0.034704
    96  H    0.059515
    97  H    0.055033
    98  H    0.082979
    99  H    0.056443
   100  H    0.054189
   101  H    0.058508
   102  H    0.072838
   103  H    0.067446
   104  H    0.023684
   105  H    0.050739
   106  H    0.029126
   107  H    0.028271
   108  H    0.032433
   109  H    0.013189
   110  H    0.023029
   111  H    0.009498
   112  H    0.019673
   113  H    0.016835
   114  H    0.022159
   115  H    0.012660
   116  H    0.025782
   117  H    0.046351
   118  H    0.026021
   119  H    0.011081
   120  H    0.018022
   121  H    0.019356
   122  H    0.028287
   123  H    0.016544
   124  H    0.023196
   125  H    0.027975
   126  H    0.027695
   127  H    0.020333
   128  H    0.006210
   129  H   -0.007179
   130  H    0.014946
   131  H    0.024681
   132  H   -0.004554
   133  H    0.015952
   134  H    0.027317
   135  H    0.037610
   136  H    0.025814
   137  H    0.034101
   138  H    0.032638
   139  H    0.026798
   140  H    0.025375
 Sum of Mulliken charges =  -0.00000

 Dipole moment (field-independent basis, Debye):
    X=             -4.3415    Y=              2.2019    Z=             -0.9862  Tot=              4.9669
 Quadrupole moment (field-independent basis, Debye-Ang):
   XX=           -375.2135   YY=           -431.2162   ZZ=           -398.0682
   XY=             -1.6373   XZ=              6.5689   YZ=             -0.2727

 Normal termination of Gaussian 16 at Wed May  4 07:38:39 2022.
