 Gaussian 16, Revision A.03,
 Gaussian 16:  ES64L-G16RevA.03 25-Dec-2016

 --------------------
 #p ZINDO=(nstates=5)
 --------------------

 -----------------------------
 step_1501_chromophore_1 ZINDO
 -----------------------------
 Symbolic Z-matrix:
 Charge =  0 Multiplicity = 1

                         Standard orientation:
 ---------------------------------------------------------------------
 Center     Atomic      Atomic             Coordinates (Angstroms)
 Number     Number       Type             X           Y           Z
 ---------------------------------------------------------------------
      1         12           0        6.282999    0.577429    0.004732
      2          6           0        4.309900   -2.440239   -0.495173
      3          6           0        3.488399    2.384664   -1.094730
      4          6           0        8.096645    3.316804    0.074324
      5          6           0        8.840165   -1.404617    0.809471
      6          7           0        4.098011   -0.048126   -0.872675
      7          6           0        3.529361   -1.303851   -0.940697
      8          6           0        2.054677   -1.134121   -1.359924
      9          6           0        1.887628    0.385837   -1.482305
     10          6           0        3.230181    0.964367   -1.086951
     11          6           0        1.463042    0.967143   -2.900054
     12          6           0        0.942913   -1.987490   -0.543777
     13          6           0       -0.452148   -1.314719   -0.455071
     14          6           0       -1.659680   -2.189285   -0.582253
     15          8           0       -1.619392   -3.440227   -0.586897
     16          8           0       -2.814156   -1.444586   -0.746916
     17          7           0        5.865465    2.584949   -0.446079
     18          6           0        4.604791    3.164806   -0.733209
     19          6           0        4.828230    4.588489   -0.815961
     20          6           0        6.150721    4.905619   -0.415771
     21          6           0        6.743499    3.608507   -0.178255
     22          6           0        3.764064    5.560558   -1.334539
     23          6           0        6.843652    6.149866   -0.246582
     24          8           0        8.039885    6.308313   -0.015695
     25          6           0        6.057377    7.508232   -0.342698
     26          7           0        8.216161    0.905583    0.332290
     27          6           0        8.794005    2.117899    0.355566
     28          6           0       10.260542    2.006209    0.429506
     29          6           0       10.376663    0.614373    1.123695
     30          6           0        9.040389   -0.005743    0.767112
     31          6           0       10.982825    2.053057   -0.976870
     32          6           0       10.577504    0.630349    2.730223
     33          6           0        9.386981    0.892947    3.718006
     34          7           0        6.620565   -1.494751    0.062963
     35          6           0        7.684181   -2.180119    0.402596
     36          6           0        7.478008   -3.562397    0.316137
     37          6           0        6.178687   -3.678302    0.054310
     38          6           0        5.641596   -2.452240   -0.128070
     39          6           0        8.597751   -4.530148    0.436860
     40          6           0        5.153148   -4.741396   -0.135361
     41          8           0        5.300977   -5.961011   -0.160188
     42          6           0        3.855036   -3.932584   -0.486243
     43          6           0        2.924826   -4.356350    0.572383
     44          8           0        2.747007   -3.819362    1.635526
     45          8           0        2.379300   -5.532342    0.163607
     46          6           0        1.236096   -6.023639    0.924981
     47          6           0       -3.916985   -2.314355   -1.123406
     48          6           0       -5.191605   -1.536265   -0.884035
     49          6           0       -6.487800   -1.941821   -0.732332
     50          6           0       -6.888525   -3.425532   -0.957723
     51          6           0       -7.612640   -0.960098   -0.626005
     52          6           0       -8.485574   -0.928712    0.649743
     53          6           0       -8.434039    0.404947    1.476572
     54          6           0       -9.782357    1.223272    1.267880
     55          6           0       -9.558461    2.370712    0.233792
     56          6           0      -10.389456    1.638737    2.610091
     57          6           0      -11.795441    2.326832    2.445824
     58          6           0      -12.933691    1.609375    3.150762
     59          6           0      -14.192648    1.553559    2.247312
     60          6           0      -15.347980    1.364508    3.234037
     61          6           0      -14.239214    0.527050    1.103851
     62          6           0      -14.925203    0.943285   -0.227834
     63          6           0      -14.024300    1.391807   -1.429311
     64          6           0      -13.453930    0.255227   -2.250553
     65          6           0      -11.928341    0.492431   -2.586499
     66          6           0      -14.131466    0.260431   -3.622784
     67          1           0        2.549165    2.926852   -1.228005
     68          1           0        8.779178    4.162075    0.186194
     69          1           0        9.766132   -1.941276    1.026552
     70          1           0        2.007306   -1.635455   -2.327462
     71          1           0        1.127139    0.740676   -0.786240
     72          1           0        2.248455    1.565185   -3.362143
     73          1           0        0.440807    1.336746   -2.819715
     74          1           0        1.507194    0.133970   -3.601427
     75          1           0        1.333689   -1.954509    0.473721
     76          1           0        0.833015   -3.032176   -0.834501
     77          1           0       -0.528690   -0.583114   -1.258943
     78          1           0       -0.521731   -0.809478    0.508157
     79          1           0        4.244477    6.370973   -1.882754
     80          1           0        3.084235    6.031142   -0.624835
     81          1           0        3.107941    5.003639   -2.003639
     82          1           0        5.367591    7.468605    0.500330
     83          1           0        5.625007    7.710903   -1.322775
     84          1           0        6.620279    8.416753   -0.130047
     85          1           0       10.640668    2.853699    0.999835
     86          1           0       11.099040   -0.039476    0.635692
     87          1           0       10.381244    2.798506   -1.498820
     88          1           0       10.834026    1.097245   -1.479912
     89          1           0       12.012740    2.313229   -0.731833
     90          1           0       11.322974    1.406013    2.903173
     91          1           0       11.227676   -0.230095    2.885582
     92          1           0        8.455023    0.704140    3.186795
     93          1           0        9.281077    1.877180    4.175426
     94          1           0        9.496566    0.151494    4.510039
     95          1           0        9.441211   -3.997187   -0.003691
     96          1           0        8.363705   -5.424463   -0.140808
     97          1           0        8.839707   -4.728652    1.480461
     98          1           0        3.461152   -4.225515   -1.460221
     99          1           0        1.448580   -6.818334    1.639425
    100          1           0        0.518414   -6.465623    0.233756
    101          1           0        0.806341   -5.140934    1.398842
    102          1           0       -4.043812   -3.143748   -0.426561
    103          1           0       -3.981550   -2.515685   -2.192262
    104          1           0       -4.999603   -0.465865   -0.820133
    105          1           0       -6.129616   -4.133139   -1.291357
    106          1           0       -7.800009   -3.531096   -1.546730
    107          1           0       -7.333962   -3.707191   -0.004080
    108          1           0       -8.351580   -1.052723   -1.422210
    109          1           0       -7.161719    0.023129   -0.761192
    110          1           0       -8.244895   -1.657831    1.422374
    111          1           0       -9.541212   -1.095280    0.434884
    112          1           0       -7.487469    0.797404    1.106528
    113          1           0       -8.340883    0.074545    2.511644
    114          1           0      -10.563942    0.588309    0.850314
    115          1           0      -10.065459    1.959284   -0.638552
    116          1           0       -8.523595    2.454436   -0.099349
    117          1           0       -9.958519    3.248903    0.739475
    118          1           0       -9.731865    2.233446    3.244844
    119          1           0      -10.685758    0.732443    3.139034
    120          1           0      -12.075086    2.511600    1.408295
    121          1           0      -11.760119    3.328049    2.875737
    122          1           0      -12.907511    2.166141    4.087459
    123          1           0      -12.690206    0.589089    3.449694
    124          1           0      -14.156048    2.517674    1.739498
    125          1           0      -15.848613    2.292603    3.509984
    126          1           0      -15.071544    0.956796    4.206645
    127          1           0      -16.097475    0.684062    2.829756
    128          1           0      -14.688278   -0.437420    1.342061
    129          1           0      -13.317883    0.062584    0.753123
    130          1           0      -15.498904    1.839182    0.006273
    131          1           0      -15.659636    0.216851   -0.578597
    132          1           0      -13.133442    1.899762   -1.060023
    133          1           0      -14.464961    2.186078   -2.031375
    134          1           0      -13.514965   -0.671188   -1.679363
    135          1           0      -11.327867    0.531102   -1.677280
    136          1           0      -11.881218    1.453556   -3.097676
    137          1           0      -11.554294   -0.223896   -3.318935
    138          1           0      -14.359194   -0.783042   -3.841746
    139          1           0      -13.526003    0.692140   -4.418963
    140          1           0      -15.040997    0.859917   -3.665573
 ---------------------------------------------------------------------

 SCF Done:  E(RZINDO/S) =  -474.411530068     A.U. after   20 cycles

 Excitation energies and oscillator strengths:

 Excited State   1:      Singlet-A      1.2680 eV  977.82 nm  f=0.5724  <S**2>=0.000
     175 ->178        -0.20503
     176 ->177         0.65695
 This state for optimization and/or second-order correction.
 Total Energy, E(CIS/TDA) =  -474.364933199
 Copying the excited state density for this state as the 1-particle RhoCI density.

 Excited State   2:      Singlet-A      1.9207 eV  645.51 nm  f=0.0189  <S**2>=0.000
     175 ->177         0.52816
     176 ->178         0.44252

 Excited State   3:      Singlet-A      2.8644 eV  432.84 nm  f=0.0041  <S**2>=0.000
     170 ->177         0.30913
     170 ->179         0.35376
     170 ->180         0.35991
     170 ->184         0.16994
     170 ->186         0.17673
     170 ->187         0.12375
     170 ->188         0.13564
     170 ->199        -0.11308

 Excited State   4:      Singlet-A      2.9138 eV  425.51 nm  f=0.3893  <S**2>=0.000
     168 ->177        -0.12043
     168 ->178         0.10774
     168 ->179         0.16386
     168 ->180        -0.10086
     169 ->177        -0.14209
     169 ->178         0.10223
     169 ->179         0.16243
     169 ->180        -0.12534
     175 ->177        -0.24081
     176 ->178         0.35023
     176 ->179         0.35799

 Excited State   5:      Singlet-A      2.9662 eV  418.00 nm  f=0.2884  <S**2>=0.000
     168 ->177         0.19469
     168 ->178        -0.16597
     168 ->179        -0.25820
     168 ->180         0.18729
     168 ->186        -0.13596
     169 ->177         0.14966
     169 ->178        -0.12261
     169 ->179        -0.18582
     169 ->180         0.11600
     169 ->186        -0.10022
     175 ->177        -0.18582
     176 ->178         0.26216
     176 ->179         0.23140

 The electronic state is 1-A.
 Alpha  occ. eigenvalues --   -1.89670  -1.85529  -1.78495  -1.74617  -1.73777
 Alpha  occ. eigenvalues --   -1.71862  -1.65851  -1.60220  -1.58353  -1.57933
 Alpha  occ. eigenvalues --   -1.56310  -1.51541  -1.49905  -1.48360  -1.44624
 Alpha  occ. eigenvalues --   -1.43198  -1.41811  -1.40846  -1.39307  -1.37782
 Alpha  occ. eigenvalues --   -1.36228  -1.35048  -1.33372  -1.30648  -1.29165
 Alpha  occ. eigenvalues --   -1.27241  -1.24793  -1.22231  -1.19777  -1.18661
 Alpha  occ. eigenvalues --   -1.17867  -1.15944  -1.15636  -1.13695  -1.13566
 Alpha  occ. eigenvalues --   -1.12416  -1.11811  -1.11204  -1.04996  -1.03453
 Alpha  occ. eigenvalues --   -1.02602  -1.01655  -0.98889  -0.98065  -0.97176
 Alpha  occ. eigenvalues --   -0.96201  -0.94933  -0.94154  -0.93390  -0.92884
 Alpha  occ. eigenvalues --   -0.90695  -0.90073  -0.88694  -0.87966  -0.86429
 Alpha  occ. eigenvalues --   -0.85595  -0.84124  -0.83729  -0.81669  -0.81046
 Alpha  occ. eigenvalues --   -0.79037  -0.78187  -0.76744  -0.76475  -0.76364
 Alpha  occ. eigenvalues --   -0.75667  -0.75447  -0.75230  -0.74554  -0.73994
 Alpha  occ. eigenvalues --   -0.73706  -0.71917  -0.71578  -0.71041  -0.70252
 Alpha  occ. eigenvalues --   -0.69899  -0.69287  -0.68504  -0.68355  -0.67713
 Alpha  occ. eigenvalues --   -0.67078  -0.66609  -0.66390  -0.66214  -0.65665
 Alpha  occ. eigenvalues --   -0.65250  -0.64999  -0.64647  -0.64573  -0.64238
 Alpha  occ. eigenvalues --   -0.63342  -0.62848  -0.62424  -0.62127  -0.61855
 Alpha  occ. eigenvalues --   -0.61548  -0.61191  -0.60850  -0.60453  -0.60134
 Alpha  occ. eigenvalues --   -0.59415  -0.58970  -0.58791  -0.58363  -0.57933
 Alpha  occ. eigenvalues --   -0.57732  -0.57312  -0.57082  -0.56670  -0.56258
 Alpha  occ. eigenvalues --   -0.55991  -0.55703  -0.55577  -0.55085  -0.54688
 Alpha  occ. eigenvalues --   -0.54263  -0.54193  -0.53371  -0.52996  -0.52850
 Alpha  occ. eigenvalues --   -0.52380  -0.52186  -0.51908  -0.51607  -0.51323
 Alpha  occ. eigenvalues --   -0.50932  -0.50490  -0.50264  -0.50007  -0.49710
 Alpha  occ. eigenvalues --   -0.49402  -0.49257  -0.49240  -0.48797  -0.48578
 Alpha  occ. eigenvalues --   -0.48441  -0.48271  -0.48071  -0.47961  -0.47760
 Alpha  occ. eigenvalues --   -0.47622  -0.47047  -0.46975  -0.46330  -0.46225
 Alpha  occ. eigenvalues --   -0.45997  -0.45852  -0.45520  -0.45289  -0.45111
 Alpha  occ. eigenvalues --   -0.44959  -0.44847  -0.44495  -0.44310  -0.43742
 Alpha  occ. eigenvalues --   -0.43642  -0.43026  -0.42946  -0.42783  -0.42254
 Alpha  occ. eigenvalues --   -0.42082  -0.41417  -0.40880  -0.39016  -0.38681
 Alpha  occ. eigenvalues --   -0.38418  -0.36935  -0.35905  -0.35080  -0.34168
 Alpha  occ. eigenvalues --   -0.33395  -0.32800  -0.31969  -0.31780  -0.26308
 Alpha  occ. eigenvalues --   -0.21667
 Alpha virt. eigenvalues --   -0.08116  -0.02484  -0.00777   0.00914   0.01077
 Alpha virt. eigenvalues --    0.02295   0.03135   0.03592   0.04593   0.05163
 Alpha virt. eigenvalues --    0.06249   0.06884   0.07340   0.07738   0.08332

 Mulliken charges:
               1
     1  Mg   0.431593
     2  C   -0.024629
     3  C   -0.057015
     4  C   -0.089540
     5  C   -0.125591
     6  N   -0.272352
     7  C    0.095858
     8  C    0.009452
     9  C    0.008966
    10  C    0.110053
    11  C   -0.061485
    12  C   -0.034485
    13  C    0.007243
    14  C    0.466426
    15  O   -0.530104
    16  O   -0.261170
    17  N   -0.341938
    18  C    0.074004
    19  C    0.026318
    20  C   -0.045548
    21  C    0.154032
    22  C   -0.051323
    23  C    0.329287
    24  O   -0.535782
    25  C   -0.041736
    26  N   -0.267373
    27  C    0.146298
    28  C    0.005946
    29  C   -0.002074
    30  C    0.163983
    31  C   -0.053100
    32  C   -0.034425
    33  C   -0.046989
    34  N   -0.324250
    35  C    0.138211
    36  C    0.033019
    37  C   -0.015106
    38  C    0.098208
    39  C   -0.040170
    40  C    0.330571
    41  O   -0.499330
    42  C    0.055484
    43  C    0.502395
    44  O   -0.528551
    45  O   -0.266691
    46  C    0.072610
    47  C    0.104808
    48  C   -0.088409
    49  C   -0.021720
    50  C   -0.055703
    51  C   -0.011093
    52  C   -0.044389
    53  C   -0.051604
    54  C   -0.013661
    55  C   -0.069086
    56  C   -0.037222
    57  C   -0.048536
    58  C   -0.037406
    59  C    0.006708
    60  C   -0.054262
    61  C   -0.031787
    62  C   -0.036985
    63  C   -0.033436
    64  C   -0.010332
    65  C   -0.062777
    66  C   -0.053923
    67  H    0.019212
    68  H    0.035458
    69  H    0.014650
    70  H    0.024786
    71  H    0.026259
    72  H    0.037536
    73  H    0.031251
    74  H    0.012013
    75  H    0.029119
    76  H    0.047218
    77  H    0.039212
    78  H    0.050559
    79  H    0.027199
    80  H    0.033053
    81  H    0.018746
    82  H    0.029021
    83  H    0.037074
    84  H    0.029849
    85  H    0.029294
    86  H    0.029574
    87  H    0.032828
    88  H    0.027793
    89  H    0.033012
    90  H    0.008334
    91  H    0.024899
    92  H    0.026046
    93  H    0.032384
    94  H    0.020547
    95  H    0.022827
    96  H    0.036137
    97  H    0.038833
    98  H    0.058963
    99  H    0.046096
   100  H    0.032346
   101  H    0.047852
   102  H    0.066769
   103  H    0.062260
   104  H    0.023459
   105  H    0.032927
   106  H    0.023198
   107  H    0.023087
   108  H    0.023141
   109  H    0.016791
   110  H    0.016720
   111  H    0.016832
   112  H    0.032645
   113  H    0.016537
   114  H    0.022587
   115  H    0.023938
   116  H    0.021686
   117  H    0.034535
   118  H    0.024260
   119  H    0.015583
   120  H    0.018644
   121  H    0.008198
   122  H    0.025052
   123  H    0.015900
   124  H    0.025714
   125  H    0.014925
   126  H    0.018931
   127  H    0.013117
   128  H    0.013230
   129  H    0.015395
   130  H    0.005769
   131  H    0.021834
   132  H    0.006431
   133  H    0.022475
   134  H    0.028626
   135  H    0.018115
   136  H    0.015284
   137  H    0.017218
   138  H    0.013266
   139  H    0.021271
   140  H    0.015290
 Sum of Mulliken charges =  -0.00000

 Dipole moment (field-independent basis, Debye):
    X=             -4.7213    Y=              3.4976    Z=             -2.1642  Tot=              6.2616
 N-N= 4.222186917900D+03 E-N= 0.000000000000D+00  KE=-9.118928850612D+03
 Leave Link  601 at Wed May  4 07:50:33 2022, MaxMem=  6710886400 cpu:               0.8 elap:               0.0
 (Enter /sw/apps/gaussian-16.0/g16/l9999.exe)
 1\1\GINC-BP1-COMPUTE067\SP\RZINDO CIS\STO-3G\C55H74Mg1N4O6\OF15641\04-
 May-2022\0\\#p ZINDO=(nstates=5)\\step_1501_chromophore_1 ZINDO\\0,1\M
 g,0,-0.759,17.348,26.58\C,0,-1.232,14.961,29.287\C,0,-1.315,19.879,28.
 94\C,0,-0.712,19.553,24.144\C,0,-0.476,14.738,24.525\N,0,-1.379,17.362
 ,28.936\C,0,-1.472,16.293,29.804\C,0,-1.671,16.854,31.227\C,0,-1.644,1
 8.374,31.022\C,0,-1.389,18.569,29.542\C,0,-2.938,19.196,31.444\C,0,-0.
 784,16.202,32.418\C,0,-0.451,17.172,33.582\C,0,-0.484,16.629,34.976\O,

 Normal termination of Gaussian 16 at Wed May  4 07:50:33 2022.
