 Gaussian 16, Revision A.03,
 Gaussian 16:  ES64L-G16RevA.03 25-Dec-2016

 ------------------------------
 #p blyp/Def2SVP td=(nstates=5)
 ------------------------------

 -------------------------------------------------
 step_601_chromophore_5 TDDFT with blyp functional
 -------------------------------------------------
 Symbolic Z-matrix:
 Charge =  0 Multiplicity = 1

                         Standard orientation:
 ---------------------------------------------------------------------
 Center     Atomic      Atomic             Coordinates (Angstroms)
 Number     Number       Type             X           Y           Z
 ---------------------------------------------------------------------
      1         12           0        5.043450    0.570544   -0.127611
      2          6           0        3.701179   -2.726452    0.168994
      3          6           0        2.718281    1.306508   -2.531472
      4          6           0        6.044814    3.719954    0.007666
      5          6           0        6.971675   -0.185570    2.739261
      6          7           0        3.467709   -0.586872   -1.031517
      7          6           0        3.152417   -1.934070   -0.826555
      8          6           0        1.941830   -2.376415   -1.708155
      9          6           0        1.725998   -1.099856   -2.687078
     10          6           0        2.802171   -0.073303   -2.042932
     11          6           0        1.971242   -1.376735   -4.182912
     12          6           0        0.727747   -2.689668   -0.956272
     13          6           0       -0.016390   -3.972373   -1.380021
     14          6           0       -1.183138   -3.659339   -2.339255
     15          8           0       -1.140946   -3.272887   -3.498769
     16          8           0       -2.340960   -3.584593   -1.627536
     17          7           0        4.585760    2.308468   -1.312358
     18          6           0        3.576349    2.414847   -2.181266
     19          6           0        3.589093    3.750339   -2.694128
     20          6           0        4.588918    4.511271   -2.018072
     21          6           0        5.171139    3.523806   -1.084313
     22          6           0        2.792965    4.130585   -3.933642
     23          6           0        4.935476    5.965866   -2.270166
     24          8           0        4.111761    6.590685   -2.956649
     25          6           0        6.061518    6.627782   -1.623253
     26          7           0        6.228736    1.530395    1.214590
     27          6           0        6.473528    2.850547    1.004812
     28          6           0        7.476386    3.445005    2.054806
     29          6           0        7.849473    2.208636    2.924164
     30          6           0        6.921557    1.153108    2.289471
     31          6           0        8.741255    4.274365    1.546461
     32          6           0        7.939373    2.216388    4.457409
     33          6           0        9.281194    1.966114    5.175739
     34          7           0        5.277751   -1.031232    1.238981
     35          6           0        6.138401   -1.224774    2.349867
     36          6           0        6.002102   -2.573856    2.887055
     37          6           0        5.035280   -3.204631    2.090978
     38          6           0        4.626068   -2.221525    1.109397
     39          6           0        6.918955   -3.142568    3.893812
     40          6           0        4.372863   -4.518686    1.758316
     41          8           0        4.586052   -5.602920    2.241887
     42          6           0        3.368403   -4.177718    0.620095
     43          6           0        3.376532   -5.189416   -0.345407
     44          8           0        2.586166   -6.146219   -0.267099
     45          8           0        4.338715   -5.054840   -1.312506
     46          6           0        4.402864   -6.080475   -2.288283
     47          6           0       -3.605541   -3.189351   -2.344254
     48          6           0       -3.782886   -1.750126   -2.364378
     49          6           0       -4.338087   -0.934243   -1.407419
     50          6           0       -4.412530   -1.337145    0.063310
     51          6           0       -4.520001    0.532929   -1.594025
     52          6           0       -5.886143    1.119342   -1.430754
     53          6           0       -5.851202    2.442589   -0.567562
     54          6           0       -7.231491    2.749349    0.114855
     55          6           0       -7.491176    4.272024    0.064003
     56          6           0       -7.333151    2.151079    1.570798
     57          6           0       -8.815621    1.970389    2.001843
     58          6           0       -9.265490    0.477961    2.024612
     59          6           0      -10.550524    0.231008    1.075304
     60          6           0      -10.001467   -0.189336   -0.253520
     61          6           0      -11.526460   -0.768284    1.692487
     62          6           0      -12.835329   -0.241376    2.352205
     63          6           0      -14.027865   -0.249127    1.341487
     64          6           0      -14.882362    1.049012    1.452696
     65          6           0      -15.848015    1.054943    2.695865
     66          6           0      -15.709354    1.230094    0.203325
     67          1           0        1.982432    1.552423   -3.299916
     68          1           0        6.468844    4.725432   -0.011601
     69          1           0        7.499962   -0.562229    3.617841
     70          1           0        2.181048   -3.262850   -2.295455
     71          1           0        0.721610   -0.676626   -2.657387
     72          1           0        2.366310   -2.370390   -4.392186
     73          1           0        2.619454   -0.653872   -4.679648
     74          1           0        1.155654   -1.368789   -4.906337
     75          1           0        0.061191   -1.850212   -1.150591
     76          1           0        0.894491   -2.780769    0.117428
     77          1           0       -0.265707   -4.448452   -0.431805
     78          1           0        0.633188   -4.722317   -1.830085
     79          1           0        2.411888    3.286508   -4.506938
     80          1           0        3.300978    4.897323   -4.519373
     81          1           0        1.862336    4.598775   -3.615526
     82          1           0        6.920397    6.014666   -1.895877
     83          1           0        5.867467    6.556892   -0.553377
     84          1           0        6.206324    7.675077   -1.887480
     85          1           0        6.892140    4.235002    2.526835
     86          1           0        8.851544    1.899939    2.626326
     87          1           0        8.667483    5.249336    2.027318
     88          1           0        8.780951    4.274368    0.457124
     89          1           0        9.639451    3.776865    1.909322
     90          1           0        7.118800    1.605553    4.832981
     91          1           0        7.566274    3.188994    4.778716
     92          1           0        9.455423    2.985732    5.520211
     93          1           0        9.945532    1.679598    4.361100
     94          1           0        9.170678    1.220866    5.963740
     95          1           0        7.896958   -2.660873    3.932084
     96          1           0        6.994741   -4.229344    3.862327
     97          1           0        6.542418   -2.949849    4.898216
     98          1           0        2.401878   -4.063192    1.110778
     99          1           0        5.362089   -5.874950   -2.762262
    100          1           0        3.501421   -6.114240   -2.899998
    101          1           0        4.551809   -7.079037   -1.876337
    102          1           0       -4.470733   -3.616402   -1.836203
    103          1           0       -3.586959   -3.555124   -3.371408
    104          1           0       -3.550539   -1.321505   -3.339382
    105          1           0       -5.293726   -0.791947    0.402643
    106          1           0       -3.571717   -0.872790    0.577944
    107          1           0       -4.570719   -2.405476    0.211760
    108          1           0       -4.180882    0.787596   -2.598452
    109          1           0       -3.764620    1.024088   -0.980740
    110          1           0       -6.581511    0.421316   -0.963976
    111          1           0       -6.166863    1.298570   -2.468552
    112          1           0       -5.544138    3.217546   -1.270057
    113          1           0       -5.016636    2.271193    0.111781
    114          1           0       -8.017672    2.314194   -0.502023
    115          1           0       -8.314422    4.489929   -0.616998
    116          1           0       -6.649514    4.819313   -0.357894
    117          1           0       -7.659937    4.627844    1.080329
    118          1           0       -6.896619    2.803143    2.326549
    119          1           0       -6.735835    1.239304    1.585159
    120          1           0       -9.494733    2.601266    1.427404
    121          1           0       -8.890442    2.368624    3.014018
    122          1           0       -9.545936    0.097984    3.006771
    123          1           0       -8.428543   -0.137569    1.692515
    124          1           0      -11.039929    1.188104    0.894074
    125          1           0      -10.401984   -1.144084   -0.595325
    126          1           0       -8.913520   -0.257714   -0.247151
    127          1           0      -10.305319    0.568703   -0.975044
    128          1           0      -11.037238   -1.408015    2.427203
    129          1           0      -11.966256   -1.408902    0.928530
    130          1           0      -12.666267    0.744179    2.786728
    131          1           0      -13.026020   -0.853195    3.233161
    132          1           0      -14.648109   -1.108099    1.598270
    133          1           0      -13.587211   -0.298306    0.346552
    134          1           0      -14.139852    1.841380    1.543044
    135          1           0      -16.508900    0.188737    2.727924
    136          1           0      -16.319642    2.037169    2.719187
    137          1           0      -15.305029    1.070103    3.641192
    138          1           0      -16.738897    0.908310    0.364105
    139          1           0      -15.284163    0.836895   -0.719852
    140          1           0      -15.670774    2.276117   -0.101105
 ---------------------------------------------------------------------

 SCF Done:  E(RB-LYP) =  -3007.36408954     A.U. after   21 cycles

 Excitation energies and oscillator strengths:

 Excited State   1:      Singlet-A      1.7904 eV  692.49 nm  f=0.2988  <S**2>=0.000
     245 -> 248        0.18694
     246 -> 247        0.69190
     246 <- 247       -0.15710
 This state for optimization and/or second-order correction.
 Total Energy, E(TD-HF/TD-DFT) =  -3007.29829332
 Copying the excited state density for this state as the 1-particle RhoCI density.

 Excited State   2:      Singlet-A      1.8657 eV  664.55 nm  f=0.0004  <S**2>=0.000
     244 -> 247        0.69696
     245 -> 247        0.10570

 Excited State   3:      Singlet-A      2.0558 eV  603.11 nm  f=0.0561  <S**2>=0.000
     245 -> 247        0.62225
     246 -> 248       -0.28868

 Excited State   4:      Singlet-A      2.2473 eV  551.69 nm  f=0.0004  <S**2>=0.000
     243 -> 247        0.70073

 Excited State   5:      Singlet-A      2.3717 eV  522.76 nm  f=0.0006  <S**2>=0.000
     241 -> 247        0.70026

 The electronic state is 1-A.
 Alpha  occ. eigenvalues --  -46.27403 -18.82697 -18.80908 -18.77069 -18.76290
 Alpha  occ. eigenvalues --  -18.76259 -18.75171 -14.04187 -14.03999 -14.00920
 Alpha  occ. eigenvalues --  -14.00749 -10.03659 -10.03571 -10.00999  -9.99899
 Alpha  occ. eigenvalues --   -9.97628  -9.97543  -9.97160  -9.97013  -9.96983
 Alpha  occ. eigenvalues --   -9.96962  -9.95948  -9.95328  -9.95194  -9.94665
 Alpha  occ. eigenvalues --   -9.94466  -9.94414  -9.94238  -9.94175  -9.93942
 Alpha  occ. eigenvalues --   -9.93911  -9.93613  -9.93551  -9.93453  -9.93255
 Alpha  occ. eigenvalues --   -9.93194  -9.92947  -9.92918  -9.92843  -9.92772
 Alpha  occ. eigenvalues --   -9.92742  -9.92672  -9.92607  -9.92562  -9.92554
 Alpha  occ. eigenvalues --   -9.92273  -9.92176  -9.91926  -9.91779  -9.91628
 Alpha  occ. eigenvalues --   -9.91614  -9.91589  -9.91560  -9.91438  -9.91416
 Alpha  occ. eigenvalues --   -9.91384  -9.91267  -9.91236  -9.91167  -9.91140
 Alpha  occ. eigenvalues --   -9.90950  -9.90744  -9.90715  -9.90600  -9.90367
 Alpha  occ. eigenvalues --   -9.90269  -2.92081  -1.72509  -1.71961  -1.71792
 Alpha  occ. eigenvalues --   -0.98529  -0.96892  -0.93218  -0.90667  -0.89442
 Alpha  occ. eigenvalues --   -0.88527  -0.87578  -0.86380  -0.85799  -0.84407
 Alpha  occ. eigenvalues --   -0.75934  -0.73989  -0.73346  -0.72897  -0.72780
 Alpha  occ. eigenvalues --   -0.72159  -0.71763  -0.70762  -0.70601  -0.69975
 Alpha  occ. eigenvalues --   -0.69289  -0.69055  -0.68627  -0.68088  -0.67435
 Alpha  occ. eigenvalues --   -0.67074  -0.66600  -0.65689  -0.65218  -0.65056
 Alpha  occ. eigenvalues --   -0.64273  -0.62760  -0.62347  -0.61759  -0.61367
 Alpha  occ. eigenvalues --   -0.60252  -0.60009  -0.59901  -0.59313  -0.58711
 Alpha  occ. eigenvalues --   -0.57937  -0.57260  -0.56875  -0.55350  -0.55183
 Alpha  occ. eigenvalues --   -0.53776  -0.53430  -0.52702  -0.52336  -0.52145
 Alpha  occ. eigenvalues --   -0.51647  -0.51587  -0.50988  -0.50499  -0.49819
 Alpha  occ. eigenvalues --   -0.49639  -0.49359  -0.49018  -0.48627  -0.46739
 Alpha  occ. eigenvalues --   -0.46301  -0.46076  -0.45566  -0.45305  -0.44896
 Alpha  occ. eigenvalues --   -0.44609  -0.44244  -0.43519  -0.43303  -0.42535
 Alpha  occ. eigenvalues --   -0.42312  -0.41941  -0.41866  -0.41357  -0.41165
 Alpha  occ. eigenvalues --   -0.41002  -0.40719  -0.40488  -0.40411  -0.40384
 Alpha  occ. eigenvalues --   -0.39955  -0.39756  -0.39556  -0.39509  -0.39260
 Alpha  occ. eigenvalues --   -0.39002  -0.38820  -0.38615  -0.38258  -0.38132
 Alpha  occ. eigenvalues --   -0.37972  -0.37865  -0.37549  -0.37418  -0.37314
 Alpha  occ. eigenvalues --   -0.37268  -0.37091  -0.36872  -0.36796  -0.36744
 Alpha  occ. eigenvalues --   -0.36449  -0.36395  -0.35852  -0.35809  -0.35688
 Alpha  occ. eigenvalues --   -0.35177  -0.35086  -0.34749  -0.34705  -0.34623
 Alpha  occ. eigenvalues --   -0.34378  -0.34332  -0.34227  -0.34042  -0.34004
 Alpha  occ. eigenvalues --   -0.33757  -0.33630  -0.33409  -0.33265  -0.33015
 Alpha  occ. eigenvalues --   -0.32828  -0.32725  -0.32638  -0.32468  -0.32261
 Alpha  occ. eigenvalues --   -0.32133  -0.32064  -0.31778  -0.31741  -0.31351
 Alpha  occ. eigenvalues --   -0.31294  -0.31231  -0.30983  -0.30727  -0.30701
 Alpha  occ. eigenvalues --   -0.30278  -0.30159  -0.30094  -0.30018  -0.29864
 Alpha  occ. eigenvalues --   -0.29777  -0.29714  -0.29579  -0.29242  -0.28771
 Alpha  occ. eigenvalues --   -0.28500  -0.28309  -0.28187  -0.28056  -0.27590
 Alpha  occ. eigenvalues --   -0.27376  -0.27216  -0.27060  -0.26778  -0.26432
 Alpha  occ. eigenvalues --   -0.26357  -0.26325  -0.25826  -0.25362  -0.25262
 Alpha  occ. eigenvalues --   -0.25235  -0.24771  -0.24347  -0.24075  -0.23936
 Alpha  occ. eigenvalues --   -0.23546  -0.22313  -0.21508  -0.21422  -0.20761
 Alpha  occ. eigenvalues --   -0.20302  -0.20207  -0.19748  -0.18350  -0.17687
 Alpha  occ. eigenvalues --   -0.15733
 Alpha virt. eigenvalues --   -0.11588  -0.07247  -0.06482  -0.04864  -0.03922
 Alpha virt. eigenvalues --   -0.03369  -0.02665  -0.02168  -0.01501   0.00014
 Alpha virt. eigenvalues --    0.01080   0.01161   0.01958   0.02334   0.02771

 Mulliken charges:
               1
     1  Mg   0.703826
     2  C    0.005816
     3  C   -0.052659
     4  C   -0.076398
     5  C   -0.065877
     6  N   -0.207251
     7  C   -0.071376
     8  C    0.039442
     9  C   -0.023128
    10  C    0.070593
    11  C    0.102171
    12  C    0.109838
    13  C    0.127100
    14  C    0.078104
    15  O   -0.202241
    16  O   -0.278007
    17  N   -0.265282
    18  C    0.090508
    19  C   -0.133503
    20  C    0.035291
    21  C    0.074034
    22  C    0.192466
    23  C   -0.094956
    24  O   -0.186897
    25  C    0.174621
    26  N   -0.212640
    27  C    0.097213
    28  C   -0.041199
    29  C    0.077137
    30  C    0.020251
    31  C    0.124217
    32  C    0.064154
    33  C    0.095872
    34  N   -0.260990
    35  C    0.053800
    36  C   -0.149183
    37  C    0.054552
    38  C    0.053884
    39  C    0.172288
    40  C   -0.047736
    41  O   -0.093154
    42  C    0.135107
    43  C    0.096273
    44  O   -0.207352
    45  O   -0.257313
    46  C    0.230606
    47  C    0.354715
    48  C   -0.126151
    49  C   -0.155285
    50  C    0.168025
    51  C    0.124481
    52  C    0.043460
    53  C    0.086272
    54  C   -0.078480
    55  C    0.115763
    56  C    0.095467
    57  C    0.084276
    58  C    0.099773
    59  C   -0.086356
    60  C    0.124989
    61  C    0.105309
    62  C    0.047950
    63  C    0.103795
    64  C   -0.083273
    65  C    0.091255
    66  C    0.123748
    67  H   -0.053927
    68  H   -0.094877
    69  H   -0.070384
    70  H   -0.019490
    71  H   -0.002681
    72  H   -0.019530
    73  H   -0.021818
    74  H   -0.011300
    75  H   -0.011699
    76  H   -0.020393
    77  H   -0.015308
    78  H   -0.000079
    79  H   -0.019684
    80  H    0.008270
    81  H   -0.015505
    82  H    0.008984
    83  H    0.031379
    84  H   -0.005029
    85  H   -0.018506
    86  H   -0.024599
    87  H   -0.004992
    88  H    0.004427
    89  H   -0.015789
    90  H   -0.030653
    91  H   -0.043594
    92  H    0.004441
    93  H   -0.006904
    94  H    0.010396
    95  H   -0.005720
    96  H    0.007579
    97  H   -0.013313
    98  H    0.015766
    99  H    0.008583
   100  H    0.014833
   101  H    0.007280
   102  H   -0.005587
   103  H   -0.011239
   104  H   -0.033727
   105  H   -0.031957
   106  H    0.008275
   107  H    0.001209
   108  H   -0.048774
   109  H   -0.024842
   110  H   -0.001884
   111  H   -0.020652
   112  H   -0.029812
   113  H   -0.030024
   114  H   -0.028332
   115  H   -0.017350
   116  H   -0.022304
   117  H   -0.017269
   118  H   -0.035126
   119  H   -0.028453
   120  H   -0.022806
   121  H   -0.038845
   122  H   -0.036146
   123  H   -0.030786
   124  H   -0.035969
   125  H   -0.025145
   126  H   -0.014255
   127  H   -0.019380
   128  H   -0.039213
   129  H   -0.041885
   130  H   -0.037564
   131  H   -0.040796
   132  H   -0.027789
   133  H   -0.024919
   134  H   -0.038855
   135  H   -0.001762
   136  H   -0.013121
   137  H   -0.026481
   138  H   -0.009051
   139  H   -0.033985
   140  H   -0.031313
 Sum of Mulliken charges =  -0.00000

 Dipole moment (field-independent basis, Debye):
    X=              2.0919    Y=              3.6179    Z=              2.0957  Tot=              4.6752
 Quadrupole moment (field-independent basis, Debye-Ang):
   XX=           -348.6605   YY=           -448.1942   ZZ=           -404.2862
   XY=             16.0073   XZ=              9.5065   YZ=             27.5730

 Normal termination of Gaussian 16 at Sat Apr 30 07:14:39 2022.
