 Gaussian 16, Revision A.03,
 Gaussian 16:  ES64L-G16RevA.03 25-Dec-2016

 -----------------------------------
 #p cam-b3lyp/Def2SVP td=(nstates=5)
 -----------------------------------

 ------------------------------------------------------
 step_601_chromophore_5 TDDFT with cam-b3lyp functional
 ------------------------------------------------------
 Symbolic Z-matrix:
 Charge =  0 Multiplicity = 1

                         Standard orientation:
 ---------------------------------------------------------------------
 Center     Atomic      Atomic             Coordinates (Angstroms)
 Number     Number       Type             X           Y           Z
 ---------------------------------------------------------------------
      1         12           0        5.043450    0.570544   -0.127611
      2          6           0        3.701179   -2.726452    0.168994
      3          6           0        2.718281    1.306508   -2.531472
      4          6           0        6.044814    3.719954    0.007666
      5          6           0        6.971675   -0.185570    2.739261
      6          7           0        3.467709   -0.586872   -1.031517
      7          6           0        3.152417   -1.934070   -0.826555
      8          6           0        1.941830   -2.376415   -1.708155
      9          6           0        1.725998   -1.099856   -2.687078
     10          6           0        2.802171   -0.073303   -2.042932
     11          6           0        1.971242   -1.376735   -4.182912
     12          6           0        0.727747   -2.689668   -0.956272
     13          6           0       -0.016390   -3.972373   -1.380021
     14          6           0       -1.183138   -3.659339   -2.339255
     15          8           0       -1.140946   -3.272887   -3.498769
     16          8           0       -2.340960   -3.584593   -1.627536
     17          7           0        4.585760    2.308468   -1.312358
     18          6           0        3.576349    2.414847   -2.181266
     19          6           0        3.589093    3.750339   -2.694128
     20          6           0        4.588918    4.511271   -2.018072
     21          6           0        5.171139    3.523806   -1.084313
     22          6           0        2.792965    4.130585   -3.933642
     23          6           0        4.935476    5.965866   -2.270166
     24          8           0        4.111761    6.590685   -2.956649
     25          6           0        6.061518    6.627782   -1.623253
     26          7           0        6.228736    1.530395    1.214590
     27          6           0        6.473528    2.850547    1.004812
     28          6           0        7.476386    3.445005    2.054806
     29          6           0        7.849473    2.208636    2.924164
     30          6           0        6.921557    1.153108    2.289471
     31          6           0        8.741255    4.274365    1.546461
     32          6           0        7.939373    2.216388    4.457409
     33          6           0        9.281194    1.966114    5.175739
     34          7           0        5.277751   -1.031232    1.238981
     35          6           0        6.138401   -1.224774    2.349867
     36          6           0        6.002102   -2.573856    2.887055
     37          6           0        5.035280   -3.204631    2.090978
     38          6           0        4.626068   -2.221525    1.109397
     39          6           0        6.918955   -3.142568    3.893812
     40          6           0        4.372863   -4.518686    1.758316
     41          8           0        4.586052   -5.602920    2.241887
     42          6           0        3.368403   -4.177718    0.620095
     43          6           0        3.376532   -5.189416   -0.345407
     44          8           0        2.586166   -6.146219   -0.267099
     45          8           0        4.338715   -5.054840   -1.312506
     46          6           0        4.402864   -6.080475   -2.288283
     47          6           0       -3.605541   -3.189351   -2.344254
     48          6           0       -3.782886   -1.750126   -2.364378
     49          6           0       -4.338087   -0.934243   -1.407419
     50          6           0       -4.412530   -1.337145    0.063310
     51          6           0       -4.520001    0.532929   -1.594025
     52          6           0       -5.886143    1.119342   -1.430754
     53          6           0       -5.851202    2.442589   -0.567562
     54          6           0       -7.231491    2.749349    0.114855
     55          6           0       -7.491176    4.272024    0.064003
     56          6           0       -7.333151    2.151079    1.570798
     57          6           0       -8.815621    1.970389    2.001843
     58          6           0       -9.265490    0.477961    2.024612
     59          6           0      -10.550524    0.231008    1.075304
     60          6           0      -10.001467   -0.189336   -0.253520
     61          6           0      -11.526460   -0.768284    1.692487
     62          6           0      -12.835329   -0.241376    2.352205
     63          6           0      -14.027865   -0.249127    1.341487
     64          6           0      -14.882362    1.049012    1.452696
     65          6           0      -15.848015    1.054943    2.695865
     66          6           0      -15.709354    1.230094    0.203325
     67          1           0        1.982432    1.552423   -3.299916
     68          1           0        6.468844    4.725432   -0.011601
     69          1           0        7.499962   -0.562229    3.617841
     70          1           0        2.181048   -3.262850   -2.295455
     71          1           0        0.721610   -0.676626   -2.657387
     72          1           0        2.366310   -2.370390   -4.392186
     73          1           0        2.619454   -0.653872   -4.679648
     74          1           0        1.155654   -1.368789   -4.906337
     75          1           0        0.061191   -1.850212   -1.150591
     76          1           0        0.894491   -2.780769    0.117428
     77          1           0       -0.265707   -4.448452   -0.431805
     78          1           0        0.633188   -4.722317   -1.830085
     79          1           0        2.411888    3.286508   -4.506938
     80          1           0        3.300978    4.897323   -4.519373
     81          1           0        1.862336    4.598775   -3.615526
     82          1           0        6.920397    6.014666   -1.895877
     83          1           0        5.867467    6.556892   -0.553377
     84          1           0        6.206324    7.675077   -1.887480
     85          1           0        6.892140    4.235002    2.526835
     86          1           0        8.851544    1.899939    2.626326
     87          1           0        8.667483    5.249336    2.027318
     88          1           0        8.780951    4.274368    0.457124
     89          1           0        9.639451    3.776865    1.909322
     90          1           0        7.118800    1.605553    4.832981
     91          1           0        7.566274    3.188994    4.778716
     92          1           0        9.455423    2.985732    5.520211
     93          1           0        9.945532    1.679598    4.361100
     94          1           0        9.170678    1.220866    5.963740
     95          1           0        7.896958   -2.660873    3.932084
     96          1           0        6.994741   -4.229344    3.862327
     97          1           0        6.542418   -2.949849    4.898216
     98          1           0        2.401878   -4.063192    1.110778
     99          1           0        5.362089   -5.874950   -2.762262
    100          1           0        3.501421   -6.114240   -2.899998
    101          1           0        4.551809   -7.079037   -1.876337
    102          1           0       -4.470733   -3.616402   -1.836203
    103          1           0       -3.586959   -3.555124   -3.371408
    104          1           0       -3.550539   -1.321505   -3.339382
    105          1           0       -5.293726   -0.791947    0.402643
    106          1           0       -3.571717   -0.872790    0.577944
    107          1           0       -4.570719   -2.405476    0.211760
    108          1           0       -4.180882    0.787596   -2.598452
    109          1           0       -3.764620    1.024088   -0.980740
    110          1           0       -6.581511    0.421316   -0.963976
    111          1           0       -6.166863    1.298570   -2.468552
    112          1           0       -5.544138    3.217546   -1.270057
    113          1           0       -5.016636    2.271193    0.111781
    114          1           0       -8.017672    2.314194   -0.502023
    115          1           0       -8.314422    4.489929   -0.616998
    116          1           0       -6.649514    4.819313   -0.357894
    117          1           0       -7.659937    4.627844    1.080329
    118          1           0       -6.896619    2.803143    2.326549
    119          1           0       -6.735835    1.239304    1.585159
    120          1           0       -9.494733    2.601266    1.427404
    121          1           0       -8.890442    2.368624    3.014018
    122          1           0       -9.545936    0.097984    3.006771
    123          1           0       -8.428543   -0.137569    1.692515
    124          1           0      -11.039929    1.188104    0.894074
    125          1           0      -10.401984   -1.144084   -0.595325
    126          1           0       -8.913520   -0.257714   -0.247151
    127          1           0      -10.305319    0.568703   -0.975044
    128          1           0      -11.037238   -1.408015    2.427203
    129          1           0      -11.966256   -1.408902    0.928530
    130          1           0      -12.666267    0.744179    2.786728
    131          1           0      -13.026020   -0.853195    3.233161
    132          1           0      -14.648109   -1.108099    1.598270
    133          1           0      -13.587211   -0.298306    0.346552
    134          1           0      -14.139852    1.841380    1.543044
    135          1           0      -16.508900    0.188737    2.727924
    136          1           0      -16.319642    2.037169    2.719187
    137          1           0      -15.305029    1.070103    3.641192
    138          1           0      -16.738897    0.908310    0.364105
    139          1           0      -15.284163    0.836895   -0.719852
    140          1           0      -15.670774    2.276117   -0.101105
 ---------------------------------------------------------------------

 SCF Done:  E(RCAM-B3LYP) =  -3007.15725181     A.U. after   19 cycles

 Excitation energies and oscillator strengths:

 Excited State   1:      Singlet-A      1.6909 eV  733.23 nm  f=0.3827  <S**2>=0.000
     245 -> 248        0.17413
     246 -> 247        0.68687
     245 <- 248        0.10626
 This state for optimization and/or second-order correction.
 Total Energy, E(TD-HF/TD-DFT) =  -3007.09511126
 Copying the excited state density for this state as the 1-particle RhoCI density.

 Excited State   2:      Singlet-A      2.2769 eV  544.52 nm  f=0.0597  <S**2>=0.000
     245 -> 247        0.60513
     246 -> 248       -0.35236

 Excited State   3:      Singlet-A      3.2667 eV  379.54 nm  f=0.0733  <S**2>=0.000
     244 -> 247        0.61065
     245 -> 247        0.12007
     246 -> 248        0.28565

 Excited State   4:      Singlet-A      3.4455 eV  359.85 nm  f=0.4861  <S**2>=0.000
     242 -> 247       -0.30062
     244 -> 247       -0.30459
     245 -> 247        0.27262
     246 -> 248        0.47846

 Excited State   5:      Singlet-A      3.5706 eV  347.23 nm  f=0.1958  <S**2>=0.000
     240 -> 247        0.12774
     241 -> 247       -0.26632
     241 -> 248        0.10428
     241 -> 249        0.16831
     241 -> 250       -0.15614
     242 -> 247        0.48188
     245 -> 247        0.15614
     246 -> 248        0.18744

 The electronic state is 1-A.
 Alpha  occ. eigenvalues --  -46.88940 -19.25743 -19.23769 -19.20263 -19.19539
 Alpha  occ. eigenvalues --  -19.19223 -19.18512 -14.43058 -14.42884 -14.39441
 Alpha  occ. eigenvalues --  -14.39142 -10.39159 -10.38966 -10.36347 -10.35168
 Alpha  occ. eigenvalues --  -10.32242 -10.31593 -10.31563 -10.31425 -10.31335
 Alpha  occ. eigenvalues --  -10.31198 -10.30588 -10.29804 -10.29227 -10.28890
 Alpha  occ. eigenvalues --  -10.28801 -10.28425 -10.28317 -10.28223 -10.28215
 Alpha  occ. eigenvalues --  -10.28198 -10.28118 -10.27805 -10.27582 -10.27445
 Alpha  occ. eigenvalues --  -10.27210 -10.27126 -10.26976 -10.26944 -10.26918
 Alpha  occ. eigenvalues --  -10.26594 -10.26442 -10.26416 -10.26367 -10.26141
 Alpha  occ. eigenvalues --  -10.26028 -10.25839 -10.25836 -10.25622 -10.25316
 Alpha  occ. eigenvalues --  -10.25310 -10.25274 -10.25257 -10.25255 -10.25110
 Alpha  occ. eigenvalues --  -10.25092 -10.25089 -10.24973 -10.24881 -10.24743
 Alpha  occ. eigenvalues --  -10.24617 -10.24383 -10.24321 -10.24252 -10.23917
 Alpha  occ. eigenvalues --  -10.23827  -3.17523  -1.92428  -1.91993  -1.91815
 Alpha  occ. eigenvalues --   -1.17142  -1.15358  -1.11652  -1.09154  -1.07558
 Alpha  occ. eigenvalues --   -1.06333  -1.05293  -1.04103  -1.03482  -1.01810
 Alpha  occ. eigenvalues --   -0.93085  -0.90898  -0.90183  -0.89570  -0.89539
 Alpha  occ. eigenvalues --   -0.88910  -0.88447  -0.87327  -0.87075  -0.86507
 Alpha  occ. eigenvalues --   -0.86035  -0.85391  -0.84965  -0.84321  -0.83692
 Alpha  occ. eigenvalues --   -0.83318  -0.82692  -0.81605  -0.81080  -0.80943
 Alpha  occ. eigenvalues --   -0.80052  -0.78306  -0.77964  -0.77276  -0.76974
 Alpha  occ. eigenvalues --   -0.75611  -0.75327  -0.75209  -0.74599  -0.73923
 Alpha  occ. eigenvalues --   -0.72935  -0.72222  -0.71783  -0.70055  -0.69886
 Alpha  occ. eigenvalues --   -0.68423  -0.67963  -0.67273  -0.66693  -0.66215
 Alpha  occ. eigenvalues --   -0.65849  -0.65789  -0.65012  -0.64561  -0.63763
 Alpha  occ. eigenvalues --   -0.63451  -0.63227  -0.62929  -0.62525  -0.60443
 Alpha  occ. eigenvalues --   -0.59948  -0.59628  -0.59029  -0.58749  -0.58297
 Alpha  occ. eigenvalues --   -0.58102  -0.57623  -0.56893  -0.56525  -0.55543
 Alpha  occ. eigenvalues --   -0.55402  -0.54907  -0.54699  -0.54203  -0.53987
 Alpha  occ. eigenvalues --   -0.53828  -0.53662  -0.53374  -0.53252  -0.53185
 Alpha  occ. eigenvalues --   -0.52987  -0.52657  -0.52320  -0.52017  -0.51834
 Alpha  occ. eigenvalues --   -0.51633  -0.51420  -0.51360  -0.50785  -0.50454
 Alpha  occ. eigenvalues --   -0.50406  -0.50282  -0.50055  -0.49916  -0.49805
 Alpha  occ. eigenvalues --   -0.49702  -0.49425  -0.49247  -0.49080  -0.48867
 Alpha  occ. eigenvalues --   -0.48723  -0.48573  -0.48124  -0.48031  -0.47700
 Alpha  occ. eigenvalues --   -0.47231  -0.47170  -0.46908  -0.46682  -0.46563
 Alpha  occ. eigenvalues --   -0.46332  -0.46133  -0.46040  -0.45995  -0.45771
 Alpha  occ. eigenvalues --   -0.45631  -0.45457  -0.45085  -0.45010  -0.44762
 Alpha  occ. eigenvalues --   -0.44667  -0.44527  -0.44309  -0.44031  -0.43969
 Alpha  occ. eigenvalues --   -0.43844  -0.43676  -0.43388  -0.43300  -0.42970
 Alpha  occ. eigenvalues --   -0.42758  -0.42688  -0.42424  -0.42347  -0.42046
 Alpha  occ. eigenvalues --   -0.41867  -0.41619  -0.41525  -0.41366  -0.41179
 Alpha  occ. eigenvalues --   -0.40983  -0.40729  -0.40697  -0.40409  -0.39941
 Alpha  occ. eigenvalues --   -0.39771  -0.39415  -0.39276  -0.39158  -0.38463
 Alpha  occ. eigenvalues --   -0.38296  -0.38227  -0.37915  -0.37743  -0.37551
 Alpha  occ. eigenvalues --   -0.37063  -0.36859  -0.36800  -0.36609  -0.36165
 Alpha  occ. eigenvalues --   -0.35896  -0.35509  -0.35231  -0.34471  -0.34329
 Alpha  occ. eigenvalues --   -0.34166  -0.33528  -0.33464  -0.31726  -0.31383
 Alpha  occ. eigenvalues --   -0.31162  -0.29933  -0.29868  -0.29424  -0.24620
 Alpha  occ. eigenvalues --   -0.20864
 Alpha virt. eigenvalues --   -0.08618  -0.02169   0.00097   0.02026   0.02628
 Alpha virt. eigenvalues --    0.03286   0.04095   0.05003   0.05793   0.06636
 Alpha virt. eigenvalues --    0.07861   0.08139   0.08445   0.08583   0.08948

 Mulliken charges:
               1
     1  Mg   0.837457
     2  C   -0.020363
     3  C   -0.062997
     4  C   -0.094943
     5  C   -0.067420
     6  N   -0.282089
     7  C   -0.024258
     8  C   -0.005522
     9  C   -0.072632
    10  C    0.089949
    11  C    0.044265
    12  C    0.050035
    13  C    0.058812
    14  C    0.159026
    15  O   -0.244750
    16  O   -0.342323
    17  N   -0.353957
    18  C    0.096432
    19  C   -0.132628
    20  C   -0.029908
    21  C    0.107139
    22  C    0.130991
    23  C   -0.015875
    24  O   -0.225829
    25  C    0.085042
    26  N   -0.290418
    27  C    0.114711
    28  C   -0.089372
    29  C    0.021549
    30  C    0.037814
    31  C    0.065308
    32  C    0.002605
    33  C    0.034852
    34  N   -0.344222
    35  C    0.055434
    36  C   -0.144874
    37  C   -0.020119
    38  C    0.087938
    39  C    0.110582
    40  C    0.058355
    41  O   -0.131740
    42  C    0.046335
    43  C    0.182360
    44  O   -0.242617
    45  O   -0.316861
    46  C    0.186610
    47  C    0.309946
    48  C   -0.143605
    49  C   -0.170484
    50  C    0.112188
    51  C    0.060137
    52  C   -0.005902
    53  C    0.035899
    54  C   -0.132685
    55  C    0.055759
    56  C    0.044083
    57  C    0.027613
    58  C    0.051458
    59  C   -0.141821
    60  C    0.069906
    61  C    0.048871
    62  C   -0.000396
    63  C    0.047076
    64  C   -0.142058
    65  C    0.031819
    66  C    0.059137
    67  H   -0.019014
    68  H   -0.059664
    69  H   -0.036354
    70  H    0.012144
    71  H    0.030343
    72  H    0.005839
    73  H    0.004216
    74  H    0.015976
    75  H    0.019417
    76  H    0.011350
    77  H    0.022771
    78  H    0.029011
    79  H    0.006716
    80  H    0.037440
    81  H    0.014294
    82  H    0.036201
    83  H    0.056685
    84  H    0.032550
    85  H    0.015138
    86  H    0.008863
    87  H    0.019267
    88  H    0.027537
    89  H    0.009403
    90  H    0.001742
    91  H   -0.013204
    92  H    0.026611
    93  H    0.014475
    94  H    0.033347
    95  H    0.018947
    96  H    0.035726
    97  H    0.014263
    98  H    0.057028
    99  H    0.033863
   100  H    0.035914
   101  H    0.032285
   102  H    0.024193
   103  H    0.023859
   104  H   -0.001110
   105  H   -0.012911
   106  H    0.033167
   107  H    0.025849
   108  H   -0.015251
   109  H    0.004975
   110  H    0.017142
   111  H    0.008015
   112  H   -0.000584
   113  H   -0.002726
   114  H    0.001748
   115  H    0.006862
   116  H    0.003015
   117  H    0.006233
   118  H   -0.005283
   119  H   -0.003437
   120  H    0.003437
   121  H   -0.007659
   122  H   -0.006808
   123  H   -0.004918
   124  H   -0.006024
   125  H    0.001468
   126  H    0.003748
   127  H    0.004064
   128  H   -0.009489
   129  H   -0.012919
   130  H   -0.011069
   131  H   -0.010551
   132  H    0.000043
   133  H    0.001522
   134  H   -0.007884
   135  H    0.020485
   136  H    0.011749
   137  H   -0.001729
   138  H    0.015187
   139  H   -0.007011
   140  H   -0.005349
 Sum of Mulliken charges =  -0.00000

 Dipole moment (field-independent basis, Debye):
    X=              2.1725    Y=              3.9906    Z=              1.7774  Tot=              4.8789
 Quadrupole moment (field-independent basis, Debye-Ang):
   XX=           -347.7228   YY=           -445.1475   ZZ=           -402.9437
   XY=             19.4579   XZ=              8.9085   YZ=             28.0890

 Normal termination of Gaussian 16 at Sat Apr 30 06:12:11 2022.
