 Gaussian 16, Revision A.03,
 Gaussian 16:  ES64L-G16RevA.03 25-Dec-2016

 ---------------------------------
 #p PBE1PBE/Def2SVP td=(nstates=5)
 ---------------------------------

 ----------------------------------------------------
 step_601_chromophore_5 TDDFT with PBE1PBE functional
 ----------------------------------------------------
 Symbolic Z-matrix:
 Charge =  0 Multiplicity = 1

                         Standard orientation:
 ---------------------------------------------------------------------
 Center     Atomic      Atomic             Coordinates (Angstroms)
 Number     Number       Type             X           Y           Z
 ---------------------------------------------------------------------
      1         12           0        5.043450    0.570544   -0.127611
      2          6           0        3.701179   -2.726452    0.168994
      3          6           0        2.718281    1.306508   -2.531472
      4          6           0        6.044814    3.719954    0.007666
      5          6           0        6.971675   -0.185570    2.739261
      6          7           0        3.467709   -0.586872   -1.031517
      7          6           0        3.152417   -1.934070   -0.826555
      8          6           0        1.941830   -2.376415   -1.708155
      9          6           0        1.725998   -1.099856   -2.687078
     10          6           0        2.802171   -0.073303   -2.042932
     11          6           0        1.971242   -1.376735   -4.182912
     12          6           0        0.727747   -2.689668   -0.956272
     13          6           0       -0.016390   -3.972373   -1.380021
     14          6           0       -1.183138   -3.659339   -2.339255
     15          8           0       -1.140946   -3.272887   -3.498769
     16          8           0       -2.340960   -3.584593   -1.627536
     17          7           0        4.585760    2.308468   -1.312358
     18          6           0        3.576349    2.414847   -2.181266
     19          6           0        3.589093    3.750339   -2.694128
     20          6           0        4.588918    4.511271   -2.018072
     21          6           0        5.171139    3.523806   -1.084313
     22          6           0        2.792965    4.130585   -3.933642
     23          6           0        4.935476    5.965866   -2.270166
     24          8           0        4.111761    6.590685   -2.956649
     25          6           0        6.061518    6.627782   -1.623253
     26          7           0        6.228736    1.530395    1.214590
     27          6           0        6.473528    2.850547    1.004812
     28          6           0        7.476386    3.445005    2.054806
     29          6           0        7.849473    2.208636    2.924164
     30          6           0        6.921557    1.153108    2.289471
     31          6           0        8.741255    4.274365    1.546461
     32          6           0        7.939373    2.216388    4.457409
     33          6           0        9.281194    1.966114    5.175739
     34          7           0        5.277751   -1.031232    1.238981
     35          6           0        6.138401   -1.224774    2.349867
     36          6           0        6.002102   -2.573856    2.887055
     37          6           0        5.035280   -3.204631    2.090978
     38          6           0        4.626068   -2.221525    1.109397
     39          6           0        6.918955   -3.142568    3.893812
     40          6           0        4.372863   -4.518686    1.758316
     41          8           0        4.586052   -5.602920    2.241887
     42          6           0        3.368403   -4.177718    0.620095
     43          6           0        3.376532   -5.189416   -0.345407
     44          8           0        2.586166   -6.146219   -0.267099
     45          8           0        4.338715   -5.054840   -1.312506
     46          6           0        4.402864   -6.080475   -2.288283
     47          6           0       -3.605541   -3.189351   -2.344254
     48          6           0       -3.782886   -1.750126   -2.364378
     49          6           0       -4.338087   -0.934243   -1.407419
     50          6           0       -4.412530   -1.337145    0.063310
     51          6           0       -4.520001    0.532929   -1.594025
     52          6           0       -5.886143    1.119342   -1.430754
     53          6           0       -5.851202    2.442589   -0.567562
     54          6           0       -7.231491    2.749349    0.114855
     55          6           0       -7.491176    4.272024    0.064003
     56          6           0       -7.333151    2.151079    1.570798
     57          6           0       -8.815621    1.970389    2.001843
     58          6           0       -9.265490    0.477961    2.024612
     59          6           0      -10.550524    0.231008    1.075304
     60          6           0      -10.001467   -0.189336   -0.253520
     61          6           0      -11.526460   -0.768284    1.692487
     62          6           0      -12.835329   -0.241376    2.352205
     63          6           0      -14.027865   -0.249127    1.341487
     64          6           0      -14.882362    1.049012    1.452696
     65          6           0      -15.848015    1.054943    2.695865
     66          6           0      -15.709354    1.230094    0.203325
     67          1           0        1.982432    1.552423   -3.299916
     68          1           0        6.468844    4.725432   -0.011601
     69          1           0        7.499962   -0.562229    3.617841
     70          1           0        2.181048   -3.262850   -2.295455
     71          1           0        0.721610   -0.676626   -2.657387
     72          1           0        2.366310   -2.370390   -4.392186
     73          1           0        2.619454   -0.653872   -4.679648
     74          1           0        1.155654   -1.368789   -4.906337
     75          1           0        0.061191   -1.850212   -1.150591
     76          1           0        0.894491   -2.780769    0.117428
     77          1           0       -0.265707   -4.448452   -0.431805
     78          1           0        0.633188   -4.722317   -1.830085
     79          1           0        2.411888    3.286508   -4.506938
     80          1           0        3.300978    4.897323   -4.519373
     81          1           0        1.862336    4.598775   -3.615526
     82          1           0        6.920397    6.014666   -1.895877
     83          1           0        5.867467    6.556892   -0.553377
     84          1           0        6.206324    7.675077   -1.887480
     85          1           0        6.892140    4.235002    2.526835
     86          1           0        8.851544    1.899939    2.626326
     87          1           0        8.667483    5.249336    2.027318
     88          1           0        8.780951    4.274368    0.457124
     89          1           0        9.639451    3.776865    1.909322
     90          1           0        7.118800    1.605553    4.832981
     91          1           0        7.566274    3.188994    4.778716
     92          1           0        9.455423    2.985732    5.520211
     93          1           0        9.945532    1.679598    4.361100
     94          1           0        9.170678    1.220866    5.963740
     95          1           0        7.896958   -2.660873    3.932084
     96          1           0        6.994741   -4.229344    3.862327
     97          1           0        6.542418   -2.949849    4.898216
     98          1           0        2.401878   -4.063192    1.110778
     99          1           0        5.362089   -5.874950   -2.762262
    100          1           0        3.501421   -6.114240   -2.899998
    101          1           0        4.551809   -7.079037   -1.876337
    102          1           0       -4.470733   -3.616402   -1.836203
    103          1           0       -3.586959   -3.555124   -3.371408
    104          1           0       -3.550539   -1.321505   -3.339382
    105          1           0       -5.293726   -0.791947    0.402643
    106          1           0       -3.571717   -0.872790    0.577944
    107          1           0       -4.570719   -2.405476    0.211760
    108          1           0       -4.180882    0.787596   -2.598452
    109          1           0       -3.764620    1.024088   -0.980740
    110          1           0       -6.581511    0.421316   -0.963976
    111          1           0       -6.166863    1.298570   -2.468552
    112          1           0       -5.544138    3.217546   -1.270057
    113          1           0       -5.016636    2.271193    0.111781
    114          1           0       -8.017672    2.314194   -0.502023
    115          1           0       -8.314422    4.489929   -0.616998
    116          1           0       -6.649514    4.819313   -0.357894
    117          1           0       -7.659937    4.627844    1.080329
    118          1           0       -6.896619    2.803143    2.326549
    119          1           0       -6.735835    1.239304    1.585159
    120          1           0       -9.494733    2.601266    1.427404
    121          1           0       -8.890442    2.368624    3.014018
    122          1           0       -9.545936    0.097984    3.006771
    123          1           0       -8.428543   -0.137569    1.692515
    124          1           0      -11.039929    1.188104    0.894074
    125          1           0      -10.401984   -1.144084   -0.595325
    126          1           0       -8.913520   -0.257714   -0.247151
    127          1           0      -10.305319    0.568703   -0.975044
    128          1           0      -11.037238   -1.408015    2.427203
    129          1           0      -11.966256   -1.408902    0.928530
    130          1           0      -12.666267    0.744179    2.786728
    131          1           0      -13.026020   -0.853195    3.233161
    132          1           0      -14.648109   -1.108099    1.598270
    133          1           0      -13.587211   -0.298306    0.346552
    134          1           0      -14.139852    1.841380    1.543044
    135          1           0      -16.508900    0.188737    2.727924
    136          1           0      -16.319642    2.037169    2.719187
    137          1           0      -15.305029    1.070103    3.641192
    138          1           0      -16.738897    0.908310    0.364105
    139          1           0      -15.284163    0.836895   -0.719852
    140          1           0      -15.670774    2.276117   -0.101105
 ---------------------------------------------------------------------

 SCF Done:  E(RPBE1PBE) =  -3005.34644559     A.U. after   15 cycles

 Excitation energies and oscillator strengths:

 Excited State   1:      Singlet-A      1.8411 eV  673.43 nm  f=0.3682  <S**2>=0.000
     245 -> 248        0.16840
     246 -> 247        0.69465
     246 <- 247       -0.11459
 This state for optimization and/or second-order correction.
 Total Energy, E(TD-HF/TD-DFT) =  -3005.27878735
 Copying the excited state density for this state as the 1-particle RhoCI density.

 Excited State   2:      Singlet-A      2.2838 eV  542.90 nm  f=0.0665  <S**2>=0.000
     245 -> 247        0.62363
     246 -> 248       -0.31887

 Excited State   3:      Singlet-A      2.9097 eV  426.11 nm  f=0.0004  <S**2>=0.000
     244 -> 247        0.67909
     246 -> 248        0.13266

 Excited State   4:      Singlet-A      3.1317 eV  395.90 nm  f=0.0001  <S**2>=0.000
     241 -> 247       -0.28813
     242 -> 247        0.61276

 Excited State   5:      Singlet-A      3.1860 eV  389.15 nm  f=0.1130  <S**2>=0.000
     241 -> 247        0.48884
     242 -> 247        0.22773
     245 -> 247       -0.14958
     246 -> 248       -0.38840

 The electronic state is 1-A.
 Alpha  occ. eigenvalues --  -46.92345 -19.26320 -19.24450 -19.20534 -19.19770
 Alpha  occ. eigenvalues --  -19.19483 -19.18658 -14.42569 -14.42384 -14.39015
 Alpha  occ. eigenvalues --  -14.38891 -10.36101 -10.35986 -10.33566 -10.32226
 Alpha  occ. eigenvalues --  -10.29899 -10.29271 -10.29269 -10.29080 -10.28747
 Alpha  occ. eigenvalues --  -10.28672 -10.28135 -10.27326 -10.27137 -10.26710
 Alpha  occ. eigenvalues --  -10.26435 -10.26265 -10.26132 -10.26053 -10.26027
 Alpha  occ. eigenvalues --  -10.26007 -10.25732 -10.25494 -10.25391 -10.25109
 Alpha  occ. eigenvalues --  -10.24823 -10.24735 -10.24479 -10.24421 -10.24263
 Alpha  occ. eigenvalues --  -10.24181 -10.24093 -10.24051 -10.23846 -10.23741
 Alpha  occ. eigenvalues --  -10.23724 -10.23664 -10.23278 -10.23226 -10.22946
 Alpha  occ. eigenvalues --  -10.22906 -10.22896 -10.22842 -10.22658 -10.22646
 Alpha  occ. eigenvalues --  -10.22639 -10.22631 -10.22575 -10.22324 -10.22166
 Alpha  occ. eigenvalues --  -10.22133 -10.21922 -10.21820 -10.21712 -10.21288
 Alpha  occ. eigenvalues --  -10.21195  -3.14506  -1.87352  -1.86896  -1.86721
 Alpha  occ. eigenvalues --   -1.11881  -1.10141  -1.06467  -1.03792  -1.02344
 Alpha  occ. eigenvalues --   -1.01183  -0.99938  -0.98698  -0.98096  -0.96563
 Alpha  occ. eigenvalues --   -0.87443  -0.85039  -0.84410  -0.83849  -0.83647
 Alpha  occ. eigenvalues --   -0.83211  -0.82538  -0.81491  -0.81439  -0.80812
 Alpha  occ. eigenvalues --   -0.80234  -0.79586  -0.79257  -0.78587  -0.77882
 Alpha  occ. eigenvalues --   -0.77535  -0.76862  -0.75914  -0.75342  -0.75273
 Alpha  occ. eigenvalues --   -0.74228  -0.72647  -0.72269  -0.71581  -0.71250
 Alpha  occ. eigenvalues --   -0.69775  -0.69553  -0.69399  -0.68720  -0.68100
 Alpha  occ. eigenvalues --   -0.67386  -0.66546  -0.66258  -0.64383  -0.64263
 Alpha  occ. eigenvalues --   -0.62911  -0.62205  -0.61698  -0.60947  -0.60623
 Alpha  occ. eigenvalues --   -0.60197  -0.60018  -0.59523  -0.59110  -0.58001
 Alpha  occ. eigenvalues --   -0.57979  -0.57565  -0.57116  -0.56747  -0.54966
 Alpha  occ. eigenvalues --   -0.54463  -0.54205  -0.53569  -0.53214  -0.52898
 Alpha  occ. eigenvalues --   -0.52548  -0.52031  -0.51425  -0.51068  -0.50137
 Alpha  occ. eigenvalues --   -0.49869  -0.49414  -0.49028  -0.48778  -0.48660
 Alpha  occ. eigenvalues --   -0.48429  -0.48249  -0.47904  -0.47763  -0.47503
 Alpha  occ. eigenvalues --   -0.47462  -0.47195  -0.46853  -0.46508  -0.46357
 Alpha  occ. eigenvalues --   -0.46287  -0.45986  -0.45919  -0.45458  -0.45021
 Alpha  occ. eigenvalues --   -0.44953  -0.44815  -0.44567  -0.44480  -0.44345
 Alpha  occ. eigenvalues --   -0.44275  -0.44065  -0.43841  -0.43661  -0.43439
 Alpha  occ. eigenvalues --   -0.43333  -0.43229  -0.42747  -0.42684  -0.42311
 Alpha  occ. eigenvalues --   -0.41976  -0.41878  -0.41519  -0.41339  -0.41168
 Alpha  occ. eigenvalues --   -0.41062  -0.40913  -0.40730  -0.40678  -0.40461
 Alpha  occ. eigenvalues --   -0.40274  -0.40204  -0.39818  -0.39671  -0.39535
 Alpha  occ. eigenvalues --   -0.39339  -0.39247  -0.38954  -0.38830  -0.38732
 Alpha  occ. eigenvalues --   -0.38624  -0.38500  -0.38142  -0.38038  -0.37801
 Alpha  occ. eigenvalues --   -0.37631  -0.37516  -0.37332  -0.37086  -0.36789
 Alpha  occ. eigenvalues --   -0.36720  -0.36398  -0.36327  -0.36153  -0.35974
 Alpha  occ. eigenvalues --   -0.35728  -0.35634  -0.35479  -0.35337  -0.34743
 Alpha  occ. eigenvalues --   -0.34521  -0.34293  -0.34139  -0.34010  -0.33252
 Alpha  occ. eigenvalues --   -0.33217  -0.33078  -0.32748  -0.32674  -0.32331
 Alpha  occ. eigenvalues --   -0.31953  -0.31907  -0.31714  -0.31510  -0.31246
 Alpha  occ. eigenvalues --   -0.30798  -0.30451  -0.30143  -0.29625  -0.29271
 Alpha  occ. eigenvalues --   -0.29220  -0.28799  -0.28335  -0.27180  -0.26535
 Alpha  occ. eigenvalues --   -0.26000  -0.25583  -0.25242  -0.24827  -0.21475
 Alpha  occ. eigenvalues --   -0.18582
 Alpha virt. eigenvalues --   -0.11138  -0.05636  -0.04160  -0.02290  -0.01056
 Alpha virt. eigenvalues --   -0.00507  -0.00183   0.00773   0.01436   0.02952
 Alpha virt. eigenvalues --    0.03791   0.04233   0.04752   0.05163   0.05732

 Mulliken charges:
               1
     1  Mg   0.986014
     2  C   -0.029993
     3  C   -0.048464
     4  C   -0.089088
     5  C   -0.060373
     6  N   -0.391787
     7  C    0.049151
     8  C   -0.067434
     9  C   -0.148572
    10  C    0.124177
    11  C   -0.005684
    12  C   -0.003161
    13  C   -0.014118
    14  C    0.225086
    15  O   -0.277831
    16  O   -0.369881
    17  N   -0.469350
    18  C    0.121891
    19  C   -0.161193
    20  C   -0.074961
    21  C    0.142724
    22  C    0.071821
    23  C    0.030992
    24  O   -0.260420
    25  C    0.009258
    26  N   -0.406392
    27  C    0.138767
    28  C   -0.152578
    29  C   -0.055331
    30  C    0.075188
    31  C    0.003310
    32  C   -0.055927
    33  C   -0.041300
    34  N   -0.461818
    35  C    0.077606
    36  C   -0.168417
    37  C   -0.059574
    38  C    0.133040
    39  C    0.056932
    40  C    0.156883
    41  O   -0.177962
    42  C   -0.071263
    43  C    0.275422
    44  O   -0.279166
    45  O   -0.350484
    46  C    0.130949
    47  C    0.253880
    48  C   -0.149979
    49  C   -0.207119
    50  C    0.044014
    51  C   -0.001072
    52  C   -0.076937
    53  C   -0.017584
    54  C   -0.222500
    55  C   -0.001575
    56  C   -0.015536
    57  C   -0.032414
    58  C   -0.003619
    59  C   -0.227174
    60  C    0.009467
    61  C   -0.010612
    62  C   -0.054105
    63  C   -0.011856
    64  C   -0.238271
    65  C   -0.029444
    66  C    0.000120
    67  H    0.012350
    68  H   -0.023896
    69  H   -0.003211
    70  H    0.051123
    71  H    0.063666
    72  H    0.032357
    73  H    0.031344
    74  H    0.042369
    75  H    0.053236
    76  H    0.044978
    77  H    0.054282
    78  H    0.061097
    79  H    0.032823
    80  H    0.064505
    81  H    0.043457
    82  H    0.063709
    83  H    0.081680
    84  H    0.059923
    85  H    0.052932
    86  H    0.048891
    87  H    0.046310
    88  H    0.054527
    89  H    0.037178
    90  H    0.034939
    91  H    0.021757
    92  H    0.053991
    93  H    0.042043
    94  H    0.060116
    95  H    0.045220
    96  H    0.063826
    97  H    0.044080
    98  H    0.095769
    99  H    0.055896
   100  H    0.057389
   101  H    0.054419
   102  H    0.051281
   103  H    0.050920
   104  H    0.028284
   105  H    0.019719
   106  H    0.061274
   107  H    0.052711
   108  H    0.017771
   109  H    0.037069
   110  H    0.056672
   111  H    0.041347
   112  H    0.032373
   113  H    0.029282
   114  H    0.043105
   115  H    0.033829
   116  H    0.030155
   117  H    0.033505
   118  H    0.027136
   119  H    0.032134
   120  H    0.034262
   121  H    0.025900
   122  H    0.025861
   123  H    0.026481
   124  H    0.031706
   125  H    0.028790
   126  H    0.035648
   127  H    0.030589
   128  H    0.022549
   129  H    0.020809
   130  H    0.020706
   131  H    0.022218
   132  H    0.033021
   133  H    0.034270
   134  H    0.029935
   135  H    0.046855
   136  H    0.040311
   137  H    0.026688
   138  H    0.042233
   139  H    0.020196
   140  H    0.022954
 Sum of Mulliken charges =  -0.00000

 Dipole moment (field-independent basis, Debye):
    X=              2.2788    Y=              3.9282    Z=              1.9814  Tot=              4.9548
 Quadrupole moment (field-independent basis, Debye-Ang):
   XX=           -342.9372   YY=           -442.8860   ZZ=           -398.9448
   XY=             18.8095   XZ=             10.9914   YZ=             28.2888

 Normal termination of Gaussian 16 at Sat Apr 30 06:31:54 2022.
