 Gaussian 16, Revision A.03,
 Gaussian 16:  ES64L-G16RevA.03 25-Dec-2016

 --------------------------------
 #p wB97XD/Def2SVP td=(nstates=5)
 --------------------------------

 ---------------------------------------------------
 step_601_chromophore_5 TDDFT with wB97XD functional
 ---------------------------------------------------
 Symbolic Z-matrix:
 Charge =  0 Multiplicity = 1

                         Standard orientation:
 ---------------------------------------------------------------------
 Center     Atomic      Atomic             Coordinates (Angstroms)
 Number     Number       Type             X           Y           Z
 ---------------------------------------------------------------------
      1         12           0        5.043450    0.570544   -0.127611
      2          6           0        3.701179   -2.726452    0.168994
      3          6           0        2.718281    1.306508   -2.531472
      4          6           0        6.044814    3.719954    0.007666
      5          6           0        6.971675   -0.185570    2.739261
      6          7           0        3.467709   -0.586872   -1.031517
      7          6           0        3.152417   -1.934070   -0.826555
      8          6           0        1.941830   -2.376415   -1.708155
      9          6           0        1.725998   -1.099856   -2.687078
     10          6           0        2.802171   -0.073303   -2.042932
     11          6           0        1.971242   -1.376735   -4.182912
     12          6           0        0.727747   -2.689668   -0.956272
     13          6           0       -0.016390   -3.972373   -1.380021
     14          6           0       -1.183138   -3.659339   -2.339255
     15          8           0       -1.140946   -3.272887   -3.498769
     16          8           0       -2.340960   -3.584593   -1.627536
     17          7           0        4.585760    2.308468   -1.312358
     18          6           0        3.576349    2.414847   -2.181266
     19          6           0        3.589093    3.750339   -2.694128
     20          6           0        4.588918    4.511271   -2.018072
     21          6           0        5.171139    3.523806   -1.084313
     22          6           0        2.792965    4.130585   -3.933642
     23          6           0        4.935476    5.965866   -2.270166
     24          8           0        4.111761    6.590685   -2.956649
     25          6           0        6.061518    6.627782   -1.623253
     26          7           0        6.228736    1.530395    1.214590
     27          6           0        6.473528    2.850547    1.004812
     28          6           0        7.476386    3.445005    2.054806
     29          6           0        7.849473    2.208636    2.924164
     30          6           0        6.921557    1.153108    2.289471
     31          6           0        8.741255    4.274365    1.546461
     32          6           0        7.939373    2.216388    4.457409
     33          6           0        9.281194    1.966114    5.175739
     34          7           0        5.277751   -1.031232    1.238981
     35          6           0        6.138401   -1.224774    2.349867
     36          6           0        6.002102   -2.573856    2.887055
     37          6           0        5.035280   -3.204631    2.090978
     38          6           0        4.626068   -2.221525    1.109397
     39          6           0        6.918955   -3.142568    3.893812
     40          6           0        4.372863   -4.518686    1.758316
     41          8           0        4.586052   -5.602920    2.241887
     42          6           0        3.368403   -4.177718    0.620095
     43          6           0        3.376532   -5.189416   -0.345407
     44          8           0        2.586166   -6.146219   -0.267099
     45          8           0        4.338715   -5.054840   -1.312506
     46          6           0        4.402864   -6.080475   -2.288283
     47          6           0       -3.605541   -3.189351   -2.344254
     48          6           0       -3.782886   -1.750126   -2.364378
     49          6           0       -4.338087   -0.934243   -1.407419
     50          6           0       -4.412530   -1.337145    0.063310
     51          6           0       -4.520001    0.532929   -1.594025
     52          6           0       -5.886143    1.119342   -1.430754
     53          6           0       -5.851202    2.442589   -0.567562
     54          6           0       -7.231491    2.749349    0.114855
     55          6           0       -7.491176    4.272024    0.064003
     56          6           0       -7.333151    2.151079    1.570798
     57          6           0       -8.815621    1.970389    2.001843
     58          6           0       -9.265490    0.477961    2.024612
     59          6           0      -10.550524    0.231008    1.075304
     60          6           0      -10.001467   -0.189336   -0.253520
     61          6           0      -11.526460   -0.768284    1.692487
     62          6           0      -12.835329   -0.241376    2.352205
     63          6           0      -14.027865   -0.249127    1.341487
     64          6           0      -14.882362    1.049012    1.452696
     65          6           0      -15.848015    1.054943    2.695865
     66          6           0      -15.709354    1.230094    0.203325
     67          1           0        1.982432    1.552423   -3.299916
     68          1           0        6.468844    4.725432   -0.011601
     69          1           0        7.499962   -0.562229    3.617841
     70          1           0        2.181048   -3.262850   -2.295455
     71          1           0        0.721610   -0.676626   -2.657387
     72          1           0        2.366310   -2.370390   -4.392186
     73          1           0        2.619454   -0.653872   -4.679648
     74          1           0        1.155654   -1.368789   -4.906337
     75          1           0        0.061191   -1.850212   -1.150591
     76          1           0        0.894491   -2.780769    0.117428
     77          1           0       -0.265707   -4.448452   -0.431805
     78          1           0        0.633188   -4.722317   -1.830085
     79          1           0        2.411888    3.286508   -4.506938
     80          1           0        3.300978    4.897323   -4.519373
     81          1           0        1.862336    4.598775   -3.615526
     82          1           0        6.920397    6.014666   -1.895877
     83          1           0        5.867467    6.556892   -0.553377
     84          1           0        6.206324    7.675077   -1.887480
     85          1           0        6.892140    4.235002    2.526835
     86          1           0        8.851544    1.899939    2.626326
     87          1           0        8.667483    5.249336    2.027318
     88          1           0        8.780951    4.274368    0.457124
     89          1           0        9.639451    3.776865    1.909322
     90          1           0        7.118800    1.605553    4.832981
     91          1           0        7.566274    3.188994    4.778716
     92          1           0        9.455423    2.985732    5.520211
     93          1           0        9.945532    1.679598    4.361100
     94          1           0        9.170678    1.220866    5.963740
     95          1           0        7.896958   -2.660873    3.932084
     96          1           0        6.994741   -4.229344    3.862327
     97          1           0        6.542418   -2.949849    4.898216
     98          1           0        2.401878   -4.063192    1.110778
     99          1           0        5.362089   -5.874950   -2.762262
    100          1           0        3.501421   -6.114240   -2.899998
    101          1           0        4.551809   -7.079037   -1.876337
    102          1           0       -4.470733   -3.616402   -1.836203
    103          1           0       -3.586959   -3.555124   -3.371408
    104          1           0       -3.550539   -1.321505   -3.339382
    105          1           0       -5.293726   -0.791947    0.402643
    106          1           0       -3.571717   -0.872790    0.577944
    107          1           0       -4.570719   -2.405476    0.211760
    108          1           0       -4.180882    0.787596   -2.598452
    109          1           0       -3.764620    1.024088   -0.980740
    110          1           0       -6.581511    0.421316   -0.963976
    111          1           0       -6.166863    1.298570   -2.468552
    112          1           0       -5.544138    3.217546   -1.270057
    113          1           0       -5.016636    2.271193    0.111781
    114          1           0       -8.017672    2.314194   -0.502023
    115          1           0       -8.314422    4.489929   -0.616998
    116          1           0       -6.649514    4.819313   -0.357894
    117          1           0       -7.659937    4.627844    1.080329
    118          1           0       -6.896619    2.803143    2.326549
    119          1           0       -6.735835    1.239304    1.585159
    120          1           0       -9.494733    2.601266    1.427404
    121          1           0       -8.890442    2.368624    3.014018
    122          1           0       -9.545936    0.097984    3.006771
    123          1           0       -8.428543   -0.137569    1.692515
    124          1           0      -11.039929    1.188104    0.894074
    125          1           0      -10.401984   -1.144084   -0.595325
    126          1           0       -8.913520   -0.257714   -0.247151
    127          1           0      -10.305319    0.568703   -0.975044
    128          1           0      -11.037238   -1.408015    2.427203
    129          1           0      -11.966256   -1.408902    0.928530
    130          1           0      -12.666267    0.744179    2.786728
    131          1           0      -13.026020   -0.853195    3.233161
    132          1           0      -14.648109   -1.108099    1.598270
    133          1           0      -13.587211   -0.298306    0.346552
    134          1           0      -14.139852    1.841380    1.543044
    135          1           0      -16.508900    0.188737    2.727924
    136          1           0      -16.319642    2.037169    2.719187
    137          1           0      -15.305029    1.070103    3.641192
    138          1           0      -16.738897    0.908310    0.364105
    139          1           0      -15.284163    0.836895   -0.719852
    140          1           0      -15.670774    2.276117   -0.101105
 ---------------------------------------------------------------------

 SCF Done:  E(RwB97XD) =  -3007.85581190     A.U. after   19 cycles

 Excitation energies and oscillator strengths:

 Excited State   1:      Singlet-A      1.6350 eV  758.30 nm  f=0.3819  <S**2>=0.000
     245 -> 248        0.17943
     246 -> 247        0.68465
     245 <- 248        0.11522
 This state for optimization and/or second-order correction.
 Total Energy, E(TD-HF/TD-DFT) =  -3007.79572545
 Copying the excited state density for this state as the 1-particle RhoCI density.

 Excited State   2:      Singlet-A      2.2206 eV  558.35 nm  f=0.0586  <S**2>=0.000
     245 -> 247        0.60441
     246 -> 248       -0.35247

 Excited State   3:      Singlet-A      3.2837 eV  377.58 nm  f=0.0905  <S**2>=0.000
     242 -> 247       -0.10530
     244 -> 247        0.59198
     245 -> 247        0.12604
     246 -> 248        0.30187

 Excited State   4:      Singlet-A      3.4606 eV  358.27 nm  f=0.4862  <S**2>=0.000
     242 -> 247       -0.29107
     244 -> 247       -0.32362
     245 -> 247        0.26939
     246 -> 248        0.47101

 Excited State   5:      Singlet-A      3.5884 eV  345.51 nm  f=0.1229  <S**2>=0.000
     241 -> 247       -0.34067
     241 -> 248        0.13169
     241 -> 249        0.22679
     241 -> 250       -0.21398
     242 -> 247        0.42093
     245 -> 247        0.12292
     246 -> 248        0.14529

 The electronic state is 1-A.
 Alpha  occ. eigenvalues --  -46.95302 -19.30927 -19.29006 -19.25290 -19.24497
 Alpha  occ. eigenvalues --  -19.24153 -19.23574 -14.47656 -14.47488 -14.44056
 Alpha  occ. eigenvalues --  -14.43756 -10.42986 -10.42774 -10.40359 -10.39151
 Alpha  occ. eigenvalues --  -10.36321 -10.35659 -10.35458 -10.35261 -10.35213
 Alpha  occ. eigenvalues --  -10.35167 -10.34687 -10.33888 -10.33215 -10.32873
 Alpha  occ. eigenvalues --  -10.32822 -10.32484 -10.32399 -10.32397 -10.32330
 Alpha  occ. eigenvalues --  -10.32310 -10.32159 -10.31935 -10.31630 -10.31449
 Alpha  occ. eigenvalues --  -10.31368 -10.31211 -10.30867 -10.30830 -10.30823
 Alpha  occ. eigenvalues --  -10.30615 -10.30387 -10.30337 -10.30184 -10.30029
 Alpha  occ. eigenvalues --  -10.29997 -10.29888 -10.29667 -10.29560 -10.29268
 Alpha  occ. eigenvalues --  -10.29258 -10.29224 -10.29221 -10.29208 -10.29025
 Alpha  occ. eigenvalues --  -10.29013 -10.29011 -10.28914 -10.28741 -10.28566
 Alpha  occ. eigenvalues --  -10.28529 -10.28287 -10.28178 -10.28146 -10.27717
 Alpha  occ. eigenvalues --  -10.27633  -3.21313  -1.94909  -1.94451  -1.94278
 Alpha  occ. eigenvalues --   -1.19300  -1.17521  -1.13882  -1.11392  -1.09745
 Alpha  occ. eigenvalues --   -1.08529  -1.07303  -1.06137  -1.05545  -1.03824
 Alpha  occ. eigenvalues --   -0.95034  -0.92703  -0.92025  -0.91384  -0.91318
 Alpha  occ. eigenvalues --   -0.90860  -0.90213  -0.89101  -0.89001  -0.88458
 Alpha  occ. eigenvalues --   -0.88040  -0.87244  -0.86889  -0.86214  -0.85566
 Alpha  occ. eigenvalues --   -0.85241  -0.84520  -0.83520  -0.82967  -0.82901
 Alpha  occ. eigenvalues --   -0.81885  -0.80231  -0.79873  -0.79207  -0.78932
 Alpha  occ. eigenvalues --   -0.77452  -0.77169  -0.77101  -0.76404  -0.75760
 Alpha  occ. eigenvalues --   -0.74910  -0.74146  -0.73786  -0.71968  -0.71813
 Alpha  occ. eigenvalues --   -0.70444  -0.69834  -0.69304  -0.68566  -0.68113
 Alpha  occ. eigenvalues --   -0.67725  -0.67681  -0.67000  -0.66567  -0.65600
 Alpha  occ. eigenvalues --   -0.65410  -0.65122  -0.64766  -0.64368  -0.62449
 Alpha  occ. eigenvalues --   -0.61887  -0.61629  -0.60981  -0.60672  -0.60299
 Alpha  occ. eigenvalues --   -0.60023  -0.59513  -0.58890  -0.58470  -0.57484
 Alpha  occ. eigenvalues --   -0.57321  -0.56811  -0.56515  -0.56145  -0.55943
 Alpha  occ. eigenvalues --   -0.55759  -0.55608  -0.55277  -0.55179  -0.55137
 Alpha  occ. eigenvalues --   -0.54884  -0.54610  -0.54239  -0.53890  -0.53711
 Alpha  occ. eigenvalues --   -0.53561  -0.53331  -0.53292  -0.52726  -0.52387
 Alpha  occ. eigenvalues --   -0.52322  -0.52157  -0.51926  -0.51851  -0.51766
 Alpha  occ. eigenvalues --   -0.51614  -0.51368  -0.51165  -0.50982  -0.50739
 Alpha  occ. eigenvalues --   -0.50619  -0.50493  -0.50030  -0.49940  -0.49560
 Alpha  occ. eigenvalues --   -0.49151  -0.49088  -0.48885  -0.48600  -0.48423
 Alpha  occ. eigenvalues --   -0.48264  -0.48059  -0.47959  -0.47902  -0.47694
 Alpha  occ. eigenvalues --   -0.47500  -0.47379  -0.46985  -0.46895  -0.46685
 Alpha  occ. eigenvalues --   -0.46630  -0.46475  -0.46180  -0.45939  -0.45858
 Alpha  occ. eigenvalues --   -0.45779  -0.45663  -0.45256  -0.45196  -0.44925
 Alpha  occ. eigenvalues --   -0.44664  -0.44623  -0.44321  -0.44256  -0.43911
 Alpha  occ. eigenvalues --   -0.43755  -0.43688  -0.43383  -0.43250  -0.43066
 Alpha  occ. eigenvalues --   -0.42831  -0.42639  -0.42568  -0.42291  -0.41830
 Alpha  occ. eigenvalues --   -0.41616  -0.41316  -0.41172  -0.40993  -0.40290
 Alpha  occ. eigenvalues --   -0.40201  -0.40116  -0.39763  -0.39674  -0.39381
 Alpha  occ. eigenvalues --   -0.39029  -0.38898  -0.38802  -0.38508  -0.38087
 Alpha  occ. eigenvalues --   -0.37780  -0.37392  -0.37076  -0.36452  -0.36172
 Alpha  occ. eigenvalues --   -0.36127  -0.35708  -0.35438  -0.33824  -0.33453
 Alpha  occ. eigenvalues --   -0.33170  -0.32085  -0.31908  -0.31621  -0.26565
 Alpha  occ. eigenvalues --   -0.22671
 Alpha virt. eigenvalues --   -0.06978  -0.00261   0.02160   0.04204   0.05560
 Alpha virt. eigenvalues --    0.05690   0.06280   0.07428   0.08215   0.09373
 Alpha virt. eigenvalues --    0.10314   0.11098   0.11254   0.11870   0.12445

 Mulliken charges:
               1
     1  Mg   0.976463
     2  C   -0.033088
     3  C   -0.069397
     4  C   -0.097936
     5  C   -0.072652
     6  N   -0.356995
     7  C    0.018203
     8  C   -0.043651
     9  C   -0.121599
    10  C    0.111425
    11  C    0.001523
    12  C    0.010006
    13  C    0.001750
    14  C    0.212781
    15  O   -0.274217
    16  O   -0.369813
    17  N   -0.435558
    18  C    0.114988
    19  C   -0.150255
    20  C   -0.069328
    21  C    0.135623
    22  C    0.082301
    23  C    0.027821
    24  O   -0.255050
    25  C    0.021826
    26  N   -0.370898
    27  C    0.130001
    28  C   -0.133546
    29  C   -0.025199
    30  C    0.063177
    31  C    0.016896
    32  C   -0.044102
    33  C   -0.022245
    34  N   -0.426841
    35  C    0.068425
    36  C   -0.160624
    37  C   -0.059522
    38  C    0.118985
    39  C    0.063877
    40  C    0.137232
    41  O   -0.169024
    42  C   -0.027121
    43  C    0.247547
    44  O   -0.271213
    45  O   -0.347228
    46  C    0.144617
    47  C    0.271507
    48  C   -0.159932
    49  C   -0.197083
    50  C    0.063290
    51  C    0.017069
    52  C   -0.053255
    53  C   -0.000836
    54  C   -0.188125
    55  C    0.008410
    56  C    0.003391
    57  C   -0.018984
    58  C    0.016199
    59  C   -0.198829
    60  C    0.024612
    61  C    0.010540
    62  C   -0.042925
    63  C    0.004536
    64  C   -0.205051
    65  C   -0.017833
    66  C    0.009860
    67  H    0.006441
    68  H   -0.041326
    69  H   -0.012675
    70  H    0.033867
    71  H    0.054928
    72  H    0.027117
    73  H    0.024316
    74  H    0.038784
    75  H    0.042960
    76  H    0.035527
    77  H    0.051146
    78  H    0.053239
    79  H    0.028457
    80  H    0.060870
    81  H    0.039403
    82  H    0.057381
    83  H    0.076943
    84  H    0.060153
    85  H    0.041896
    86  H    0.031319
    87  H    0.041646
    88  H    0.047600
    89  H    0.031043
    90  H    0.025983
    91  H    0.012723
    92  H    0.047946
    93  H    0.034552
    94  H    0.055604
    95  H    0.039787
    96  H    0.060706
    97  H    0.038242
    98  H    0.086517
    99  H    0.053030
   100  H    0.053346
   101  H    0.050294
   102  H    0.046963
   103  H    0.047636
   104  H    0.025120
   105  H    0.007478
   106  H    0.055755
   107  H    0.048157
   108  H    0.010994
   109  H    0.027353
   110  H    0.035313
   111  H    0.034626
   112  H    0.023843
   113  H    0.018291
   114  H    0.024962
   115  H    0.029138
   116  H    0.024101
   117  H    0.027146
   118  H    0.019733
   119  H    0.017954
   120  H    0.023857
   121  H    0.019508
   122  H    0.017570
   123  H    0.014389
   124  H    0.017115
   125  H    0.023844
   126  H    0.021954
   127  H    0.025806
   128  H    0.015085
   129  H    0.008067
   130  H    0.009639
   131  H    0.015661
   132  H    0.024898
   133  H    0.021811
   134  H    0.017934
   135  H    0.040749
   136  H    0.034015
   137  H    0.020476
   138  H    0.036488
   139  H    0.014756
   140  H    0.017126
 Sum of Mulliken charges =  -0.00000

 Dipole moment (field-independent basis, Debye):
    X=              2.2140    Y=              4.1535    Z=              1.7176  Tot=              5.0104
 Quadrupole moment (field-independent basis, Debye-Ang):
   XX=           -343.2762   YY=           -441.1932   ZZ=           -398.9013
   XY=             20.1055   XZ=              9.2743   YZ=             27.9003

 Normal termination of Gaussian 16 at Sat Apr 30 07:01:41 2022.
