 Gaussian 16, Revision A.03,
 Gaussian 16:  ES64L-G16RevA.03 25-Dec-2016

 --------------------
 #p ZINDO=(nstates=5)
 --------------------

 ----------------------------
 step_601_chromophore_5 ZINDO
 ----------------------------
 Symbolic Z-matrix:
 Charge =  0 Multiplicity = 1

                         Standard orientation:
 ---------------------------------------------------------------------
 Center     Atomic      Atomic             Coordinates (Angstroms)
 Number     Number       Type             X           Y           Z
 ---------------------------------------------------------------------
      1         12           0        5.043450    0.570544   -0.127611
      2          6           0        3.701179   -2.726452    0.168994
      3          6           0        2.718281    1.306508   -2.531472
      4          6           0        6.044814    3.719954    0.007666
      5          6           0        6.971675   -0.185570    2.739261
      6          7           0        3.467709   -0.586872   -1.031517
      7          6           0        3.152417   -1.934070   -0.826555
      8          6           0        1.941830   -2.376415   -1.708155
      9          6           0        1.725998   -1.099856   -2.687078
     10          6           0        2.802171   -0.073303   -2.042932
     11          6           0        1.971242   -1.376735   -4.182912
     12          6           0        0.727747   -2.689668   -0.956272
     13          6           0       -0.016390   -3.972373   -1.380021
     14          6           0       -1.183138   -3.659339   -2.339255
     15          8           0       -1.140946   -3.272887   -3.498769
     16          8           0       -2.340960   -3.584593   -1.627536
     17          7           0        4.585760    2.308468   -1.312358
     18          6           0        3.576349    2.414847   -2.181266
     19          6           0        3.589093    3.750339   -2.694128
     20          6           0        4.588918    4.511271   -2.018072
     21          6           0        5.171139    3.523806   -1.084313
     22          6           0        2.792965    4.130585   -3.933642
     23          6           0        4.935476    5.965866   -2.270166
     24          8           0        4.111761    6.590685   -2.956649
     25          6           0        6.061518    6.627782   -1.623253
     26          7           0        6.228736    1.530395    1.214590
     27          6           0        6.473528    2.850547    1.004812
     28          6           0        7.476386    3.445005    2.054806
     29          6           0        7.849473    2.208636    2.924164
     30          6           0        6.921557    1.153108    2.289471
     31          6           0        8.741255    4.274365    1.546461
     32          6           0        7.939373    2.216388    4.457409
     33          6           0        9.281194    1.966114    5.175739
     34          7           0        5.277751   -1.031232    1.238981
     35          6           0        6.138401   -1.224774    2.349867
     36          6           0        6.002102   -2.573856    2.887055
     37          6           0        5.035280   -3.204631    2.090978
     38          6           0        4.626068   -2.221525    1.109397
     39          6           0        6.918955   -3.142568    3.893812
     40          6           0        4.372863   -4.518686    1.758316
     41          8           0        4.586052   -5.602920    2.241887
     42          6           0        3.368403   -4.177718    0.620095
     43          6           0        3.376532   -5.189416   -0.345407
     44          8           0        2.586166   -6.146219   -0.267099
     45          8           0        4.338715   -5.054840   -1.312506
     46          6           0        4.402864   -6.080475   -2.288283
     47          6           0       -3.605541   -3.189351   -2.344254
     48          6           0       -3.782886   -1.750126   -2.364378
     49          6           0       -4.338087   -0.934243   -1.407419
     50          6           0       -4.412530   -1.337145    0.063310
     51          6           0       -4.520001    0.532929   -1.594025
     52          6           0       -5.886143    1.119342   -1.430754
     53          6           0       -5.851202    2.442589   -0.567562
     54          6           0       -7.231491    2.749349    0.114855
     55          6           0       -7.491176    4.272024    0.064003
     56          6           0       -7.333151    2.151079    1.570798
     57          6           0       -8.815621    1.970389    2.001843
     58          6           0       -9.265490    0.477961    2.024612
     59          6           0      -10.550524    0.231008    1.075304
     60          6           0      -10.001467   -0.189336   -0.253520
     61          6           0      -11.526460   -0.768284    1.692487
     62          6           0      -12.835329   -0.241376    2.352205
     63          6           0      -14.027865   -0.249127    1.341487
     64          6           0      -14.882362    1.049012    1.452696
     65          6           0      -15.848015    1.054943    2.695865
     66          6           0      -15.709354    1.230094    0.203325
     67          1           0        1.982432    1.552423   -3.299916
     68          1           0        6.468844    4.725432   -0.011601
     69          1           0        7.499962   -0.562229    3.617841
     70          1           0        2.181048   -3.262850   -2.295455
     71          1           0        0.721610   -0.676626   -2.657387
     72          1           0        2.366310   -2.370390   -4.392186
     73          1           0        2.619454   -0.653872   -4.679648
     74          1           0        1.155654   -1.368789   -4.906337
     75          1           0        0.061191   -1.850212   -1.150591
     76          1           0        0.894491   -2.780769    0.117428
     77          1           0       -0.265707   -4.448452   -0.431805
     78          1           0        0.633188   -4.722317   -1.830085
     79          1           0        2.411888    3.286508   -4.506938
     80          1           0        3.300978    4.897323   -4.519373
     81          1           0        1.862336    4.598775   -3.615526
     82          1           0        6.920397    6.014666   -1.895877
     83          1           0        5.867467    6.556892   -0.553377
     84          1           0        6.206324    7.675077   -1.887480
     85          1           0        6.892140    4.235002    2.526835
     86          1           0        8.851544    1.899939    2.626326
     87          1           0        8.667483    5.249336    2.027318
     88          1           0        8.780951    4.274368    0.457124
     89          1           0        9.639451    3.776865    1.909322
     90          1           0        7.118800    1.605553    4.832981
     91          1           0        7.566274    3.188994    4.778716
     92          1           0        9.455423    2.985732    5.520211
     93          1           0        9.945532    1.679598    4.361100
     94          1           0        9.170678    1.220866    5.963740
     95          1           0        7.896958   -2.660873    3.932084
     96          1           0        6.994741   -4.229344    3.862327
     97          1           0        6.542418   -2.949849    4.898216
     98          1           0        2.401878   -4.063192    1.110778
     99          1           0        5.362089   -5.874950   -2.762262
    100          1           0        3.501421   -6.114240   -2.899998
    101          1           0        4.551809   -7.079037   -1.876337
    102          1           0       -4.470733   -3.616402   -1.836203
    103          1           0       -3.586959   -3.555124   -3.371408
    104          1           0       -3.550539   -1.321505   -3.339382
    105          1           0       -5.293726   -0.791947    0.402643
    106          1           0       -3.571717   -0.872790    0.577944
    107          1           0       -4.570719   -2.405476    0.211760
    108          1           0       -4.180882    0.787596   -2.598452
    109          1           0       -3.764620    1.024088   -0.980740
    110          1           0       -6.581511    0.421316   -0.963976
    111          1           0       -6.166863    1.298570   -2.468552
    112          1           0       -5.544138    3.217546   -1.270057
    113          1           0       -5.016636    2.271193    0.111781
    114          1           0       -8.017672    2.314194   -0.502023
    115          1           0       -8.314422    4.489929   -0.616998
    116          1           0       -6.649514    4.819313   -0.357894
    117          1           0       -7.659937    4.627844    1.080329
    118          1           0       -6.896619    2.803143    2.326549
    119          1           0       -6.735835    1.239304    1.585159
    120          1           0       -9.494733    2.601266    1.427404
    121          1           0       -8.890442    2.368624    3.014018
    122          1           0       -9.545936    0.097984    3.006771
    123          1           0       -8.428543   -0.137569    1.692515
    124          1           0      -11.039929    1.188104    0.894074
    125          1           0      -10.401984   -1.144084   -0.595325
    126          1           0       -8.913520   -0.257714   -0.247151
    127          1           0      -10.305319    0.568703   -0.975044
    128          1           0      -11.037238   -1.408015    2.427203
    129          1           0      -11.966256   -1.408902    0.928530
    130          1           0      -12.666267    0.744179    2.786728
    131          1           0      -13.026020   -0.853195    3.233161
    132          1           0      -14.648109   -1.108099    1.598270
    133          1           0      -13.587211   -0.298306    0.346552
    134          1           0      -14.139852    1.841380    1.543044
    135          1           0      -16.508900    0.188737    2.727924
    136          1           0      -16.319642    2.037169    2.719187
    137          1           0      -15.305029    1.070103    3.641192
    138          1           0      -16.738897    0.908310    0.364105
    139          1           0      -15.284163    0.836895   -0.719852
    140          1           0      -15.670774    2.276117   -0.101105
 ---------------------------------------------------------------------

 SCF Done:  E(RZINDO/S) =  -474.343811406     A.U. after   20 cycles

 Excitation energies and oscillator strengths:

 Excited State   1:      Singlet-A      1.2622 eV  982.31 nm  f=0.5957  <S**2>=0.000
     175 ->178         0.19427
     176 ->177         0.66222
 This state for optimization and/or second-order correction.
 Total Energy, E(CIS/TDA) =  -474.297427508
 Copying the excited state density for this state as the 1-particle RhoCI density.

 Excited State   2:      Singlet-A      1.9137 eV  647.86 nm  f=0.0013  <S**2>=0.000
     175 ->177        -0.48031
     176 ->178         0.49843

 Excited State   3:      Singlet-A      2.9275 eV  423.51 nm  f=0.1973  <S**2>=0.000
     168 ->179         0.12831
     168 ->180        -0.13495
     175 ->177        -0.21237
     176 ->178        -0.21929
     176 ->179         0.50680

 Excited State   4:      Singlet-A      2.9397 eV  421.76 nm  f=0.0162  <S**2>=0.000
     168 ->177         0.19529
     168 ->178        -0.11943
     168 ->179        -0.27366
     168 ->180         0.25995
     168 ->186         0.19060
     169 ->179         0.10024
     170 ->180        -0.10058
     173 ->177        -0.15696
     176 ->179         0.29639

 Excited State   5:      Singlet-A      3.0254 eV  409.82 nm  f=1.0093  <S**2>=0.000
     172 ->177         0.10315
     173 ->177        -0.13564
     175 ->177         0.39355
     176 ->178         0.39972
     176 ->179         0.30345

 The electronic state is 1-A.
 Alpha  occ. eigenvalues --   -1.82994  -1.81427  -1.79905  -1.74201  -1.72760
 Alpha  occ. eigenvalues --   -1.69410  -1.64792  -1.60834  -1.59459  -1.59192
 Alpha  occ. eigenvalues --   -1.55650  -1.51580  -1.49775  -1.48700  -1.47474
 Alpha  occ. eigenvalues --   -1.46569  -1.43355  -1.41373  -1.38430  -1.37471
 Alpha  occ. eigenvalues --   -1.35835  -1.34300  -1.33463  -1.30603  -1.28243
 Alpha  occ. eigenvalues --   -1.28187  -1.27332  -1.24259  -1.21646  -1.18486
 Alpha  occ. eigenvalues --   -1.16840  -1.15226  -1.14916  -1.13728  -1.13574
 Alpha  occ. eigenvalues --   -1.13038  -1.09623  -1.09130  -1.05515  -1.04625
 Alpha  occ. eigenvalues --   -1.01976  -1.01784  -0.98565  -0.97895  -0.96167
 Alpha  occ. eigenvalues --   -0.95280  -0.94301  -0.94139  -0.93121  -0.92708
 Alpha  occ. eigenvalues --   -0.91789  -0.91250  -0.89584  -0.88662  -0.86771
 Alpha  occ. eigenvalues --   -0.85782  -0.84627  -0.84129  -0.83339  -0.81736
 Alpha  occ. eigenvalues --   -0.79521  -0.78964  -0.78576  -0.77898  -0.76899
 Alpha  occ. eigenvalues --   -0.76396  -0.75621  -0.74677  -0.74016  -0.73379
 Alpha  occ. eigenvalues --   -0.72515  -0.71948  -0.71830  -0.71222  -0.70979
 Alpha  occ. eigenvalues --   -0.70397  -0.69419  -0.69080  -0.68546  -0.67715
 Alpha  occ. eigenvalues --   -0.67337  -0.67024  -0.66254  -0.66001  -0.65859
 Alpha  occ. eigenvalues --   -0.65701  -0.65371  -0.64592  -0.64362  -0.63867
 Alpha  occ. eigenvalues --   -0.63266  -0.63111  -0.62279  -0.62114  -0.61648
 Alpha  occ. eigenvalues --   -0.61216  -0.61031  -0.60869  -0.60814  -0.60368
 Alpha  occ. eigenvalues --   -0.60106  -0.59373  -0.58753  -0.58331  -0.58062
 Alpha  occ. eigenvalues --   -0.57656  -0.57517  -0.56694  -0.56456  -0.56387
 Alpha  occ. eigenvalues --   -0.55593  -0.55382  -0.55006  -0.54813  -0.54294
 Alpha  occ. eigenvalues --   -0.54009  -0.53533  -0.53433  -0.53294  -0.52805
 Alpha  occ. eigenvalues --   -0.52697  -0.51986  -0.51685  -0.51584  -0.51429
 Alpha  occ. eigenvalues --   -0.51110  -0.50607  -0.50540  -0.50299  -0.49942
 Alpha  occ. eigenvalues --   -0.49600  -0.49413  -0.49380  -0.49304  -0.49118
 Alpha  occ. eigenvalues --   -0.48911  -0.48310  -0.48197  -0.48035  -0.47682
 Alpha  occ. eigenvalues --   -0.47519  -0.47307  -0.47201  -0.47019  -0.46933
 Alpha  occ. eigenvalues --   -0.46105  -0.45995  -0.45919  -0.45678  -0.45418
 Alpha  occ. eigenvalues --   -0.45264  -0.44626  -0.44532  -0.44363  -0.43896
 Alpha  occ. eigenvalues --   -0.43750  -0.43431  -0.42804  -0.42493  -0.42238
 Alpha  occ. eigenvalues --   -0.42088  -0.41761  -0.41305  -0.39067  -0.38704
 Alpha  occ. eigenvalues --   -0.38258  -0.37591  -0.35721  -0.35465  -0.35160
 Alpha  occ. eigenvalues --   -0.33098  -0.32893  -0.32563  -0.31706  -0.27270
 Alpha  occ. eigenvalues --   -0.21701
 Alpha virt. eigenvalues --   -0.08369  -0.02758  -0.00749   0.00992   0.01701
 Alpha virt. eigenvalues --    0.01899   0.02166   0.02591   0.04416   0.04463
 Alpha virt. eigenvalues --    0.05826   0.06577   0.07052   0.07642   0.07889

 Mulliken charges:
               1
     1  Mg   0.432464
     2  C   -0.045322
     3  C   -0.096843
     4  C   -0.084544
     5  C   -0.069082
     6  N   -0.252865
     7  C    0.095524
     8  C    0.006176
     9  C   -0.004250
    10  C    0.148283
    11  C   -0.057104
    12  C   -0.011155
    13  C    0.004591
    14  C    0.474212
    15  O   -0.524576
    16  O   -0.275497
    17  N   -0.322569
    18  C    0.124610
    19  C    0.048056
    20  C   -0.053755
    21  C    0.115234
    22  C   -0.042932
    23  C    0.335925
    24  O   -0.535788
    25  C   -0.019075
    26  N   -0.240490
    27  C    0.129782
    28  C   -0.010772
    29  C    0.002331
    30  C    0.115986
    31  C   -0.057299
    32  C   -0.033234
    33  C   -0.060369
    34  N   -0.341353
    35  C    0.073997
    36  C    0.035071
    37  C   -0.071959
    38  C    0.100449
    39  C   -0.035755
    40  C    0.344013
    41  O   -0.490375
    42  C    0.068292
    43  C    0.498332
    44  O   -0.542311
    45  O   -0.263117
    46  C    0.078884
    47  C    0.113978
    48  C   -0.078501
    49  C   -0.014212
    50  C   -0.047825
    51  C   -0.016037
    52  C   -0.034925
    53  C   -0.042480
    54  C   -0.013493
    55  C   -0.060137
    56  C   -0.031813
    57  C   -0.035851
    58  C   -0.041481
    59  C   -0.009938
    60  C   -0.055469
    61  C   -0.036899
    62  C   -0.045389
    63  C   -0.035552
    64  C   -0.010534
    65  C   -0.058066
    66  C   -0.059055
    67  H    0.037104
    68  H    0.024036
    69  H    0.027285
    70  H    0.037060
    71  H    0.044158
    72  H    0.017615
    73  H    0.014956
    74  H    0.026030
    75  H    0.028772
    76  H    0.023617
    77  H    0.036625
    78  H    0.043503
    79  H    0.025547
    80  H    0.044679
    81  H    0.030400
    82  H    0.036321
    83  H    0.044161
    84  H    0.042224
    85  H    0.030010
    86  H    0.027700
    87  H    0.025713
    88  H    0.029185
    89  H    0.020296
    90  H    0.018593
    91  H    0.006852
    92  H    0.028726
    93  H    0.028287
    94  H    0.034419
    95  H    0.025988
    96  H    0.035061
    97  H    0.024791
    98  H    0.063050
    99  H    0.030026
   100  H    0.048890
   101  H    0.042858
   102  H    0.036469
   103  H    0.047913
   104  H    0.027033
   105  H    0.016145
   106  H    0.036763
   107  H    0.030805
   108  H    0.007271
   109  H    0.021608
   110  H    0.022519
   111  H    0.021708
   112  H    0.019729
   113  H    0.024288
   114  H    0.023134
   115  H    0.018189
   116  H    0.017464
   117  H    0.020742
   118  H    0.017726
   119  H    0.020798
   120  H    0.026660
   121  H    0.010179
   122  H    0.017568
   123  H    0.022827
   124  H    0.023572
   125  H    0.016623
   126  H    0.020428
   127  H    0.011771
   128  H    0.016694
   129  H    0.014696
   130  H    0.015624
   131  H    0.013450
   132  H    0.024121
   133  H    0.025385
   134  H    0.022590
   135  H    0.030441
   136  H    0.018161
   137  H    0.008676
   138  H    0.025093
   139  H    0.015994
   140  H    0.008459
 Sum of Mulliken charges =  -0.00000

 Dipole moment (field-independent basis, Debye):
    X=              3.3123    Y=              5.2110    Z=              2.0833  Tot=              6.5166
 N-N= 4.356058062705D+03 E-N= 0.000000000000D+00  KE=-9.386236228646D+03
 Leave Link  601 at Sat Apr 30 07:14:45 2022, MaxMem=  6710886400 cpu:               0.9 elap:               0.1
 (Enter /sw/apps/gaussian-16.0/g16/l9999.exe)
 1\1\GINC-BP1-COMPUTE082\SP\RZINDO CIS\STO-3G\C55H74Mg1N4O6\OF15641\30-
 Apr-2022\0\\#p ZINDO=(nstates=5)\\step_601_chromophore_5 ZINDO\\0,1\Mg
 ,0,24.46,-7.511,46.114\C,0,26.902,-5.127,45.059\C,0,22.114,-5.991,44.1
 36\C,0,22.414,-10.023,46.78\C,0,27.133,-9.261,47.631\N,0,24.542,-5.794
 ,44.816\C,0,25.611,-4.918,44.601\C,0,25.229,-3.79,43.591\C,0,23.629,-3
 .996,43.412\C,0,23.428,-5.355,44.272\C,0,22.761,-2.826,43.914\C,0,25.9
 28,-3.863,42.309\C,0,26.481,-2.53,41.765\C,0,25.52,-1.895,40.739\O,0,2

 Normal termination of Gaussian 16 at Sat Apr 30 07:14:46 2022.
