 Gaussian 16, Revision A.03,
 Gaussian 16:  ES64L-G16RevA.03 25-Dec-2016

 ------------------------------
 #p blyp/Def2SVP td=(nstates=5)
 ------------------------------

 -------------------------------------------------
 step_501_chromophore_2 TDDFT with blyp functional
 -------------------------------------------------
 Symbolic Z-matrix:
 Charge =  0 Multiplicity = 1

                         Standard orientation:
 ---------------------------------------------------------------------
 Center     Atomic      Atomic             Coordinates (Angstroms)
 Number     Number       Type             X           Y           Z
 ---------------------------------------------------------------------
      1         12           0       -4.805850    1.098646    0.424595
      2          6           0       -4.418630   -2.391710   -0.059344
      3          6           0       -1.898900    1.055641    2.178279
      4          6           0       -4.767361    4.488352    0.164215
      5          6           0       -7.447349    1.011732   -1.817652
      6          7           0       -3.311361   -0.553836    0.801913
      7          6           0       -3.367562   -1.910790    0.624152
      8          6           0       -2.223230   -2.604357    1.264790
      9          6           0       -1.630969   -1.491867    2.251843
     10          6           0       -2.288182   -0.262649    1.723730
     11          6           0       -1.954199   -1.794301    3.706162
     12          6           0       -1.307623   -3.109939    0.138879
     13          6           0       -0.935488   -4.652462    0.131654
     14          6           0        0.548604   -5.127681    0.113150
     15          8           0        0.954903   -6.083190   -0.551241
     16          8           0        1.496565   -4.307134    0.773697
     17          7           0       -3.576238    2.613435    1.090944
     18          6           0       -2.451483    2.368363    1.890871
     19          6           0       -1.976565    3.631152    2.371250
     20          6           0       -2.763401    4.679197    1.784638
     21          6           0       -3.805881    3.934750    1.028613
     22          6           0       -0.819034    3.705144    3.358693
     23          6           0       -2.611574    6.176971    1.929134
     24          8           0       -1.729275    6.514769    2.770513
     25          6           0       -3.306064    7.308074    1.119133
     26          7           0       -5.958357    2.589707   -0.673810
     27          6           0       -5.763303    3.923655   -0.581902
     28          6           0       -6.722565    4.745137   -1.483399
     29          6           0       -7.660045    3.616013   -2.034657
     30          6           0       -6.930225    2.293266   -1.504944
     31          6           0       -7.434146    5.794833   -0.648693
     32          6           0       -7.812911    3.578107   -3.524611
     33          6           0       -9.191463    3.943205   -4.004428
     34          7           0       -5.872591   -0.307510   -0.573743
     35          6           0       -6.977765   -0.258546   -1.432788
     36          6           0       -7.490578   -1.507363   -1.684883
     37          6           0       -6.537335   -2.387291   -1.132908
     38          6           0       -5.543006   -1.610265   -0.543022
     39          6           0       -8.854643   -1.747551   -2.296428
     40          6           0       -6.254424   -3.824154   -0.874208
     41          8           0       -6.900276   -4.784038   -1.160527
     42          6           0       -4.812369   -3.792369   -0.240374
     43          6           0       -4.796798   -4.818779    0.871328
     44          8           0       -4.261272   -5.924624    0.795390
     45          8           0       -5.438503   -4.305025    2.024377
     46          6           0       -5.339718   -5.211387    3.168047
     47          6           0        2.891499   -4.734229    0.701110
     48          6           0        3.631493   -3.572310    0.022490
     49          6           0        3.984565   -3.468618   -1.327372
     50          6           0        3.877393   -4.498224   -2.350336
     51          6           0        4.642354   -2.139394   -1.697504
     52          6           0        5.742349   -1.581860   -0.717021
     53          6           0        6.892127   -0.966992   -1.618243
     54          6           0        6.971136    0.565642   -1.312293
     55          6           0        7.868917    1.199428   -2.456605
     56          6           0        7.446206    1.095345    0.125367
     57          6           0        8.624992    0.250534    0.755259
     58          6           0        9.492940    1.138154    1.596894
     59          6           0       10.983680    0.956347    1.325872
     60          6           0       11.812746    1.607018    2.436485
     61          6           0       11.438135    1.630529   -0.071809
     62          6           0       12.205626    0.671984   -0.979801
     63          6           0       13.304653    1.313535   -1.830691
     64          6           0       14.649558    1.460230   -1.066156
     65          6           0       15.086094    2.898477   -0.749385
     66          6           0       15.772048    0.718160   -1.767603
     67          1           0       -1.098562    1.028669    2.921040
     68          1           0       -4.853986    5.576991    0.132420
     69          1           0       -8.111323    0.923228   -2.679326
     70          1           0       -2.589325   -3.461933    1.829413
     71          1           0       -0.546915   -1.484074    2.141591
     72          1           0       -2.945393   -2.223475    3.846025
     73          1           0       -1.986576   -0.850720    4.251891
     74          1           0       -1.201774   -2.403966    4.206375
     75          1           0       -0.385595   -2.531444    0.194546
     76          1           0       -1.652940   -2.847771   -0.861185
     77          1           0       -1.402453   -4.951054   -0.807260
     78          1           0       -1.533864   -5.196561    0.861460
     79          1           0        0.032005    3.120180    3.009872
     80          1           0       -1.181633    3.253051    4.281781
     81          1           0       -0.360683    4.680825    3.525871
     82          1           0       -4.340576    7.253758    1.456651
     83          1           0       -3.225825    7.073445    0.057650
     84          1           0       -2.850473    8.284261    1.287372
     85          1           0       -6.224338    5.280389   -2.291320
     86          1           0       -8.608148    3.626234   -1.497595
     87          1           0       -6.674750    6.344189   -0.091996
     88          1           0       -8.102330    5.281260    0.043336
     89          1           0       -8.127419    6.482688   -1.131288
     90          1           0       -7.639205    2.592791   -3.957145
     91          1           0       -7.130438    4.199764   -4.103823
     92          1           0       -9.089793    4.749957   -4.729269
     93          1           0       -9.816889    4.360485   -3.215237
     94          1           0       -9.761763    3.105283   -4.406773
     95          1           0       -9.110230   -2.781271   -2.061406
     96          1           0       -8.853801   -1.609451   -3.377381
     97          1           0       -9.505011   -1.018229   -1.814023
     98          1           0       -4.215796   -4.263572   -1.022363
     99          1           0       -5.390846   -4.653380    4.103085
    100          1           0       -4.351609   -5.664914    3.231641
    101          1           0       -6.078590   -6.012845    3.143728
    102          1           0        3.028041   -5.666103    0.152147
    103          1           0        3.227163   -4.787209    1.737482
    104          1           0        3.862600   -2.709301    0.647298
    105          1           0        3.320012   -3.997245   -3.142296
    106          1           0        3.261877   -5.303113   -1.950585
    107          1           0        4.911430   -4.739361   -2.599174
    108          1           0        3.911700   -1.345045   -1.548065
    109          1           0        4.981766   -2.153584   -2.732808
    110          1           0        6.151451   -2.475368   -0.245031
    111          1           0        5.394443   -0.918079    0.074282
    112          1           0        6.795154   -1.122262   -2.692190
    113          1           0        7.845038   -1.449368   -1.400682
    114          1           0        5.929480    0.835870   -1.487103
    115          1           0        8.160045    2.225711   -2.231136
    116          1           0        7.416695    1.099107   -3.443187
    117          1           0        8.839347    0.703828   -2.483920
    118          1           0        6.600399    1.222924    0.801811
    119          1           0        7.759936    2.109362   -0.118662
    120          1           0        9.201772   -0.079422   -0.108753
    121          1           0        8.124586   -0.556070    1.291182
    122          1           0        9.384197    0.808658    2.629822
    123          1           0        9.309551    2.209732    1.525130
    124          1           0       11.283654   -0.090788    1.358450
    125          1           0       11.259923    2.456181    2.838442
    126          1           0       12.846125    1.903728    2.260292
    127          1           0       11.859414    0.835851    3.205036
    128          1           0       12.063285    2.519052    0.013828
    129          1           0       10.550334    1.879622   -0.653254
    130          1           0       11.486267    0.218655   -1.661853
    131          1           0       12.667868   -0.218615   -0.554735
    132          1           0       12.909064    2.246339   -2.232580
    133          1           0       13.390261    0.673685   -2.707739
    134          1           0       14.522695    1.092678   -0.048073
    135          1           0       15.111056    2.983835    0.337392
    136          1           0       14.374868    3.607609   -1.172929
    137          1           0       16.138825    2.960220   -1.023296
    138          1           0       16.606294    0.749837   -1.066368
    139          1           0       16.014201    1.101040   -2.758901
    140          1           0       15.504972   -0.321087   -1.955450
 ---------------------------------------------------------------------

 SCF Done:  E(RB-LYP) =  -3007.38073839     A.U. after   20 cycles

 Excitation energies and oscillator strengths:

 Excited State   1:      Singlet-A      1.6306 eV  760.37 nm  f=0.0009  <S**2>=0.000
     244 -> 247        0.68616
     245 -> 247       -0.16755
 This state for optimization and/or second-order correction.
 Total Energy, E(TD-HF/TD-DFT) =  -3007.32081560
 Copying the excited state density for this state as the 1-particle RhoCI density.

 Excited State   2:      Singlet-A      1.8005 eV  688.61 nm  f=0.2570  <S**2>=0.000
     243 -> 247       -0.10224
     245 -> 248        0.17135
     246 -> 247        0.68444
     246 <- 247       -0.15252

 Excited State   3:      Singlet-A      1.8332 eV  676.33 nm  f=0.0078  <S**2>=0.000
     243 -> 247        0.69721

 Excited State   4:      Singlet-A      2.0094 eV  617.03 nm  f=0.0082  <S**2>=0.000
     242 -> 247        0.67856
     245 -> 247       -0.17851

 Excited State   5:      Singlet-A      2.0336 eV  609.67 nm  f=0.1168  <S**2>=0.000
     240 -> 247        0.11417
     242 -> 247        0.19502
     244 -> 247        0.15163
     245 -> 247        0.60601
     246 -> 248       -0.20525
     246 -> 249       -0.10767

 The electronic state is 1-A.
 Alpha  occ. eigenvalues --  -46.27541 -18.82838 -18.81084 -18.77957 -18.76777
 Alpha  occ. eigenvalues --  -18.76636 -18.75103 -14.03577 -14.03435 -14.01639
 Alpha  occ. eigenvalues --  -14.00768 -10.04894 -10.04473 -10.00438 -10.00302
 Alpha  occ. eigenvalues --   -9.97826  -9.97434  -9.97074  -9.96831  -9.96454
 Alpha  occ. eigenvalues --   -9.96288  -9.96272  -9.96250  -9.94892  -9.94855
 Alpha  occ. eigenvalues --   -9.94618  -9.94490  -9.94412  -9.94194  -9.94180
 Alpha  occ. eigenvalues --   -9.94130  -9.94070  -9.93999  -9.93529  -9.93461
 Alpha  occ. eigenvalues --   -9.93389  -9.93236  -9.93134  -9.92980  -9.92958
 Alpha  occ. eigenvalues --   -9.92805  -9.92787  -9.92693  -9.92671  -9.92333
 Alpha  occ. eigenvalues --   -9.92307  -9.91819  -9.91803  -9.91802  -9.91766
 Alpha  occ. eigenvalues --   -9.91657  -9.91633  -9.91630  -9.91474  -9.91356
 Alpha  occ. eigenvalues --   -9.91333  -9.91154  -9.91076  -9.90984  -9.90917
 Alpha  occ. eigenvalues --   -9.90906  -9.90701  -9.90531  -9.90450  -9.90449
 Alpha  occ. eigenvalues --   -9.90427  -2.92202  -1.72607  -1.72107  -1.71905
 Alpha  occ. eigenvalues --   -0.97202  -0.96210  -0.93683  -0.90157  -0.89350
 Alpha  occ. eigenvalues --   -0.88581  -0.87579  -0.86713  -0.85824  -0.85285
 Alpha  occ. eigenvalues --   -0.76287  -0.73269  -0.73267  -0.72948  -0.72793
 Alpha  occ. eigenvalues --   -0.72602  -0.71834  -0.71506  -0.70631  -0.70536
 Alpha  occ. eigenvalues --   -0.69637  -0.68738  -0.68276  -0.67686  -0.67371
 Alpha  occ. eigenvalues --   -0.66331  -0.66081  -0.65286  -0.64910  -0.64757
 Alpha  occ. eigenvalues --   -0.64395  -0.62950  -0.62193  -0.61927  -0.61193
 Alpha  occ. eigenvalues --   -0.60367  -0.60020  -0.59899  -0.59178  -0.58923
 Alpha  occ. eigenvalues --   -0.58639  -0.57553  -0.56826  -0.55545  -0.54632
 Alpha  occ. eigenvalues --   -0.54107  -0.53589  -0.52879  -0.52731  -0.52308
 Alpha  occ. eigenvalues --   -0.51646  -0.51407  -0.51399  -0.51028  -0.49530
 Alpha  occ. eigenvalues --   -0.49241  -0.48757  -0.48526  -0.48009  -0.46967
 Alpha  occ. eigenvalues --   -0.46689  -0.46164  -0.45751  -0.45228  -0.44664
 Alpha  occ. eigenvalues --   -0.43719  -0.43354  -0.43134  -0.42648  -0.42589
 Alpha  occ. eigenvalues --   -0.42449  -0.42026  -0.41815  -0.41414  -0.41225
 Alpha  occ. eigenvalues --   -0.40982  -0.40565  -0.40355  -0.40212  -0.40098
 Alpha  occ. eigenvalues --   -0.40013  -0.39741  -0.39626  -0.39527  -0.39378
 Alpha  occ. eigenvalues --   -0.39201  -0.38969  -0.38645  -0.38413  -0.38234
 Alpha  occ. eigenvalues --   -0.38139  -0.38075  -0.37937  -0.37778  -0.37623
 Alpha  occ. eigenvalues --   -0.37567  -0.37240  -0.36966  -0.36788  -0.36696
 Alpha  occ. eigenvalues --   -0.36453  -0.36135  -0.35847  -0.35764  -0.35618
 Alpha  occ. eigenvalues --   -0.35509  -0.35376  -0.35167  -0.35038  -0.34710
 Alpha  occ. eigenvalues --   -0.34588  -0.34463  -0.34239  -0.34025  -0.33983
 Alpha  occ. eigenvalues --   -0.33910  -0.33775  -0.33699  -0.33630  -0.33481
 Alpha  occ. eigenvalues --   -0.33008  -0.32859  -0.32693  -0.32541  -0.32330
 Alpha  occ. eigenvalues --   -0.32204  -0.32103  -0.31986  -0.31712  -0.31555
 Alpha  occ. eigenvalues --   -0.31320  -0.31253  -0.31215  -0.30971  -0.30810
 Alpha  occ. eigenvalues --   -0.30736  -0.30552  -0.30427  -0.30328  -0.30238
 Alpha  occ. eigenvalues --   -0.30138  -0.29874  -0.29569  -0.29253  -0.28949
 Alpha  occ. eigenvalues --   -0.28805  -0.28497  -0.28233  -0.27993  -0.27808
 Alpha  occ. eigenvalues --   -0.27480  -0.27323  -0.27185  -0.26933  -0.26814
 Alpha  occ. eigenvalues --   -0.26790  -0.26098  -0.26074  -0.25824  -0.25432
 Alpha  occ. eigenvalues --   -0.24923  -0.24490  -0.24099  -0.23985  -0.23762
 Alpha  occ. eigenvalues --   -0.23715  -0.23130  -0.22553  -0.21662  -0.20798
 Alpha  occ. eigenvalues --   -0.20561  -0.19464  -0.18913  -0.18099  -0.17783
 Alpha  occ. eigenvalues --   -0.16382
 Alpha virt. eigenvalues --   -0.12177  -0.07170  -0.06360  -0.04863  -0.03830
 Alpha virt. eigenvalues --   -0.03688  -0.03140  -0.02187  -0.01815  -0.00149
 Alpha virt. eigenvalues --    0.01059   0.01349   0.02141   0.02171   0.02741

 Mulliken charges:
               1
     1  Mg   0.701355
     2  C    0.079616
     3  C   -0.055705
     4  C   -0.025508
     5  C   -0.092189
     6  N   -0.227633
     7  C   -0.129538
     8  C    0.022718
     9  C    0.033940
    10  C    0.028042
    11  C    0.132789
    12  C    0.121670
    13  C    0.102044
    14  C    0.112898
    15  O   -0.200033
    16  O   -0.296726
    17  N   -0.302198
    18  C    0.133037
    19  C   -0.122004
    20  C    0.041951
    21  C    0.120207
    22  C    0.174345
    23  C   -0.094207
    24  O   -0.207370
    25  C    0.165565
    26  N   -0.157356
    27  C   -0.037503
    28  C    0.059863
    29  C    0.050455
    30  C    0.002922
    31  C    0.107267
    32  C    0.107130
    33  C    0.050217
    34  N   -0.285080
    35  C    0.103162
    36  C   -0.189739
    37  C    0.046297
    38  C    0.078129
    39  C    0.186314
    40  C   -0.060437
    41  O   -0.080209
    42  C    0.078362
    43  C    0.105174
    44  O   -0.175804
    45  O   -0.302723
    46  C    0.220561
    47  C    0.338540
    48  C   -0.115271
    49  C   -0.195304
    50  C    0.189347
    51  C    0.125816
    52  C    0.046001
    53  C    0.092533
    54  C   -0.079655
    55  C    0.082476
    56  C    0.061163
    57  C    0.105892
    58  C    0.130931
    59  C   -0.087418
    60  C    0.098318
    61  C    0.124962
    62  C    0.019692
    63  C    0.108046
    64  C   -0.089166
    65  C    0.125808
    66  C    0.103815
    67  H   -0.053925
    68  H   -0.108803
    69  H   -0.047942
    70  H   -0.020149
    71  H   -0.019910
    72  H   -0.007719
    73  H   -0.022529
    74  H   -0.000697
    75  H   -0.019511
    76  H   -0.009136
    77  H    0.006887
    78  H    0.020761
    79  H   -0.013709
    80  H   -0.001687
    81  H    0.007161
    82  H    0.019008
    83  H    0.016497
    84  H   -0.000158
    85  H   -0.017702
    86  H   -0.015735
    87  H   -0.009647
    88  H   -0.021458
    89  H   -0.010157
    90  H   -0.023738
    91  H   -0.030075
    92  H   -0.015311
    93  H   -0.021946
    94  H   -0.004680
    95  H    0.010620
    96  H    0.003759
    97  H    0.000067
    98  H   -0.001322
    99  H    0.006584
   100  H    0.004649
   101  H    0.023222
   102  H    0.009279
   103  H   -0.024010
   104  H   -0.043489
   105  H   -0.000446
   106  H    0.002107
   107  H    0.013118
   108  H   -0.013175
   109  H   -0.036998
   110  H   -0.029299
   111  H   -0.006356
   112  H   -0.030859
   113  H   -0.043221
   114  H   -0.044366
   115  H   -0.017984
   116  H   -0.010506
   117  H   -0.017441
   118  H   -0.027909
   119  H   -0.031850
   120  H   -0.011068
   121  H   -0.018483
   122  H   -0.046112
   123  H   -0.022668
   124  H   -0.033465
   125  H   -0.022451
   126  H   -0.013000
   127  H   -0.027693
   128  H   -0.027826
   129  H   -0.036067
   130  H   -0.043274
   131  H   -0.033695
   132  H   -0.045222
   133  H   -0.049919
   134  H   -0.034197
   135  H   -0.026715
   136  H   -0.007502
   137  H   -0.030014
   138  H   -0.016352
   139  H   -0.009655
   140  H   -0.023379
 Sum of Mulliken charges =  -0.00000

 Dipole moment (field-independent basis, Debye):
    X=             -1.2969    Y=              4.1755    Z=              0.5077  Tot=              4.4016
 Quadrupole moment (field-independent basis, Debye-Ang):
   XX=           -382.6944   YY=           -454.4562   ZZ=           -393.8385
   XY=            -44.6457   XZ=             -1.3392   YZ=            -33.9105

 Normal termination of Gaussian 16 at Fri Apr 29 23:10:49 2022.
