 Gaussian 16, Revision A.03,
 Gaussian 16:  ES64L-G16RevA.03 25-Dec-2016

 -----------------------------------
 #p cam-b3lyp/Def2SVP td=(nstates=5)
 -----------------------------------

 ------------------------------------------------------
 step_501_chromophore_2 TDDFT with cam-b3lyp functional
 ------------------------------------------------------
 Symbolic Z-matrix:
 Charge =  0 Multiplicity = 1

                         Standard orientation:
 ---------------------------------------------------------------------
 Center     Atomic      Atomic             Coordinates (Angstroms)
 Number     Number       Type             X           Y           Z
 ---------------------------------------------------------------------
      1         12           0       -4.805850    1.098646    0.424595
      2          6           0       -4.418630   -2.391710   -0.059344
      3          6           0       -1.898900    1.055641    2.178279
      4          6           0       -4.767361    4.488352    0.164215
      5          6           0       -7.447349    1.011732   -1.817652
      6          7           0       -3.311361   -0.553836    0.801913
      7          6           0       -3.367562   -1.910790    0.624152
      8          6           0       -2.223230   -2.604357    1.264790
      9          6           0       -1.630969   -1.491867    2.251843
     10          6           0       -2.288182   -0.262649    1.723730
     11          6           0       -1.954199   -1.794301    3.706162
     12          6           0       -1.307623   -3.109939    0.138879
     13          6           0       -0.935488   -4.652462    0.131654
     14          6           0        0.548604   -5.127681    0.113150
     15          8           0        0.954903   -6.083190   -0.551241
     16          8           0        1.496565   -4.307134    0.773697
     17          7           0       -3.576238    2.613435    1.090944
     18          6           0       -2.451483    2.368363    1.890871
     19          6           0       -1.976565    3.631152    2.371250
     20          6           0       -2.763401    4.679197    1.784638
     21          6           0       -3.805881    3.934750    1.028613
     22          6           0       -0.819034    3.705144    3.358693
     23          6           0       -2.611574    6.176971    1.929134
     24          8           0       -1.729275    6.514769    2.770513
     25          6           0       -3.306064    7.308074    1.119133
     26          7           0       -5.958357    2.589707   -0.673810
     27          6           0       -5.763303    3.923655   -0.581902
     28          6           0       -6.722565    4.745137   -1.483399
     29          6           0       -7.660045    3.616013   -2.034657
     30          6           0       -6.930225    2.293266   -1.504944
     31          6           0       -7.434146    5.794833   -0.648693
     32          6           0       -7.812911    3.578107   -3.524611
     33          6           0       -9.191463    3.943205   -4.004428
     34          7           0       -5.872591   -0.307510   -0.573743
     35          6           0       -6.977765   -0.258546   -1.432788
     36          6           0       -7.490578   -1.507363   -1.684883
     37          6           0       -6.537335   -2.387291   -1.132908
     38          6           0       -5.543006   -1.610265   -0.543022
     39          6           0       -8.854643   -1.747551   -2.296428
     40          6           0       -6.254424   -3.824154   -0.874208
     41          8           0       -6.900276   -4.784038   -1.160527
     42          6           0       -4.812369   -3.792369   -0.240374
     43          6           0       -4.796798   -4.818779    0.871328
     44          8           0       -4.261272   -5.924624    0.795390
     45          8           0       -5.438503   -4.305025    2.024377
     46          6           0       -5.339718   -5.211387    3.168047
     47          6           0        2.891499   -4.734229    0.701110
     48          6           0        3.631493   -3.572310    0.022490
     49          6           0        3.984565   -3.468618   -1.327372
     50          6           0        3.877393   -4.498224   -2.350336
     51          6           0        4.642354   -2.139394   -1.697504
     52          6           0        5.742349   -1.581860   -0.717021
     53          6           0        6.892127   -0.966992   -1.618243
     54          6           0        6.971136    0.565642   -1.312293
     55          6           0        7.868917    1.199428   -2.456605
     56          6           0        7.446206    1.095345    0.125367
     57          6           0        8.624992    0.250534    0.755259
     58          6           0        9.492940    1.138154    1.596894
     59          6           0       10.983680    0.956347    1.325872
     60          6           0       11.812746    1.607018    2.436485
     61          6           0       11.438135    1.630529   -0.071809
     62          6           0       12.205626    0.671984   -0.979801
     63          6           0       13.304653    1.313535   -1.830691
     64          6           0       14.649558    1.460230   -1.066156
     65          6           0       15.086094    2.898477   -0.749385
     66          6           0       15.772048    0.718160   -1.767603
     67          1           0       -1.098562    1.028669    2.921040
     68          1           0       -4.853986    5.576991    0.132420
     69          1           0       -8.111323    0.923228   -2.679326
     70          1           0       -2.589325   -3.461933    1.829413
     71          1           0       -0.546915   -1.484074    2.141591
     72          1           0       -2.945393   -2.223475    3.846025
     73          1           0       -1.986576   -0.850720    4.251891
     74          1           0       -1.201774   -2.403966    4.206375
     75          1           0       -0.385595   -2.531444    0.194546
     76          1           0       -1.652940   -2.847771   -0.861185
     77          1           0       -1.402453   -4.951054   -0.807260
     78          1           0       -1.533864   -5.196561    0.861460
     79          1           0        0.032005    3.120180    3.009872
     80          1           0       -1.181633    3.253051    4.281781
     81          1           0       -0.360683    4.680825    3.525871
     82          1           0       -4.340576    7.253758    1.456651
     83          1           0       -3.225825    7.073445    0.057650
     84          1           0       -2.850473    8.284261    1.287372
     85          1           0       -6.224338    5.280389   -2.291320
     86          1           0       -8.608148    3.626234   -1.497595
     87          1           0       -6.674750    6.344189   -0.091996
     88          1           0       -8.102330    5.281260    0.043336
     89          1           0       -8.127419    6.482688   -1.131288
     90          1           0       -7.639205    2.592791   -3.957145
     91          1           0       -7.130438    4.199764   -4.103823
     92          1           0       -9.089793    4.749957   -4.729269
     93          1           0       -9.816889    4.360485   -3.215237
     94          1           0       -9.761763    3.105283   -4.406773
     95          1           0       -9.110230   -2.781271   -2.061406
     96          1           0       -8.853801   -1.609451   -3.377381
     97          1           0       -9.505011   -1.018229   -1.814023
     98          1           0       -4.215796   -4.263572   -1.022363
     99          1           0       -5.390846   -4.653380    4.103085
    100          1           0       -4.351609   -5.664914    3.231641
    101          1           0       -6.078590   -6.012845    3.143728
    102          1           0        3.028041   -5.666103    0.152147
    103          1           0        3.227163   -4.787209    1.737482
    104          1           0        3.862600   -2.709301    0.647298
    105          1           0        3.320012   -3.997245   -3.142296
    106          1           0        3.261877   -5.303113   -1.950585
    107          1           0        4.911430   -4.739361   -2.599174
    108          1           0        3.911700   -1.345045   -1.548065
    109          1           0        4.981766   -2.153584   -2.732808
    110          1           0        6.151451   -2.475368   -0.245031
    111          1           0        5.394443   -0.918079    0.074282
    112          1           0        6.795154   -1.122262   -2.692190
    113          1           0        7.845038   -1.449368   -1.400682
    114          1           0        5.929480    0.835870   -1.487103
    115          1           0        8.160045    2.225711   -2.231136
    116          1           0        7.416695    1.099107   -3.443187
    117          1           0        8.839347    0.703828   -2.483920
    118          1           0        6.600399    1.222924    0.801811
    119          1           0        7.759936    2.109362   -0.118662
    120          1           0        9.201772   -0.079422   -0.108753
    121          1           0        8.124586   -0.556070    1.291182
    122          1           0        9.384197    0.808658    2.629822
    123          1           0        9.309551    2.209732    1.525130
    124          1           0       11.283654   -0.090788    1.358450
    125          1           0       11.259923    2.456181    2.838442
    126          1           0       12.846125    1.903728    2.260292
    127          1           0       11.859414    0.835851    3.205036
    128          1           0       12.063285    2.519052    0.013828
    129          1           0       10.550334    1.879622   -0.653254
    130          1           0       11.486267    0.218655   -1.661853
    131          1           0       12.667868   -0.218615   -0.554735
    132          1           0       12.909064    2.246339   -2.232580
    133          1           0       13.390261    0.673685   -2.707739
    134          1           0       14.522695    1.092678   -0.048073
    135          1           0       15.111056    2.983835    0.337392
    136          1           0       14.374868    3.607609   -1.172929
    137          1           0       16.138825    2.960220   -1.023296
    138          1           0       16.606294    0.749837   -1.066368
    139          1           0       16.014201    1.101040   -2.758901
    140          1           0       15.504972   -0.321087   -1.955450
 ---------------------------------------------------------------------

 SCF Done:  E(RCAM-B3LYP) =  -3007.17167213     A.U. after   16 cycles

 Excitation energies and oscillator strengths:

 Excited State   1:      Singlet-A      1.6832 eV  736.61 nm  f=0.3547  <S**2>=0.000
     245 -> 248       -0.17391
     246 -> 247        0.68688
     245 <- 248       -0.10799
 This state for optimization and/or second-order correction.
 Total Energy, E(TD-HF/TD-DFT) =  -3007.10981690
 Copying the excited state density for this state as the 1-particle RhoCI density.

 Excited State   2:      Singlet-A      2.2211 eV  558.21 nm  f=0.1598  <S**2>=0.000
     245 -> 247        0.64853
     246 -> 248        0.26723

 Excited State   3:      Singlet-A      3.2220 eV  384.80 nm  f=0.0021  <S**2>=0.000
     242 -> 247       -0.21852
     243 -> 247        0.64923

 Excited State   4:      Singlet-A      3.2971 eV  376.04 nm  f=0.0028  <S**2>=0.000
     241 -> 247        0.37264
     241 -> 248       -0.14016
     241 -> 249       -0.29730
     241 -> 250        0.10795
     241 -> 251       -0.13415
     242 -> 247        0.41889
     243 -> 249       -0.10297

 Excited State   5:      Singlet-A      3.3796 eV  366.86 nm  f=0.0033  <S**2>=0.000
     241 -> 247       -0.38656
     241 -> 249        0.15631
     242 -> 247        0.48300
     243 -> 247        0.22527
     246 -> 248       -0.10654

 The electronic state is 1-A.
 Alpha  occ. eigenvalues --  -46.89114 -19.25796 -19.23858 -19.21212 -19.19959
 Alpha  occ. eigenvalues --  -19.19662 -19.18399 -14.42485 -14.42332 -14.40192
 Alpha  occ. eigenvalues --  -14.39106 -10.40544 -10.39942 -10.35757 -10.35594
 Alpha  occ. eigenvalues --  -10.32094 -10.31801 -10.31216 -10.31100 -10.30957
 Alpha  occ. eigenvalues --  -10.30773 -10.30746 -10.30681 -10.29170 -10.28958
 Alpha  occ. eigenvalues --  -10.28643 -10.28606 -10.28491 -10.28490 -10.28457
 Alpha  occ. eigenvalues --  -10.28418 -10.28258 -10.28070 -10.27832 -10.27609
 Alpha  occ. eigenvalues --  -10.27458 -10.27442 -10.27394 -10.27134 -10.26950
 Alpha  occ. eigenvalues --  -10.26861 -10.26663 -10.26571 -10.26369 -10.26095
 Alpha  occ. eigenvalues --  -10.26027 -10.25565 -10.25489 -10.25465 -10.25415
 Alpha  occ. eigenvalues --  -10.25394 -10.25324 -10.25268 -10.25186 -10.25121
 Alpha  occ. eigenvalues --  -10.25050 -10.25008 -10.24946 -10.24684 -10.24554
 Alpha  occ. eigenvalues --  -10.24507 -10.24271 -10.24183 -10.24082 -10.24037
 Alpha  occ. eigenvalues --  -10.24014  -3.17677  -1.92558  -1.92138  -1.91982
 Alpha  occ. eigenvalues --   -1.15772  -1.14614  -1.12148  -1.08141  -1.07724
 Alpha  occ. eigenvalues --   -1.06368  -1.05354  -1.04387  -1.03471  -1.02866
 Alpha  occ. eigenvalues --   -0.93452  -0.90097  -0.90017  -0.89726  -0.89528
 Alpha  occ. eigenvalues --   -0.89385  -0.88518  -0.88149  -0.87115  -0.87094
 Alpha  occ. eigenvalues --   -0.86163  -0.85244  -0.84524  -0.83890  -0.83568
 Alpha  occ. eigenvalues --   -0.82414  -0.82219  -0.81336  -0.80676  -0.80599
 Alpha  occ. eigenvalues --   -0.80178  -0.78600  -0.77783  -0.77519  -0.76662
 Alpha  occ. eigenvalues --   -0.75696  -0.75373  -0.75186  -0.74450  -0.74157
 Alpha  occ. eigenvalues --   -0.73735  -0.72520  -0.71721  -0.70304  -0.69266
 Alpha  occ. eigenvalues --   -0.68738  -0.68141  -0.67392  -0.67117  -0.66467
 Alpha  occ. eigenvalues --   -0.65857  -0.65742  -0.65480  -0.65086  -0.63270
 Alpha  occ. eigenvalues --   -0.63213  -0.62471  -0.62426  -0.61766  -0.60645
 Alpha  occ. eigenvalues --   -0.60343  -0.59716  -0.59084  -0.58748  -0.58167
 Alpha  occ. eigenvalues --   -0.57130  -0.56601  -0.56313  -0.55975  -0.55847
 Alpha  occ. eigenvalues --   -0.55295  -0.55102  -0.54686  -0.54515  -0.54103
 Alpha  occ. eigenvalues --   -0.53683  -0.53323  -0.53281  -0.52960  -0.52862
 Alpha  occ. eigenvalues --   -0.52745  -0.52549  -0.52379  -0.52181  -0.52025
 Alpha  occ. eigenvalues --   -0.51875  -0.51752  -0.51313  -0.50837  -0.50600
 Alpha  occ. eigenvalues --   -0.50501  -0.50475  -0.50298  -0.50106  -0.49934
 Alpha  occ. eigenvalues --   -0.49848  -0.49693  -0.49407  -0.49059  -0.49009
 Alpha  occ. eigenvalues --   -0.48782  -0.48526  -0.48022  -0.47793  -0.47647
 Alpha  occ. eigenvalues --   -0.47458  -0.47385  -0.47244  -0.46988  -0.46689
 Alpha  occ. eigenvalues --   -0.46482  -0.46345  -0.46220  -0.46071  -0.45858
 Alpha  occ. eigenvalues --   -0.45703  -0.45647  -0.45580  -0.45414  -0.45268
 Alpha  occ. eigenvalues --   -0.44746  -0.44516  -0.44248  -0.44118  -0.44039
 Alpha  occ. eigenvalues --   -0.43853  -0.43705  -0.43575  -0.43171  -0.42910
 Alpha  occ. eigenvalues --   -0.42785  -0.42668  -0.42633  -0.42522  -0.42400
 Alpha  occ. eigenvalues --   -0.42165  -0.42033  -0.41918  -0.41730  -0.41654
 Alpha  occ. eigenvalues --   -0.41527  -0.41317  -0.40777  -0.40510  -0.40148
 Alpha  occ. eigenvalues --   -0.40013  -0.39641  -0.39142  -0.39005  -0.38697
 Alpha  occ. eigenvalues --   -0.38469  -0.38341  -0.38175  -0.37941  -0.37523
 Alpha  occ. eigenvalues --   -0.37510  -0.37410  -0.37123  -0.36785  -0.36101
 Alpha  occ. eigenvalues --   -0.35659  -0.35536  -0.34962  -0.34821  -0.34781
 Alpha  occ. eigenvalues --   -0.34140  -0.33870  -0.33292  -0.31856  -0.31243
 Alpha  occ. eigenvalues --   -0.30679  -0.30120  -0.29893  -0.28311  -0.24530
 Alpha  occ. eigenvalues --   -0.21748
 Alpha virt. eigenvalues --   -0.09433  -0.01940   0.00128   0.01700   0.02279
 Alpha virt. eigenvalues --    0.03862   0.04024   0.05204   0.05726   0.06416
 Alpha virt. eigenvalues --    0.07560   0.08177   0.08347   0.08535   0.08845

 Mulliken charges:
               1
     1  Mg   0.834617
     2  C    0.052386
     3  C   -0.069284
     4  C   -0.042564
     5  C   -0.089042
     6  N   -0.294227
     7  C   -0.087812
     8  C   -0.023433
     9  C   -0.024969
    10  C    0.046053
    11  C    0.077032
    12  C    0.070499
    13  C    0.030591
    14  C    0.197753
    15  O   -0.242751
    16  O   -0.362486
    17  N   -0.389640
    18  C    0.137978
    19  C   -0.128906
    20  C   -0.023552
    21  C    0.152926
    22  C    0.116445
    23  C   -0.019941
    24  O   -0.248287
    25  C    0.085871
    26  N   -0.230539
    27  C   -0.019055
    28  C    0.006634
    29  C   -0.010674
    30  C    0.025202
    31  C    0.054964
    32  C    0.043010
    33  C   -0.008664
    34  N   -0.375592
    35  C    0.100271
    36  C   -0.182686
    37  C   -0.033575
    38  C    0.116145
    39  C    0.133520
    40  C    0.043412
    41  O   -0.119671
    42  C    0.000743
    43  C    0.187344
    44  O   -0.212963
    45  O   -0.362764
    46  C    0.180087
    47  C    0.301428
    48  C   -0.141740
    49  C   -0.206811
    50  C    0.122464
    51  C    0.069648
    52  C   -0.012172
    53  C    0.040860
    54  C   -0.130306
    55  C    0.027453
    56  C    0.012116
    57  C    0.052449
    58  C    0.072611
    59  C   -0.139952
    60  C    0.042990
    61  C    0.072142
    62  C   -0.027541
    63  C    0.050177
    64  C   -0.148156
    65  C    0.064476
    66  C    0.043524
    67  H   -0.018194
    68  H   -0.075784
    69  H   -0.015917
    70  H    0.012198
    71  H    0.017517
    72  H    0.015384
    73  H    0.003256
    74  H    0.025424
    75  H    0.014025
    76  H    0.023912
    77  H    0.040042
    78  H    0.049987
    79  H    0.012455
    80  H    0.024095
    81  H    0.040205
    82  H    0.042684
    83  H    0.043411
    84  H    0.036653
    85  H    0.016412
    86  H    0.018957
    87  H    0.011232
    88  H    0.003457
    89  H    0.016594
    90  H    0.007562
    91  H    0.001300
    92  H    0.009250
    93  H    0.000985
    94  H    0.018559
    95  H    0.037482
    96  H    0.029059
    97  H    0.025066
    98  H    0.039030
    99  H    0.029395
   100  H    0.027326
   101  H    0.046101
   102  H    0.041971
   103  H    0.006008
   104  H   -0.010950
   105  H    0.023605
   106  H    0.026362
   107  H    0.036285
   108  H    0.016645
   109  H   -0.007308
   110  H    0.002138
   111  H    0.018036
   112  H   -0.002084
   113  H   -0.014225
   114  H   -0.012714
   115  H    0.005663
   116  H    0.014710
   117  H    0.000729
   118  H   -0.000035
   119  H   -0.004766
   120  H    0.009905
   121  H    0.009519
   122  H   -0.014403
   123  H    0.005359
   124  H   -0.001802
   125  H    0.001776
   126  H    0.009322
   127  H   -0.002926
   128  H   -0.001549
   129  H   -0.011704
   130  H   -0.016202
   131  H   -0.006960
   132  H   -0.016254
   133  H   -0.017735
   134  H   -0.003608
   135  H   -0.003265
   136  H    0.015616
   137  H   -0.002820
   138  H    0.007433
   139  H    0.014241
   140  H    0.000805
 Sum of Mulliken charges =  -0.00000

 Dipole moment (field-independent basis, Debye):
    X=             -1.3765    Y=              4.7278    Z=              0.6661  Tot=              4.9689
 Quadrupole moment (field-independent basis, Debye-Ang):
   XX=           -381.3659   YY=           -451.2758   ZZ=           -392.4872
   XY=            -47.7429   XZ=             -0.7975   YZ=            -35.4601

 Normal termination of Gaussian 16 at Fri Apr 29 21:53:17 2022.
