 Gaussian 16, Revision A.03,
 Gaussian 16:  ES64L-G16RevA.03 25-Dec-2016

 ---------------------------------
 #p PBE1PBE/Def2SVP td=(nstates=5)
 ---------------------------------

 ----------------------------------------------------
 step_501_chromophore_2 TDDFT with PBE1PBE functional
 ----------------------------------------------------
 Symbolic Z-matrix:
 Charge =  0 Multiplicity = 1

                         Standard orientation:
 ---------------------------------------------------------------------
 Center     Atomic      Atomic             Coordinates (Angstroms)
 Number     Number       Type             X           Y           Z
 ---------------------------------------------------------------------
      1         12           0       -4.805850    1.098646    0.424595
      2          6           0       -4.418630   -2.391710   -0.059344
      3          6           0       -1.898900    1.055641    2.178279
      4          6           0       -4.767361    4.488352    0.164215
      5          6           0       -7.447349    1.011732   -1.817652
      6          7           0       -3.311361   -0.553836    0.801913
      7          6           0       -3.367562   -1.910790    0.624152
      8          6           0       -2.223230   -2.604357    1.264790
      9          6           0       -1.630969   -1.491867    2.251843
     10          6           0       -2.288182   -0.262649    1.723730
     11          6           0       -1.954199   -1.794301    3.706162
     12          6           0       -1.307623   -3.109939    0.138879
     13          6           0       -0.935488   -4.652462    0.131654
     14          6           0        0.548604   -5.127681    0.113150
     15          8           0        0.954903   -6.083190   -0.551241
     16          8           0        1.496565   -4.307134    0.773697
     17          7           0       -3.576238    2.613435    1.090944
     18          6           0       -2.451483    2.368363    1.890871
     19          6           0       -1.976565    3.631152    2.371250
     20          6           0       -2.763401    4.679197    1.784638
     21          6           0       -3.805881    3.934750    1.028613
     22          6           0       -0.819034    3.705144    3.358693
     23          6           0       -2.611574    6.176971    1.929134
     24          8           0       -1.729275    6.514769    2.770513
     25          6           0       -3.306064    7.308074    1.119133
     26          7           0       -5.958357    2.589707   -0.673810
     27          6           0       -5.763303    3.923655   -0.581902
     28          6           0       -6.722565    4.745137   -1.483399
     29          6           0       -7.660045    3.616013   -2.034657
     30          6           0       -6.930225    2.293266   -1.504944
     31          6           0       -7.434146    5.794833   -0.648693
     32          6           0       -7.812911    3.578107   -3.524611
     33          6           0       -9.191463    3.943205   -4.004428
     34          7           0       -5.872591   -0.307510   -0.573743
     35          6           0       -6.977765   -0.258546   -1.432788
     36          6           0       -7.490578   -1.507363   -1.684883
     37          6           0       -6.537335   -2.387291   -1.132908
     38          6           0       -5.543006   -1.610265   -0.543022
     39          6           0       -8.854643   -1.747551   -2.296428
     40          6           0       -6.254424   -3.824154   -0.874208
     41          8           0       -6.900276   -4.784038   -1.160527
     42          6           0       -4.812369   -3.792369   -0.240374
     43          6           0       -4.796798   -4.818779    0.871328
     44          8           0       -4.261272   -5.924624    0.795390
     45          8           0       -5.438503   -4.305025    2.024377
     46          6           0       -5.339718   -5.211387    3.168047
     47          6           0        2.891499   -4.734229    0.701110
     48          6           0        3.631493   -3.572310    0.022490
     49          6           0        3.984565   -3.468618   -1.327372
     50          6           0        3.877393   -4.498224   -2.350336
     51          6           0        4.642354   -2.139394   -1.697504
     52          6           0        5.742349   -1.581860   -0.717021
     53          6           0        6.892127   -0.966992   -1.618243
     54          6           0        6.971136    0.565642   -1.312293
     55          6           0        7.868917    1.199428   -2.456605
     56          6           0        7.446206    1.095345    0.125367
     57          6           0        8.624992    0.250534    0.755259
     58          6           0        9.492940    1.138154    1.596894
     59          6           0       10.983680    0.956347    1.325872
     60          6           0       11.812746    1.607018    2.436485
     61          6           0       11.438135    1.630529   -0.071809
     62          6           0       12.205626    0.671984   -0.979801
     63          6           0       13.304653    1.313535   -1.830691
     64          6           0       14.649558    1.460230   -1.066156
     65          6           0       15.086094    2.898477   -0.749385
     66          6           0       15.772048    0.718160   -1.767603
     67          1           0       -1.098562    1.028669    2.921040
     68          1           0       -4.853986    5.576991    0.132420
     69          1           0       -8.111323    0.923228   -2.679326
     70          1           0       -2.589325   -3.461933    1.829413
     71          1           0       -0.546915   -1.484074    2.141591
     72          1           0       -2.945393   -2.223475    3.846025
     73          1           0       -1.986576   -0.850720    4.251891
     74          1           0       -1.201774   -2.403966    4.206375
     75          1           0       -0.385595   -2.531444    0.194546
     76          1           0       -1.652940   -2.847771   -0.861185
     77          1           0       -1.402453   -4.951054   -0.807260
     78          1           0       -1.533864   -5.196561    0.861460
     79          1           0        0.032005    3.120180    3.009872
     80          1           0       -1.181633    3.253051    4.281781
     81          1           0       -0.360683    4.680825    3.525871
     82          1           0       -4.340576    7.253758    1.456651
     83          1           0       -3.225825    7.073445    0.057650
     84          1           0       -2.850473    8.284261    1.287372
     85          1           0       -6.224338    5.280389   -2.291320
     86          1           0       -8.608148    3.626234   -1.497595
     87          1           0       -6.674750    6.344189   -0.091996
     88          1           0       -8.102330    5.281260    0.043336
     89          1           0       -8.127419    6.482688   -1.131288
     90          1           0       -7.639205    2.592791   -3.957145
     91          1           0       -7.130438    4.199764   -4.103823
     92          1           0       -9.089793    4.749957   -4.729269
     93          1           0       -9.816889    4.360485   -3.215237
     94          1           0       -9.761763    3.105283   -4.406773
     95          1           0       -9.110230   -2.781271   -2.061406
     96          1           0       -8.853801   -1.609451   -3.377381
     97          1           0       -9.505011   -1.018229   -1.814023
     98          1           0       -4.215796   -4.263572   -1.022363
     99          1           0       -5.390846   -4.653380    4.103085
    100          1           0       -4.351609   -5.664914    3.231641
    101          1           0       -6.078590   -6.012845    3.143728
    102          1           0        3.028041   -5.666103    0.152147
    103          1           0        3.227163   -4.787209    1.737482
    104          1           0        3.862600   -2.709301    0.647298
    105          1           0        3.320012   -3.997245   -3.142296
    106          1           0        3.261877   -5.303113   -1.950585
    107          1           0        4.911430   -4.739361   -2.599174
    108          1           0        3.911700   -1.345045   -1.548065
    109          1           0        4.981766   -2.153584   -2.732808
    110          1           0        6.151451   -2.475368   -0.245031
    111          1           0        5.394443   -0.918079    0.074282
    112          1           0        6.795154   -1.122262   -2.692190
    113          1           0        7.845038   -1.449368   -1.400682
    114          1           0        5.929480    0.835870   -1.487103
    115          1           0        8.160045    2.225711   -2.231136
    116          1           0        7.416695    1.099107   -3.443187
    117          1           0        8.839347    0.703828   -2.483920
    118          1           0        6.600399    1.222924    0.801811
    119          1           0        7.759936    2.109362   -0.118662
    120          1           0        9.201772   -0.079422   -0.108753
    121          1           0        8.124586   -0.556070    1.291182
    122          1           0        9.384197    0.808658    2.629822
    123          1           0        9.309551    2.209732    1.525130
    124          1           0       11.283654   -0.090788    1.358450
    125          1           0       11.259923    2.456181    2.838442
    126          1           0       12.846125    1.903728    2.260292
    127          1           0       11.859414    0.835851    3.205036
    128          1           0       12.063285    2.519052    0.013828
    129          1           0       10.550334    1.879622   -0.653254
    130          1           0       11.486267    0.218655   -1.661853
    131          1           0       12.667868   -0.218615   -0.554735
    132          1           0       12.909064    2.246339   -2.232580
    133          1           0       13.390261    0.673685   -2.707739
    134          1           0       14.522695    1.092678   -0.048073
    135          1           0       15.111056    2.983835    0.337392
    136          1           0       14.374868    3.607609   -1.172929
    137          1           0       16.138825    2.960220   -1.023296
    138          1           0       16.606294    0.749837   -1.066368
    139          1           0       16.014201    1.101040   -2.758901
    140          1           0       15.504972   -0.321087   -1.955450
 ---------------------------------------------------------------------

 SCF Done:  E(RPBE1PBE) =  -3005.36106368     A.U. after   15 cycles

 Excitation energies and oscillator strengths:

 Excited State   1:      Singlet-A      1.8479 eV  670.94 nm  f=0.3366  <S**2>=0.000
     245 -> 248        0.16613
     246 -> 247        0.69435
     246 <- 247       -0.11260
 This state for optimization and/or second-order correction.
 Total Energy, E(TD-HF/TD-DFT) =  -3005.29315352
 Copying the excited state density for this state as the 1-particle RhoCI density.

 Excited State   2:      Singlet-A      2.2353 eV  554.67 nm  f=0.1567  <S**2>=0.000
     245 -> 247        0.65769
     246 -> 248       -0.24165

 Excited State   3:      Singlet-A      2.7867 eV  444.92 nm  f=0.0006  <S**2>=0.000
     241 -> 247       -0.10348
     243 -> 247        0.65464
     243 -> 249       -0.15944

 Excited State   4:      Singlet-A      2.8612 eV  433.33 nm  f=0.0000  <S**2>=0.000
     244 -> 247        0.70517

 Excited State   5:      Singlet-A      2.9126 eV  425.69 nm  f=0.0022  <S**2>=0.000
     241 -> 247       -0.11537
     242 -> 247        0.67565

 The electronic state is 1-A.
 Alpha  occ. eigenvalues --  -46.92506 -19.26440 -19.24592 -19.21450 -19.20192
 Alpha  occ. eigenvalues --  -19.19959 -19.18603 -14.42028 -14.41773 -14.39795
 Alpha  occ. eigenvalues --  -14.38824 -10.37591 -10.36996 -10.32916 -10.32780
 Alpha  occ. eigenvalues --  -10.29775 -10.29022 -10.28994 -10.28622 -10.28525
 Alpha  occ. eigenvalues --  -10.28397 -10.28395 -10.28373 -10.26892 -10.26737
 Alpha  occ. eigenvalues --  -10.26376 -10.26274 -10.26261 -10.26259 -10.26116
 Alpha  occ. eigenvalues --  -10.26101 -10.25891 -10.25773 -10.25524 -10.25417
 Alpha  occ. eigenvalues --  -10.25125 -10.25080 -10.24759 -10.24718 -10.24620
 Alpha  occ. eigenvalues --  -10.24437 -10.24118 -10.24028 -10.23855 -10.23834
 Alpha  occ. eigenvalues --  -10.23631 -10.23262 -10.23127 -10.23024 -10.23001
 Alpha  occ. eigenvalues --  -10.22994 -10.22889 -10.22710 -10.22688 -10.22675
 Alpha  occ. eigenvalues --  -10.22657 -10.22648 -10.22594 -10.22238 -10.22048
 Alpha  occ. eigenvalues --  -10.21997 -10.21737 -10.21646 -10.21609 -10.21429
 Alpha  occ. eigenvalues --  -10.21401  -3.14648  -1.87469  -1.87028  -1.86877
 Alpha  occ. eigenvalues --   -1.10510  -1.09417  -1.06950  -1.02975  -1.02395
 Alpha  occ. eigenvalues --   -1.01252  -0.99968  -0.99050  -0.98095  -0.97505
 Alpha  occ. eigenvalues --   -0.87816  -0.84272  -0.84196  -0.83897  -0.83751
 Alpha  occ. eigenvalues --   -0.83667  -0.82620  -0.82455  -0.81502  -0.81217
 Alpha  occ. eigenvalues --   -0.80429  -0.79496  -0.78824  -0.78081  -0.77808
 Alpha  occ. eigenvalues --   -0.76646  -0.76382  -0.75515  -0.74996  -0.74869
 Alpha  occ. eigenvalues --   -0.74362  -0.72881  -0.72094  -0.71786  -0.70958
 Alpha  occ. eigenvalues --   -0.70045  -0.69466  -0.69383  -0.68582  -0.68323
 Alpha  occ. eigenvalues --   -0.68183  -0.66912  -0.66100  -0.64629  -0.63590
 Alpha  occ. eigenvalues --   -0.63173  -0.62329  -0.61876  -0.61328  -0.60808
 Alpha  occ. eigenvalues --   -0.60316  -0.60053  -0.59924  -0.59641  -0.57815
 Alpha  occ. eigenvalues --   -0.57322  -0.57007  -0.56605  -0.56034  -0.55176
 Alpha  occ. eigenvalues --   -0.54848  -0.54318  -0.53747  -0.53113  -0.52812
 Alpha  occ. eigenvalues --   -0.51597  -0.51071  -0.50885  -0.50474  -0.50391
 Alpha  occ. eigenvalues --   -0.49612  -0.49562  -0.49237  -0.49046  -0.48666
 Alpha  occ. eigenvalues --   -0.48250  -0.47914  -0.47830  -0.47586  -0.47346
 Alpha  occ. eigenvalues --   -0.47163  -0.47014  -0.46912  -0.46667  -0.46529
 Alpha  occ. eigenvalues --   -0.46358  -0.46225  -0.45880  -0.45419  -0.45205
 Alpha  occ. eigenvalues --   -0.45075  -0.45065  -0.44844  -0.44672  -0.44529
 Alpha  occ. eigenvalues --   -0.44436  -0.44238  -0.43992  -0.43669  -0.43620
 Alpha  occ. eigenvalues --   -0.43421  -0.43169  -0.42668  -0.42471  -0.42285
 Alpha  occ. eigenvalues --   -0.42106  -0.41992  -0.41919  -0.41720  -0.41404
 Alpha  occ. eigenvalues --   -0.41173  -0.41036  -0.40862  -0.40811  -0.40566
 Alpha  occ. eigenvalues --   -0.40362  -0.40351  -0.40273  -0.40057  -0.40043
 Alpha  occ. eigenvalues --   -0.39497  -0.39317  -0.38951  -0.38901  -0.38756
 Alpha  occ. eigenvalues --   -0.38545  -0.38494  -0.38351  -0.38031  -0.37665
 Alpha  occ. eigenvalues --   -0.37591  -0.37435  -0.37374  -0.37356  -0.37229
 Alpha  occ. eigenvalues --   -0.36985  -0.36843  -0.36706  -0.36503  -0.36423
 Alpha  occ. eigenvalues --   -0.36371  -0.36177  -0.35561  -0.35269  -0.35049
 Alpha  occ. eigenvalues --   -0.34756  -0.34504  -0.33974  -0.33928  -0.33447
 Alpha  occ. eigenvalues --   -0.33412  -0.33305  -0.32977  -0.32793  -0.32527
 Alpha  occ. eigenvalues --   -0.32379  -0.32360  -0.32171  -0.31575  -0.31053
 Alpha  occ. eigenvalues --   -0.30501  -0.30388  -0.29965  -0.29915  -0.29768
 Alpha  occ. eigenvalues --   -0.29075  -0.28966  -0.28713  -0.27495  -0.26266
 Alpha  occ. eigenvalues --   -0.25760  -0.25577  -0.25183  -0.23695  -0.21481
 Alpha  occ. eigenvalues --   -0.19367
 Alpha virt. eigenvalues --   -0.11837  -0.05460  -0.04071  -0.02222  -0.01073
 Alpha virt. eigenvalues --   -0.00739  -0.00475   0.00748   0.01197   0.02780
 Alpha virt. eigenvalues --    0.03821   0.04279   0.04936   0.05052   0.05554

 Mulliken charges:
               1
     1  Mg   0.980843
     2  C    0.040946
     3  C   -0.057836
     4  C   -0.044605
     5  C   -0.074292
     6  N   -0.389883
     7  C   -0.022654
     8  C   -0.090755
     9  C   -0.107274
    10  C    0.078161
    11  C    0.021403
    12  C    0.030868
    13  C   -0.046201
    14  C    0.261280
    15  O   -0.274916
    16  O   -0.390094
    17  N   -0.505844
    18  C    0.157026
    19  C   -0.158196
    20  C   -0.069708
    21  C    0.188709
    22  C    0.058889
    23  C    0.029353
    24  O   -0.279531
    25  C    0.005083
    26  N   -0.341648
    27  C    0.020503
    28  C   -0.071917
    29  C   -0.091586
    30  C    0.068553
    31  C   -0.002015
    32  C   -0.014304
    33  C   -0.077142
    34  N   -0.500539
    35  C    0.112827
    36  C   -0.192299
    37  C   -0.083049
    38  C    0.160546
    39  C    0.075551
    40  C    0.142348
    41  O   -0.168085
    42  C   -0.095642
    43  C    0.266356
    44  O   -0.248175
    45  O   -0.389387
    46  C    0.124569
    47  C    0.253935
    48  C   -0.157346
    49  C   -0.239673
    50  C    0.049852
    51  C    0.012046
    52  C   -0.081252
    53  C   -0.007761
    54  C   -0.215686
    55  C   -0.037114
    56  C   -0.037780
    57  C   -0.018575
    58  C    0.016475
    59  C   -0.226367
    60  C   -0.016617
    61  C    0.014183
    62  C   -0.092437
    63  C   -0.004669
    64  C   -0.237262
    65  C    0.003929
    66  C   -0.023643
    67  H    0.011739
    68  H   -0.037601
    69  H    0.014492
    70  H    0.054685
    71  H    0.052110
    72  H    0.043027
    73  H    0.032117
    74  H    0.053011
    75  H    0.046765
    76  H    0.055718
    77  H    0.071916
    78  H    0.080807
    79  H    0.039869
    80  H    0.052376
    81  H    0.067415
    82  H    0.069817
    83  H    0.069320
    84  H    0.063941
    85  H    0.052084
    86  H    0.055129
    87  H    0.041032
    88  H    0.031426
    89  H    0.044876
    90  H    0.040209
    91  H    0.033394
    92  H    0.036888
    93  H    0.028657
    94  H    0.045309
    95  H    0.066035
    96  H    0.056898
    97  H    0.052624
    98  H    0.078463
    99  H    0.051244
   100  H    0.048509
   101  H    0.068596
   102  H    0.067370
   103  H    0.035097
   104  H    0.020062
   105  H    0.052769
   106  H    0.055417
   107  H    0.064534
   108  H    0.052183
   109  H    0.023319
   110  H    0.037192
   111  H    0.048388
   112  H    0.029086
   113  H    0.017850
   114  H    0.028110
   115  H    0.032990
   116  H    0.042891
   117  H    0.030533
   118  H    0.031270
   119  H    0.027606
   120  H    0.046141
   121  H    0.042521
   122  H    0.020482
   123  H    0.036085
   124  H    0.034738
   125  H    0.029573
   126  H    0.037244
   127  H    0.025913
   128  H    0.032316
   129  H    0.025455
   130  H    0.018475
   131  H    0.025138
   132  H    0.016174
   133  H    0.015235
   134  H    0.035203
   135  H    0.024634
   136  H    0.041513
   137  H    0.025174
   138  H    0.035991
   139  H    0.042170
   140  H    0.029779
 Sum of Mulliken charges =  -0.00000

 Dipole moment (field-independent basis, Debye):
    X=             -1.3837    Y=              4.6463    Z=              0.5986  Tot=              4.8848
 Quadrupole moment (field-independent basis, Debye-Ang):
   XX=           -376.2622   YY=           -449.0095   ZZ=           -389.0833
   XY=            -48.0472   XZ=              0.2624   YZ=            -35.8435

 Normal termination of Gaussian 16 at Fri Apr 29 22:22:34 2022.
