 Gaussian 16, Revision A.03,
 Gaussian 16:  ES64L-G16RevA.03 25-Dec-2016

 --------------------------------
 #p wB97XD/Def2SVP td=(nstates=5)
 --------------------------------

 ---------------------------------------------------
 step_501_chromophore_2 TDDFT with wB97XD functional
 ---------------------------------------------------
 Symbolic Z-matrix:
 Charge =  0 Multiplicity = 1

                         Standard orientation:
 ---------------------------------------------------------------------
 Center     Atomic      Atomic             Coordinates (Angstroms)
 Number     Number       Type             X           Y           Z
 ---------------------------------------------------------------------
      1         12           0       -4.805850    1.098646    0.424595
      2          6           0       -4.418630   -2.391710   -0.059344
      3          6           0       -1.898900    1.055641    2.178279
      4          6           0       -4.767361    4.488352    0.164215
      5          6           0       -7.447349    1.011732   -1.817652
      6          7           0       -3.311361   -0.553836    0.801913
      7          6           0       -3.367562   -1.910790    0.624152
      8          6           0       -2.223230   -2.604357    1.264790
      9          6           0       -1.630969   -1.491867    2.251843
     10          6           0       -2.288182   -0.262649    1.723730
     11          6           0       -1.954199   -1.794301    3.706162
     12          6           0       -1.307623   -3.109939    0.138879
     13          6           0       -0.935488   -4.652462    0.131654
     14          6           0        0.548604   -5.127681    0.113150
     15          8           0        0.954903   -6.083190   -0.551241
     16          8           0        1.496565   -4.307134    0.773697
     17          7           0       -3.576238    2.613435    1.090944
     18          6           0       -2.451483    2.368363    1.890871
     19          6           0       -1.976565    3.631152    2.371250
     20          6           0       -2.763401    4.679197    1.784638
     21          6           0       -3.805881    3.934750    1.028613
     22          6           0       -0.819034    3.705144    3.358693
     23          6           0       -2.611574    6.176971    1.929134
     24          8           0       -1.729275    6.514769    2.770513
     25          6           0       -3.306064    7.308074    1.119133
     26          7           0       -5.958357    2.589707   -0.673810
     27          6           0       -5.763303    3.923655   -0.581902
     28          6           0       -6.722565    4.745137   -1.483399
     29          6           0       -7.660045    3.616013   -2.034657
     30          6           0       -6.930225    2.293266   -1.504944
     31          6           0       -7.434146    5.794833   -0.648693
     32          6           0       -7.812911    3.578107   -3.524611
     33          6           0       -9.191463    3.943205   -4.004428
     34          7           0       -5.872591   -0.307510   -0.573743
     35          6           0       -6.977765   -0.258546   -1.432788
     36          6           0       -7.490578   -1.507363   -1.684883
     37          6           0       -6.537335   -2.387291   -1.132908
     38          6           0       -5.543006   -1.610265   -0.543022
     39          6           0       -8.854643   -1.747551   -2.296428
     40          6           0       -6.254424   -3.824154   -0.874208
     41          8           0       -6.900276   -4.784038   -1.160527
     42          6           0       -4.812369   -3.792369   -0.240374
     43          6           0       -4.796798   -4.818779    0.871328
     44          8           0       -4.261272   -5.924624    0.795390
     45          8           0       -5.438503   -4.305025    2.024377
     46          6           0       -5.339718   -5.211387    3.168047
     47          6           0        2.891499   -4.734229    0.701110
     48          6           0        3.631493   -3.572310    0.022490
     49          6           0        3.984565   -3.468618   -1.327372
     50          6           0        3.877393   -4.498224   -2.350336
     51          6           0        4.642354   -2.139394   -1.697504
     52          6           0        5.742349   -1.581860   -0.717021
     53          6           0        6.892127   -0.966992   -1.618243
     54          6           0        6.971136    0.565642   -1.312293
     55          6           0        7.868917    1.199428   -2.456605
     56          6           0        7.446206    1.095345    0.125367
     57          6           0        8.624992    0.250534    0.755259
     58          6           0        9.492940    1.138154    1.596894
     59          6           0       10.983680    0.956347    1.325872
     60          6           0       11.812746    1.607018    2.436485
     61          6           0       11.438135    1.630529   -0.071809
     62          6           0       12.205626    0.671984   -0.979801
     63          6           0       13.304653    1.313535   -1.830691
     64          6           0       14.649558    1.460230   -1.066156
     65          6           0       15.086094    2.898477   -0.749385
     66          6           0       15.772048    0.718160   -1.767603
     67          1           0       -1.098562    1.028669    2.921040
     68          1           0       -4.853986    5.576991    0.132420
     69          1           0       -8.111323    0.923228   -2.679326
     70          1           0       -2.589325   -3.461933    1.829413
     71          1           0       -0.546915   -1.484074    2.141591
     72          1           0       -2.945393   -2.223475    3.846025
     73          1           0       -1.986576   -0.850720    4.251891
     74          1           0       -1.201774   -2.403966    4.206375
     75          1           0       -0.385595   -2.531444    0.194546
     76          1           0       -1.652940   -2.847771   -0.861185
     77          1           0       -1.402453   -4.951054   -0.807260
     78          1           0       -1.533864   -5.196561    0.861460
     79          1           0        0.032005    3.120180    3.009872
     80          1           0       -1.181633    3.253051    4.281781
     81          1           0       -0.360683    4.680825    3.525871
     82          1           0       -4.340576    7.253758    1.456651
     83          1           0       -3.225825    7.073445    0.057650
     84          1           0       -2.850473    8.284261    1.287372
     85          1           0       -6.224338    5.280389   -2.291320
     86          1           0       -8.608148    3.626234   -1.497595
     87          1           0       -6.674750    6.344189   -0.091996
     88          1           0       -8.102330    5.281260    0.043336
     89          1           0       -8.127419    6.482688   -1.131288
     90          1           0       -7.639205    2.592791   -3.957145
     91          1           0       -7.130438    4.199764   -4.103823
     92          1           0       -9.089793    4.749957   -4.729269
     93          1           0       -9.816889    4.360485   -3.215237
     94          1           0       -9.761763    3.105283   -4.406773
     95          1           0       -9.110230   -2.781271   -2.061406
     96          1           0       -8.853801   -1.609451   -3.377381
     97          1           0       -9.505011   -1.018229   -1.814023
     98          1           0       -4.215796   -4.263572   -1.022363
     99          1           0       -5.390846   -4.653380    4.103085
    100          1           0       -4.351609   -5.664914    3.231641
    101          1           0       -6.078590   -6.012845    3.143728
    102          1           0        3.028041   -5.666103    0.152147
    103          1           0        3.227163   -4.787209    1.737482
    104          1           0        3.862600   -2.709301    0.647298
    105          1           0        3.320012   -3.997245   -3.142296
    106          1           0        3.261877   -5.303113   -1.950585
    107          1           0        4.911430   -4.739361   -2.599174
    108          1           0        3.911700   -1.345045   -1.548065
    109          1           0        4.981766   -2.153584   -2.732808
    110          1           0        6.151451   -2.475368   -0.245031
    111          1           0        5.394443   -0.918079    0.074282
    112          1           0        6.795154   -1.122262   -2.692190
    113          1           0        7.845038   -1.449368   -1.400682
    114          1           0        5.929480    0.835870   -1.487103
    115          1           0        8.160045    2.225711   -2.231136
    116          1           0        7.416695    1.099107   -3.443187
    117          1           0        8.839347    0.703828   -2.483920
    118          1           0        6.600399    1.222924    0.801811
    119          1           0        7.759936    2.109362   -0.118662
    120          1           0        9.201772   -0.079422   -0.108753
    121          1           0        8.124586   -0.556070    1.291182
    122          1           0        9.384197    0.808658    2.629822
    123          1           0        9.309551    2.209732    1.525130
    124          1           0       11.283654   -0.090788    1.358450
    125          1           0       11.259923    2.456181    2.838442
    126          1           0       12.846125    1.903728    2.260292
    127          1           0       11.859414    0.835851    3.205036
    128          1           0       12.063285    2.519052    0.013828
    129          1           0       10.550334    1.879622   -0.653254
    130          1           0       11.486267    0.218655   -1.661853
    131          1           0       12.667868   -0.218615   -0.554735
    132          1           0       12.909064    2.246339   -2.232580
    133          1           0       13.390261    0.673685   -2.707739
    134          1           0       14.522695    1.092678   -0.048073
    135          1           0       15.111056    2.983835    0.337392
    136          1           0       14.374868    3.607609   -1.172929
    137          1           0       16.138825    2.960220   -1.023296
    138          1           0       16.606294    0.749837   -1.066368
    139          1           0       16.014201    1.101040   -2.758901
    140          1           0       15.504972   -0.321087   -1.955450
 ---------------------------------------------------------------------

 SCF Done:  E(RwB97XD) =  -3007.87173898     A.U. after   20 cycles

 Excitation energies and oscillator strengths:

 Excited State   1:      Singlet-A      1.6243 eV  763.29 nm  f=0.3541  <S**2>=0.000
     245 -> 248       -0.17970
     246 -> 247        0.68484
     245 <- 248       -0.11752
 This state for optimization and/or second-order correction.
 Total Energy, E(TD-HF/TD-DFT) =  -3007.81204546
 Copying the excited state density for this state as the 1-particle RhoCI density.

 Excited State   2:      Singlet-A      2.1650 eV  572.67 nm  f=0.1557  <S**2>=0.000
     245 -> 247        0.64631
     246 -> 248        0.27053

 Excited State   3:      Singlet-A      3.2319 eV  383.63 nm  f=0.0021  <S**2>=0.000
     242 -> 247       -0.23965
     242 -> 249        0.10237
     243 -> 247        0.63836

 Excited State   4:      Singlet-A      3.3132 eV  374.21 nm  f=0.0018  <S**2>=0.000
     241 -> 247        0.31566
     241 -> 248       -0.13368
     241 -> 249        0.30785
     241 -> 250        0.16449
     242 -> 247        0.41738
     242 -> 249        0.13779
     243 -> 249        0.14265

 Excited State   5:      Singlet-A      3.4088 eV  363.72 nm  f=0.0010  <S**2>=0.000
     241 -> 247        0.44444
     241 -> 249        0.14441
     242 -> 247       -0.43726
     243 -> 247       -0.20422
     246 -> 248        0.13968

 The electronic state is 1-A.
 Alpha  occ. eigenvalues --  -46.95463 -19.31020 -19.29118 -19.26163 -19.24979
 Alpha  occ. eigenvalues --  -19.24619 -19.23455 -14.47099 -14.46919 -14.44800
 Alpha  occ. eigenvalues --  -14.43715 -10.44432 -10.43781 -10.39767 -10.39599
 Alpha  occ. eigenvalues --  -10.36164 -10.35534 -10.35209 -10.34994 -10.34984
 Alpha  occ. eigenvalues --  -10.34844 -10.34815 -10.34678 -10.33167 -10.32956
 Alpha  occ. eigenvalues --  -10.32811 -10.32650 -10.32525 -10.32524 -10.32522
 Alpha  occ. eigenvalues --  -10.32520 -10.32188 -10.32113 -10.31962 -10.31691
 Alpha  occ. eigenvalues --  -10.31483 -10.31418 -10.31338 -10.31182 -10.30935
 Alpha  occ. eigenvalues --  -10.30910 -10.30532 -10.30449 -10.30247 -10.30101
 Alpha  occ. eigenvalues --  -10.29942 -10.29545 -10.29456 -10.29411 -10.29353
 Alpha  occ. eigenvalues --  -10.29351 -10.29228 -10.29126 -10.29065 -10.29046
 Alpha  occ. eigenvalues --  -10.29015 -10.28937 -10.28908 -10.28615 -10.28431
 Alpha  occ. eigenvalues --  -10.28410 -10.28089 -10.28084 -10.27973 -10.27859
 Alpha  occ. eigenvalues --  -10.27818  -3.21468  -1.95038  -1.94597  -1.94441
 Alpha  occ. eigenvalues --   -1.17930  -1.16787  -1.14380  -1.10354  -1.09946
 Alpha  occ. eigenvalues --   -1.08589  -1.07354  -1.06403  -1.05506  -1.04917
 Alpha  occ. eigenvalues --   -0.95417  -0.91861  -0.91858  -0.91534  -0.91387
 Alpha  occ. eigenvalues --   -0.91302  -0.90277  -0.90072  -0.89062  -0.88879
 Alpha  occ. eigenvalues --   -0.88102  -0.87188  -0.86423  -0.85733  -0.85459
 Alpha  occ. eigenvalues --   -0.84318  -0.84067  -0.83254  -0.82619  -0.82508
 Alpha  occ. eigenvalues --   -0.82016  -0.80510  -0.79730  -0.79440  -0.78592
 Alpha  occ. eigenvalues --   -0.77646  -0.77158  -0.77033  -0.76262  -0.75988
 Alpha  occ. eigenvalues --   -0.75724  -0.74483  -0.73674  -0.72232  -0.71176
 Alpha  occ. eigenvalues --   -0.70718  -0.69990  -0.69422  -0.68975  -0.68356
 Alpha  occ. eigenvalues --   -0.67835  -0.67574  -0.67502  -0.67092  -0.65252
 Alpha  occ. eigenvalues --   -0.65012  -0.64465  -0.64247  -0.63633  -0.62635
 Alpha  occ. eigenvalues --   -0.62303  -0.61722  -0.61082  -0.60626  -0.60186
 Alpha  occ. eigenvalues --   -0.59055  -0.58512  -0.58297  -0.57929  -0.57829
 Alpha  occ. eigenvalues --   -0.57134  -0.56999  -0.56620  -0.56443  -0.56044
 Alpha  occ. eigenvalues --   -0.55584  -0.55268  -0.55216  -0.54887  -0.54740
 Alpha  occ. eigenvalues --   -0.54601  -0.54426  -0.54326  -0.54125  -0.53918
 Alpha  occ. eigenvalues --   -0.53810  -0.53616  -0.53235  -0.52757  -0.52519
 Alpha  occ. eigenvalues --   -0.52413  -0.52397  -0.52234  -0.52003  -0.51880
 Alpha  occ. eigenvalues --   -0.51764  -0.51559  -0.51306  -0.50947  -0.50932
 Alpha  occ. eigenvalues --   -0.50690  -0.50445  -0.49935  -0.49742  -0.49543
 Alpha  occ. eigenvalues --   -0.49349  -0.49253  -0.49187  -0.48941  -0.48631
 Alpha  occ. eigenvalues --   -0.48435  -0.48239  -0.48092  -0.47984  -0.47795
 Alpha  occ. eigenvalues --   -0.47574  -0.47534  -0.47507  -0.47288  -0.47251
 Alpha  occ. eigenvalues --   -0.46680  -0.46440  -0.46090  -0.46035  -0.45954
 Alpha  occ. eigenvalues --   -0.45723  -0.45659  -0.45470  -0.45094  -0.44771
 Alpha  occ. eigenvalues --   -0.44685  -0.44558  -0.44533  -0.44446  -0.44321
 Alpha  occ. eigenvalues --   -0.44069  -0.43921  -0.43838  -0.43629  -0.43547
 Alpha  occ. eigenvalues --   -0.43464  -0.43287  -0.42648  -0.42367  -0.42039
 Alpha  occ. eigenvalues --   -0.41846  -0.41518  -0.40994  -0.40887  -0.40515
 Alpha  occ. eigenvalues --   -0.40378  -0.40267  -0.40019  -0.39804  -0.39630
 Alpha  occ. eigenvalues --   -0.39451  -0.39392  -0.39086  -0.38605  -0.38001
 Alpha  occ. eigenvalues --   -0.37612  -0.37366  -0.36850  -0.36795  -0.36688
 Alpha  occ. eigenvalues --   -0.35973  -0.35809  -0.35566  -0.34079  -0.33232
 Alpha  occ. eigenvalues --   -0.32646  -0.32264  -0.32056  -0.30354  -0.26439
 Alpha  occ. eigenvalues --   -0.23564
 Alpha virt. eigenvalues --   -0.07796  -0.00024   0.02218   0.04326   0.04886
 Alpha virt. eigenvalues --    0.06041   0.06217   0.07474   0.08029   0.09248
 Alpha virt. eigenvalues --    0.10250   0.11077   0.11651   0.11670   0.12250

 Mulliken charges:
               1
     1  Mg   0.972276
     2  C    0.036032
     3  C   -0.077379
     4  C   -0.047270
     5  C   -0.092527
     6  N   -0.358905
     7  C   -0.048200
     8  C   -0.063526
     9  C   -0.080224
    10  C    0.067893
    11  C    0.029596
    12  C    0.036333
    13  C   -0.030062
    14  C    0.253006
    15  O   -0.272865
    16  O   -0.390333
    17  N   -0.473537
    18  C    0.150784
    19  C   -0.148731
    20  C   -0.062983
    21  C    0.180354
    22  C    0.070467
    23  C    0.021592
    24  O   -0.276096
    25  C    0.023642
    26  N   -0.303353
    27  C    0.005200
    28  C   -0.045785
    29  C   -0.064875
    30  C    0.055265
    31  C    0.009274
    32  C   -0.003072
    33  C   -0.061568
    34  N   -0.466469
    35  C    0.108350
    36  C   -0.190430
    37  C   -0.079608
    38  C    0.147495
    39  C    0.086712
    40  C    0.122854
    41  O   -0.158647
    42  C   -0.059809
    43  C    0.245614
    44  O   -0.242228
    45  O   -0.390137
    46  C    0.140161
    47  C    0.270092
    48  C   -0.164250
    49  C   -0.228918
    50  C    0.067568
    51  C    0.028305
    52  C   -0.061020
    53  C    0.004191
    54  C   -0.181958
    55  C   -0.020227
    56  C   -0.027243
    57  C    0.008366
    58  C    0.030811
    59  C   -0.194829
    60  C   -0.004725
    61  C    0.032384
    62  C   -0.071072
    63  C    0.008408
    64  C   -0.208981
    65  C    0.014893
    66  C   -0.008382
    67  H    0.006174
    68  H   -0.060278
    69  H    0.007228
    70  H    0.035046
    71  H    0.045402
    72  H    0.037395
    73  H    0.024593
    74  H    0.048998
    75  H    0.038639
    76  H    0.048400
    77  H    0.066791
    78  H    0.074375
    79  H    0.034246
    80  H    0.046997
    81  H    0.065150
    82  H    0.062979
    83  H    0.064270
    84  H    0.063703
    85  H    0.043604
    86  H    0.043224
    87  H    0.033506
    88  H    0.024489
    89  H    0.040408
    90  H    0.031030
    91  H    0.026742
    92  H    0.031460
    93  H    0.020936
    94  H    0.040085
    95  H    0.062504
    96  H    0.052313
    97  H    0.046568
    98  H    0.070103
    99  H    0.047779
   100  H    0.043123
   101  H    0.065071
   102  H    0.061837
   103  H    0.031447
   104  H    0.014713
   105  H    0.046619
   106  H    0.047807
   107  H    0.058986
   108  H    0.042389
   109  H    0.015038
   110  H    0.025953
   111  H    0.038870
   112  H    0.019793
   113  H    0.009201
   114  H    0.014478
   115  H    0.026657
   116  H    0.037904
   117  H    0.019262
   118  H    0.024931
   119  H    0.015461
   120  H    0.023973
   121  H    0.035772
   122  H    0.012212
   123  H    0.026493
   124  H    0.023425
   125  H    0.022871
   126  H    0.031363
   127  H    0.019420
   128  H    0.020431
   129  H    0.009931
   130  H    0.009034
   131  H    0.014368
   132  H    0.007097
   133  H    0.007897
   134  H    0.021068
   135  H    0.018928
   136  H    0.035913
   137  H    0.019221
   138  H    0.029509
   139  H    0.036017
   140  H    0.022967
 Sum of Mulliken charges =  -0.00000

 Dipole moment (field-independent basis, Debye):
    X=             -1.3691    Y=              4.8308    Z=              0.7415  Tot=              5.0756
 Quadrupole moment (field-independent basis, Debye-Ang):
   XX=           -376.4448   YY=           -447.6814   ZZ=           -388.6584
   XY=            -48.2512   XZ=             -0.3255   YZ=            -35.7416

 Normal termination of Gaussian 16 at Fri Apr 29 22:57:17 2022.
