 Gaussian 16, Revision A.03,
 Gaussian 16:  ES64L-G16RevA.03 25-Dec-2016

 --------------------
 #p ZINDO=(nstates=5)
 --------------------

 ----------------------------
 step_501_chromophore_2 ZINDO
 ----------------------------
 Symbolic Z-matrix:
 Charge =  0 Multiplicity = 1

                         Standard orientation:
 ---------------------------------------------------------------------
 Center     Atomic      Atomic             Coordinates (Angstroms)
 Number     Number       Type             X           Y           Z
 ---------------------------------------------------------------------
      1         12           0       -4.805850    1.098646    0.424595
      2          6           0       -4.418630   -2.391710   -0.059344
      3          6           0       -1.898900    1.055641    2.178279
      4          6           0       -4.767361    4.488352    0.164215
      5          6           0       -7.447349    1.011732   -1.817652
      6          7           0       -3.311361   -0.553836    0.801913
      7          6           0       -3.367562   -1.910790    0.624152
      8          6           0       -2.223230   -2.604357    1.264790
      9          6           0       -1.630969   -1.491867    2.251843
     10          6           0       -2.288182   -0.262649    1.723730
     11          6           0       -1.954199   -1.794301    3.706162
     12          6           0       -1.307623   -3.109939    0.138879
     13          6           0       -0.935488   -4.652462    0.131654
     14          6           0        0.548604   -5.127681    0.113150
     15          8           0        0.954903   -6.083190   -0.551241
     16          8           0        1.496565   -4.307134    0.773697
     17          7           0       -3.576238    2.613435    1.090944
     18          6           0       -2.451483    2.368363    1.890871
     19          6           0       -1.976565    3.631152    2.371250
     20          6           0       -2.763401    4.679197    1.784638
     21          6           0       -3.805881    3.934750    1.028613
     22          6           0       -0.819034    3.705144    3.358693
     23          6           0       -2.611574    6.176971    1.929134
     24          8           0       -1.729275    6.514769    2.770513
     25          6           0       -3.306064    7.308074    1.119133
     26          7           0       -5.958357    2.589707   -0.673810
     27          6           0       -5.763303    3.923655   -0.581902
     28          6           0       -6.722565    4.745137   -1.483399
     29          6           0       -7.660045    3.616013   -2.034657
     30          6           0       -6.930225    2.293266   -1.504944
     31          6           0       -7.434146    5.794833   -0.648693
     32          6           0       -7.812911    3.578107   -3.524611
     33          6           0       -9.191463    3.943205   -4.004428
     34          7           0       -5.872591   -0.307510   -0.573743
     35          6           0       -6.977765   -0.258546   -1.432788
     36          6           0       -7.490578   -1.507363   -1.684883
     37          6           0       -6.537335   -2.387291   -1.132908
     38          6           0       -5.543006   -1.610265   -0.543022
     39          6           0       -8.854643   -1.747551   -2.296428
     40          6           0       -6.254424   -3.824154   -0.874208
     41          8           0       -6.900276   -4.784038   -1.160527
     42          6           0       -4.812369   -3.792369   -0.240374
     43          6           0       -4.796798   -4.818779    0.871328
     44          8           0       -4.261272   -5.924624    0.795390
     45          8           0       -5.438503   -4.305025    2.024377
     46          6           0       -5.339718   -5.211387    3.168047
     47          6           0        2.891499   -4.734229    0.701110
     48          6           0        3.631493   -3.572310    0.022490
     49          6           0        3.984565   -3.468618   -1.327372
     50          6           0        3.877393   -4.498224   -2.350336
     51          6           0        4.642354   -2.139394   -1.697504
     52          6           0        5.742349   -1.581860   -0.717021
     53          6           0        6.892127   -0.966992   -1.618243
     54          6           0        6.971136    0.565642   -1.312293
     55          6           0        7.868917    1.199428   -2.456605
     56          6           0        7.446206    1.095345    0.125367
     57          6           0        8.624992    0.250534    0.755259
     58          6           0        9.492940    1.138154    1.596894
     59          6           0       10.983680    0.956347    1.325872
     60          6           0       11.812746    1.607018    2.436485
     61          6           0       11.438135    1.630529   -0.071809
     62          6           0       12.205626    0.671984   -0.979801
     63          6           0       13.304653    1.313535   -1.830691
     64          6           0       14.649558    1.460230   -1.066156
     65          6           0       15.086094    2.898477   -0.749385
     66          6           0       15.772048    0.718160   -1.767603
     67          1           0       -1.098562    1.028669    2.921040
     68          1           0       -4.853986    5.576991    0.132420
     69          1           0       -8.111323    0.923228   -2.679326
     70          1           0       -2.589325   -3.461933    1.829413
     71          1           0       -0.546915   -1.484074    2.141591
     72          1           0       -2.945393   -2.223475    3.846025
     73          1           0       -1.986576   -0.850720    4.251891
     74          1           0       -1.201774   -2.403966    4.206375
     75          1           0       -0.385595   -2.531444    0.194546
     76          1           0       -1.652940   -2.847771   -0.861185
     77          1           0       -1.402453   -4.951054   -0.807260
     78          1           0       -1.533864   -5.196561    0.861460
     79          1           0        0.032005    3.120180    3.009872
     80          1           0       -1.181633    3.253051    4.281781
     81          1           0       -0.360683    4.680825    3.525871
     82          1           0       -4.340576    7.253758    1.456651
     83          1           0       -3.225825    7.073445    0.057650
     84          1           0       -2.850473    8.284261    1.287372
     85          1           0       -6.224338    5.280389   -2.291320
     86          1           0       -8.608148    3.626234   -1.497595
     87          1           0       -6.674750    6.344189   -0.091996
     88          1           0       -8.102330    5.281260    0.043336
     89          1           0       -8.127419    6.482688   -1.131288
     90          1           0       -7.639205    2.592791   -3.957145
     91          1           0       -7.130438    4.199764   -4.103823
     92          1           0       -9.089793    4.749957   -4.729269
     93          1           0       -9.816889    4.360485   -3.215237
     94          1           0       -9.761763    3.105283   -4.406773
     95          1           0       -9.110230   -2.781271   -2.061406
     96          1           0       -8.853801   -1.609451   -3.377381
     97          1           0       -9.505011   -1.018229   -1.814023
     98          1           0       -4.215796   -4.263572   -1.022363
     99          1           0       -5.390846   -4.653380    4.103085
    100          1           0       -4.351609   -5.664914    3.231641
    101          1           0       -6.078590   -6.012845    3.143728
    102          1           0        3.028041   -5.666103    0.152147
    103          1           0        3.227163   -4.787209    1.737482
    104          1           0        3.862600   -2.709301    0.647298
    105          1           0        3.320012   -3.997245   -3.142296
    106          1           0        3.261877   -5.303113   -1.950585
    107          1           0        4.911430   -4.739361   -2.599174
    108          1           0        3.911700   -1.345045   -1.548065
    109          1           0        4.981766   -2.153584   -2.732808
    110          1           0        6.151451   -2.475368   -0.245031
    111          1           0        5.394443   -0.918079    0.074282
    112          1           0        6.795154   -1.122262   -2.692190
    113          1           0        7.845038   -1.449368   -1.400682
    114          1           0        5.929480    0.835870   -1.487103
    115          1           0        8.160045    2.225711   -2.231136
    116          1           0        7.416695    1.099107   -3.443187
    117          1           0        8.839347    0.703828   -2.483920
    118          1           0        6.600399    1.222924    0.801811
    119          1           0        7.759936    2.109362   -0.118662
    120          1           0        9.201772   -0.079422   -0.108753
    121          1           0        8.124586   -0.556070    1.291182
    122          1           0        9.384197    0.808658    2.629822
    123          1           0        9.309551    2.209732    1.525130
    124          1           0       11.283654   -0.090788    1.358450
    125          1           0       11.259923    2.456181    2.838442
    126          1           0       12.846125    1.903728    2.260292
    127          1           0       11.859414    0.835851    3.205036
    128          1           0       12.063285    2.519052    0.013828
    129          1           0       10.550334    1.879622   -0.653254
    130          1           0       11.486267    0.218655   -1.661853
    131          1           0       12.667868   -0.218615   -0.554735
    132          1           0       12.909064    2.246339   -2.232580
    133          1           0       13.390261    0.673685   -2.707739
    134          1           0       14.522695    1.092678   -0.048073
    135          1           0       15.111056    2.983835    0.337392
    136          1           0       14.374868    3.607609   -1.172929
    137          1           0       16.138825    2.960220   -1.023296
    138          1           0       16.606294    0.749837   -1.066368
    139          1           0       16.014201    1.101040   -2.758901
    140          1           0       15.504972   -0.321087   -1.955450
 ---------------------------------------------------------------------

 SCF Done:  E(RZINDO/S) =  -474.250338091     A.U. after   19 cycles

 Excitation energies and oscillator strengths:

 Excited State   1:      Singlet-A      1.2209 eV 1015.52 nm  f=0.5976  <S**2>=0.000
     175 ->178         0.18596
     176 ->177         0.66284
 This state for optimization and/or second-order correction.
 Total Energy, E(CIS/TDA) =  -474.205471180
 Copying the excited state density for this state as the 1-particle RhoCI density.

 Excited State   2:      Singlet-A      1.9328 eV  641.48 nm  f=0.0745  <S**2>=0.000
     175 ->177         0.56320
     176 ->178        -0.39945

 Excited State   3:      Singlet-A      2.8185 eV  439.89 nm  f=0.0007  <S**2>=0.000
     168 ->177         0.28662
     168 ->178         0.20515
     168 ->179        -0.38276
     168 ->180         0.23811
     168 ->181        -0.13750
     168 ->183        -0.12053
     168 ->185         0.20409
     168 ->187         0.10871

 Excited State   4:      Singlet-A      3.0152 eV  411.20 nm  f=1.0337  <S**2>=0.000
     172 ->177         0.13480
     173 ->177         0.13589
     175 ->177         0.34598
     176 ->178         0.53220
     176 ->179        -0.15603

 Excited State   5:      Singlet-A      3.0341 eV  408.63 nm  f=0.0237  <S**2>=0.000
     169 ->177        -0.14428
     169 ->179        -0.15957
     169 ->180        -0.13976
     169 ->183         0.10928
     169 ->185         0.11684
     170 ->177        -0.21898
     170 ->179        -0.19103
     170 ->180        -0.16225
     170 ->183         0.13041
     170 ->185         0.13051
     172 ->177         0.16913
     173 ->177         0.38562

 The electronic state is 1-A.
 Alpha  occ. eigenvalues --   -1.86488  -1.82221  -1.80326  -1.72461  -1.71181
 Alpha  occ. eigenvalues --   -1.70507  -1.65512  -1.60205  -1.59617  -1.56263
 Alpha  occ. eigenvalues --   -1.55760  -1.50439  -1.49878  -1.49370  -1.46757
 Alpha  occ. eigenvalues --   -1.45273  -1.43715  -1.42868  -1.39405  -1.38144
 Alpha  occ. eigenvalues --   -1.37165  -1.35033  -1.33622  -1.30117  -1.28632
 Alpha  occ. eigenvalues --   -1.28084  -1.26964  -1.22765  -1.19605  -1.18508
 Alpha  occ. eigenvalues --   -1.16882  -1.15610  -1.14127  -1.13059  -1.12785
 Alpha  occ. eigenvalues --   -1.12186  -1.10672  -1.09982  -1.05697  -1.04791
 Alpha  occ. eigenvalues --   -1.02680  -0.99608  -0.98822  -0.97611  -0.96936
 Alpha  occ. eigenvalues --   -0.95497  -0.94897  -0.93982  -0.93403  -0.92840
 Alpha  occ. eigenvalues --   -0.92599  -0.90707  -0.89448  -0.87748  -0.86260
 Alpha  occ. eigenvalues --   -0.85128  -0.84513  -0.83542  -0.82978  -0.82003
 Alpha  occ. eigenvalues --   -0.80784  -0.78609  -0.78473  -0.77457  -0.76760
 Alpha  occ. eigenvalues --   -0.76311  -0.74305  -0.74116  -0.73668  -0.73211
 Alpha  occ. eigenvalues --   -0.72881  -0.72289  -0.71998  -0.71814  -0.70618
 Alpha  occ. eigenvalues --   -0.70339  -0.69723  -0.69356  -0.68260  -0.68063
 Alpha  occ. eigenvalues --   -0.67667  -0.67259  -0.66209  -0.65633  -0.65476
 Alpha  occ. eigenvalues --   -0.65347  -0.64720  -0.64295  -0.63892  -0.63771
 Alpha  occ. eigenvalues --   -0.63249  -0.63084  -0.62764  -0.62625  -0.62259
 Alpha  occ. eigenvalues --   -0.61944  -0.61493  -0.61340  -0.61123  -0.60292
 Alpha  occ. eigenvalues --   -0.60083  -0.59174  -0.58474  -0.58405  -0.58376
 Alpha  occ. eigenvalues --   -0.57981  -0.57803  -0.57074  -0.56846  -0.56241
 Alpha  occ. eigenvalues --   -0.56055  -0.55729  -0.55284  -0.54826  -0.54789
 Alpha  occ. eigenvalues --   -0.54446  -0.53412  -0.53265  -0.53076  -0.52692
 Alpha  occ. eigenvalues --   -0.52521  -0.52469  -0.52330  -0.52177  -0.51640
 Alpha  occ. eigenvalues --   -0.51321  -0.51127  -0.50753  -0.50722  -0.50482
 Alpha  occ. eigenvalues --   -0.50308  -0.49949  -0.49653  -0.49515  -0.49213
 Alpha  occ. eigenvalues --   -0.48943  -0.48797  -0.48600  -0.48456  -0.47785
 Alpha  occ. eigenvalues --   -0.47389  -0.47200  -0.47128  -0.47100  -0.46711
 Alpha  occ. eigenvalues --   -0.46564  -0.46460  -0.45937  -0.45722  -0.45433
 Alpha  occ. eigenvalues --   -0.45403  -0.44769  -0.44682  -0.44493  -0.44276
 Alpha  occ. eigenvalues --   -0.43522  -0.43133  -0.42943  -0.42886  -0.42706
 Alpha  occ. eigenvalues --   -0.42697  -0.41908  -0.41172  -0.39502  -0.39175
 Alpha  occ. eigenvalues --   -0.38617  -0.38014  -0.35518  -0.35128  -0.34881
 Alpha  occ. eigenvalues --   -0.33474  -0.33176  -0.32672  -0.30499  -0.27233
 Alpha  occ. eigenvalues --   -0.22407
 Alpha virt. eigenvalues --   -0.09332  -0.02479  -0.00636   0.00919   0.01224
 Alpha virt. eigenvalues --    0.01435   0.02040   0.02419   0.04404   0.04753
 Alpha virt. eigenvalues --    0.05674   0.06552   0.07278   0.07485   0.07733

 Mulliken charges:
               1
     1  Mg   0.433748
     2  C   -0.053716
     3  C   -0.088015
     4  C   -0.073076
     5  C   -0.067899
     6  N   -0.315891
     7  C    0.147367
     8  C    0.007605
     9  C    0.016145
    10  C    0.139543
    11  C   -0.044363
    12  C   -0.023241
    13  C    0.000392
    14  C    0.460442
    15  O   -0.505381
    16  O   -0.278346
    17  N   -0.314903
    18  C    0.104085
    19  C    0.049441
    20  C   -0.045296
    21  C    0.126975
    22  C   -0.038594
    23  C    0.316256
    24  O   -0.541769
    25  C   -0.019445
    26  N   -0.247390
    27  C    0.124897
    28  C    0.006275
    29  C    0.004191
    30  C    0.113632
    31  C   -0.053302
    32  C   -0.023752
    33  C   -0.058315
    34  N   -0.337667
    35  C    0.092355
    36  C    0.031811
    37  C   -0.068337
    38  C    0.125576
    39  C   -0.039446
    40  C    0.331208
    41  O   -0.494582
    42  C    0.054705
    43  C    0.481751
    44  O   -0.510180
    45  O   -0.273213
    46  C    0.075600
    47  C    0.105712
    48  C   -0.123098
    49  C    0.002555
    50  C   -0.037190
    51  C   -0.031605
    52  C   -0.038525
    53  C   -0.039835
    54  C   -0.024836
    55  C   -0.064764
    56  C   -0.040867
    57  C   -0.031605
    58  C   -0.023585
    59  C   -0.013569
    60  C   -0.062401
    61  C   -0.038272
    62  C   -0.038579
    63  C   -0.033664
    64  C   -0.012216
    65  C   -0.063907
    66  C   -0.050735
    67  H    0.029606
    68  H    0.019363
    69  H    0.024773
    70  H    0.033492
    71  H    0.035841
    72  H    0.024994
    73  H    0.015359
    74  H    0.023633
    75  H    0.021200
    76  H    0.030069
    77  H    0.039910
    78  H    0.057161
    79  H    0.019958
    80  H    0.032111
    81  H    0.043953
    82  H    0.041039
    83  H    0.034328
    84  H    0.046008
    85  H    0.036092
    86  H    0.038953
    87  H    0.021116
    88  H    0.015315
    89  H    0.020474
    90  H    0.019360
    91  H    0.020306
    92  H    0.015407
    93  H    0.012298
    94  H    0.022186
    95  H    0.035314
    96  H    0.034809
    97  H    0.030325
    98  H    0.052990
    99  H    0.027006
   100  H    0.037684
   101  H    0.051121
   102  H    0.064067
   103  H    0.033384
   104  H    0.028499
   105  H    0.031727
   106  H    0.038019
   107  H    0.041464
   108  H    0.023583
   109  H    0.024458
   110  H    0.012255
   111  H    0.036687
   112  H    0.025815
   113  H    0.012999
   114  H    0.014598
   115  H    0.014577
   116  H    0.021144
   117  H    0.014263
   118  H    0.019904
   119  H    0.017247
   120  H    0.028337
   121  H    0.029476
   122  H    0.010785
   123  H    0.029331
   124  H    0.024443
   125  H    0.016321
   126  H    0.022512
   127  H    0.006118
   128  H    0.027396
   129  H    0.017987
   130  H    0.003423
   131  H    0.018404
   132  H    0.015736
   133  H    0.011253
   134  H    0.019660
   135  H    0.011902
   136  H    0.029475
   137  H    0.023637
   138  H    0.016083
   139  H    0.023743
   140  H    0.008839
 Sum of Mulliken charges =  -0.00000

 Dipole moment (field-independent basis, Debye):
    X=             -2.1760    Y=              6.9038    Z=              0.4463  Tot=              7.2523
 N-N= 4.340863787646D+03 E-N= 0.000000000000D+00  KE=-9.355454685580D+03
 Leave Link  601 at Fri Apr 29 23:10:56 2022, MaxMem=  6710886400 cpu:               0.8 elap:               0.0
 (Enter /sw/apps/gaussian-16.0/g16/l9999.exe)
 1\1\GINC-BP1-COMPUTE139\SP\RZINDO CIS\STO-3G\C55H74Mg1N4O6\OF15641\29-
 Apr-2022\0\\#p ZINDO=(nstates=5)\\step_501_chromophore_2 ZINDO\\0,1\Mg
 ,0,2.793,-0.999,44.5\C,0,6.055,-0.174,43.384\C,0,1.606,1.424,42.439\C,
 0,-0.3,-2.339,44.944\C,0,4.154,-3.743,46.122\N,0,3.831,0.312,42.98\C,0
 ,5.152,0.583,42.74\C,0,5.326,1.715,41.797\C,0,3.882,2.406,41.789\C,0,3
 .051,1.338,42.414\C,0,3.879,3.722,42.55\C,0,5.837,1.13,40.471\C,0,7.17
 2,1.738,39.866\C,0,7.22,2.302,38.414\O,0,8.168,2.135,37.644\O,0,6.035,

 Normal termination of Gaussian 16 at Fri Apr 29 23:10:56 2022.
