 Gaussian 16, Revision A.03,
 Gaussian 16:  ES64L-G16RevA.03 25-Dec-2016

 ------------------------------
 #p blyp/Def2SVP td=(nstates=5)
 ------------------------------

 --------------------------------------------------
 step_801_chromophore_20 TDDFT with blyp functional
 --------------------------------------------------
 Symbolic Z-matrix:
 Charge =  0 Multiplicity = 1

                         Standard orientation:
 ---------------------------------------------------------------------
 Center     Atomic      Atomic             Coordinates (Angstroms)
 Number     Number       Type             X           Y           Z
 ---------------------------------------------------------------------
      1         12           0        4.059373    1.461753   -0.460534
      2          6           0        4.216148   -2.010941   -1.381641
      3          6           0        1.457320    1.814120   -2.587528
      4          6           0        3.981453    4.660370    0.424948
      5          6           0        6.865309    0.971190    1.532676
      6          7           0        2.896444   -0.002510   -1.654074
      7          6           0        2.976017   -1.388266   -1.834598
      8          6           0        1.838778   -2.010724   -2.642312
      9          6           0        1.273641   -0.722975   -3.296196
     10          6           0        1.907472    0.463123   -2.480284
     11          6           0        1.569940   -0.620244   -4.812814
     12          6           0        0.910518   -2.778545   -1.605408
     13          6           0        0.121829   -4.036031   -2.031624
     14          6           0       -0.411998   -4.882337   -0.905733
     15          8           0       -0.011328   -6.013188   -0.652768
     16          8           0       -1.365143   -4.221453   -0.150243
     17          7           0        2.784636    3.007546   -0.915200
     18          6           0        1.864139    2.946653   -1.917648
     19          6           0        1.364832    4.327987   -2.150735
     20          6           0        1.846962    5.136291   -1.079808
     21          6           0        2.994449    4.265277   -0.484435
     22          6           0        0.462557    4.767291   -3.272769
     23          6           0        1.460754    6.575668   -0.665011
     24          8           0        0.576731    7.145581   -1.316735
     25          6           0        2.010252    7.323957    0.544588
     26          7           0        5.008749    2.575289    1.078645
     27          6           0        4.885596    3.900465    1.147611
     28          6           0        5.745742    4.454336    2.325080
     29          6           0        6.755246    3.234875    2.541382
     30          6           0        6.200440    2.176332    1.645761
     31          6           0        6.396548    5.804648    1.985306
     32          6           0        6.853493    2.727916    4.051712
     33          6           0        8.268799    2.563454    4.582965
     34          7           0        5.237344   -0.204330    0.206168
     35          6           0        6.452951   -0.202920    0.854452
     36          6           0        7.067785   -1.454092    0.692585
     37          6           0        6.229168   -2.234839   -0.137260
     38          6           0        5.112050   -1.429629   -0.470338
     39          6           0        8.412984   -1.877079    1.252860
     40          6           0        6.058899   -3.534668   -0.852491
     41          8           0        6.853333   -4.481433   -0.886035
     42          6           0        4.770758   -3.379808   -1.688031
     43          6           0        3.983338   -4.579435   -1.360894
     44          8           0        3.593186   -4.869742   -0.241694
     45          8           0        3.799319   -5.325024   -2.487147
     46          6           0        3.080757   -6.570296   -2.189678
     47          6           0       -1.933439   -5.100171    0.876485
     48          6           0       -3.267914   -4.383594    1.165258
     49          6           0       -4.260023   -4.873906    1.882004
     50          6           0       -4.172151   -6.014902    2.854757
     51          6           0       -5.535616   -4.017332    2.113990
     52          6           0       -5.147562   -2.907896    3.127480
     53          6           0       -6.411665   -2.559888    3.950670
     54          6           0       -6.599561   -1.037249    3.868829
     55          6           0       -6.807333   -0.373903    5.270407
     56          6           0       -7.790635   -0.668543    2.997722
     57          6           0       -7.476990    0.630232    2.192270
     58          6           0       -7.495060    0.477964    0.653538
     59          6           0       -8.834413    0.728174    0.069328
     60          6           0       -9.194818   -0.113609   -1.137643
     61          6           0       -8.975809    2.252796   -0.210964
     62          6           0      -10.288601    2.974624    0.092617
     63          6           0      -10.915414    3.619520   -1.064496
     64          6           0      -11.619115    2.591406   -1.994445
     65          6           0      -11.375987    2.814053   -3.533269
     66          6           0      -13.209582    2.643689   -1.830124
     67          1           0        0.716418    1.989075   -3.371354
     68          1           0        3.931696    5.743550    0.555528
     69          1           0        7.766895    0.885170    2.142536
     70          1           0        2.289470   -2.599318   -3.441631
     71          1           0        0.187913   -0.726133   -3.212577
     72          1           0        1.743617   -1.622630   -5.203269
     73          1           0        2.389403    0.091058   -4.911789
     74          1           0        0.721739   -0.176548   -5.336020
     75          1           0        0.221032   -2.001059   -1.275512
     76          1           0        1.375782   -3.100861   -0.673995
     77          1           0        0.736925   -4.583352   -2.745211
     78          1           0       -0.771817   -3.690145   -2.550709
     79          1           0        0.822098    5.705636   -3.694062
     80          1           0       -0.476579    5.122111   -2.846863
     81          1           0        0.384793    4.127739   -4.151706
     82          1           0        2.931342    7.803914    0.214070
     83          1           0        2.309351    6.649278    1.346905
     84          1           0        1.289212    8.046900    0.927402
     85          1           0        5.126703    4.646014    3.201360
     86          1           0        7.670871    3.602559    2.078712
     87          1           0        7.347985    5.861893    2.513705
     88          1           0        5.709592    6.570561    2.346261
     89          1           0        6.515715    6.031016    0.926783
     90          1           0        6.283196    1.799336    4.089193
     91          1           0        6.398361    3.427596    4.752633
     92          1           0        8.478111    3.219610    5.428236
     93          1           0        9.032525    2.760046    3.829918
     94          1           0        8.351768    1.516310    4.872876
     95          1           0        8.224026   -2.505425    2.122852
     96          1           0        9.088413   -1.148858    1.703265
     97          1           0        8.899198   -2.545495    0.541868
     98          1           0        5.106192   -3.544209   -2.711992
     99          1           0        2.042514   -6.339338   -2.426630
    100          1           0        3.050698   -6.893220   -1.149728
    101          1           0        3.307351   -7.447402   -2.795239
    102          1           0       -1.206031   -5.123508    1.688092
    103          1           0       -2.062905   -6.149057    0.609625
    104          1           0       -3.372996   -3.383340    0.744251
    105          1           0       -5.022033   -6.650788    2.607738
    106          1           0       -4.431767   -5.640261    3.845020
    107          1           0       -3.243969   -6.580176    2.940783
    108          1           0       -6.399870   -4.669236    2.234593
    109          1           0       -5.667773   -3.589231    1.120231
    110          1           0       -4.620893   -2.164590    2.527461
    111          1           0       -4.354831   -3.239094    3.797833
    112          1           0       -6.200482   -2.805159    4.991727
    113          1           0       -7.258477   -3.145317    3.592932
    114          1           0       -5.734122   -0.586133    3.384958
    115          1           0       -5.863472    0.130908    5.478027
    116          1           0       -6.801936   -1.032154    6.139311
    117          1           0       -7.620346    0.336684    5.415116
    118          1           0       -8.755517   -0.432425    3.446629
    119          1           0       -8.167754   -1.453536    2.341815
    120          1           0       -6.599916    1.143932    2.585563
    121          1           0       -8.263389    1.351023    2.417431
    122          1           0       -7.237184   -0.563641    0.460967
    123          1           0       -6.770169    1.044652    0.069151
    124          1           0       -9.610391    0.534705    0.808954
    125          1           0      -10.157187   -0.607628   -1.003986
    126          1           0       -8.417846   -0.851367   -1.336838
    127          1           0       -9.302289    0.548436   -1.996530
    128          1           0       -8.439861    2.439689   -1.141158
    129          1           0       -8.322428    2.772825    0.489330
    130          1           0      -10.328706    3.598402    0.985773
    131          1           0      -10.973903    2.203107    0.444038
    132          1           0      -10.130597    4.100846   -1.649092
    133          1           0      -11.641472    4.319963   -0.653725
    134          1           0      -11.310395    1.587523   -1.701908
    135          1           0      -12.320534    2.608239   -4.037708
    136          1           0      -10.701787    1.992344   -3.773372
    137          1           0      -10.946340    3.779646   -3.800469
    138          1           0      -13.650020    1.649245   -1.757380
    139          1           0      -13.710189    3.190404   -2.628776
    140          1           0      -13.393636    3.112235   -0.862251
 ---------------------------------------------------------------------

 SCF Done:  E(RB-LYP) =  -3007.34237258     A.U. after   22 cycles

 Excitation energies and oscillator strengths:

 Excited State   1:      Singlet-A      1.7672 eV  701.60 nm  f=0.2944  <S**2>=0.000
     245 -> 248        0.19024
     246 -> 247        0.69127
     246 <- 247       -0.14782
 This state for optimization and/or second-order correction.
 Total Energy, E(TD-HF/TD-DFT) =  -3007.27743006
 Copying the excited state density for this state as the 1-particle RhoCI density.

 Excited State   2:      Singlet-A      1.9438 eV  637.86 nm  f=0.0103  <S**2>=0.000
     243 -> 247        0.12920
     244 -> 247        0.62289
     245 -> 247       -0.29181

 Excited State   3:      Singlet-A      1.9754 eV  627.64 nm  f=0.0003  <S**2>=0.000
     243 -> 247        0.67712
     244 -> 247       -0.18059

 Excited State   4:      Singlet-A      2.0500 eV  604.80 nm  f=0.0461  <S**2>=0.000
     242 -> 247        0.10535
     243 -> 247        0.14897
     244 -> 247        0.27590
     245 -> 247        0.55547
     246 -> 248       -0.26781

 Excited State   5:      Singlet-A      2.2175 eV  559.12 nm  f=0.0000  <S**2>=0.000
     241 -> 247        0.70698

 The electronic state is 1-A.
 Alpha  occ. eigenvalues --  -46.27325 -18.82660 -18.82409 -18.77047 -18.76215
 Alpha  occ. eigenvalues --  -18.75699 -18.75692 -14.04367 -14.02962 -14.01667
 Alpha  occ. eigenvalues --  -14.00301 -10.04175 -10.03508 -10.00599  -9.99765
 Alpha  occ. eigenvalues --   -9.97697  -9.97551  -9.97452  -9.96848  -9.96837
 Alpha  occ. eigenvalues --   -9.96260  -9.96190  -9.96117  -9.95327  -9.94866
 Alpha  occ. eigenvalues --   -9.94824  -9.94706  -9.94655  -9.94347  -9.94153
 Alpha  occ. eigenvalues --   -9.93915  -9.93834  -9.93759  -9.93756  -9.93708
 Alpha  occ. eigenvalues --   -9.93597  -9.93077  -9.93060  -9.93028  -9.92796
 Alpha  occ. eigenvalues --   -9.92653  -9.92580  -9.92397  -9.92325  -9.92094
 Alpha  occ. eigenvalues --   -9.92034  -9.92023  -9.91942  -9.91887  -9.91834
 Alpha  occ. eigenvalues --   -9.91814  -9.91813  -9.91266  -9.91017  -9.90936
 Alpha  occ. eigenvalues --   -9.90929  -9.90916  -9.90802  -9.90764  -9.90617
 Alpha  occ. eigenvalues --   -9.90600  -9.90572  -9.90564  -9.90530  -9.90517
 Alpha  occ. eigenvalues --   -9.90371  -2.91906  -1.72341  -1.71778  -1.71621
 Alpha  occ. eigenvalues --   -0.98109  -0.97898  -0.91045  -0.90575  -0.89912
 Alpha  occ. eigenvalues --   -0.89660  -0.86837  -0.86070  -0.85564  -0.84312
 Alpha  occ. eigenvalues --   -0.75640  -0.74079  -0.73621  -0.73158  -0.72744
 Alpha  occ. eigenvalues --   -0.72183  -0.71750  -0.71020  -0.70854  -0.70104
 Alpha  occ. eigenvalues --   -0.69573  -0.68899  -0.67966  -0.67839  -0.67563
 Alpha  occ. eigenvalues --   -0.66461  -0.66126  -0.65573  -0.65249  -0.64697
 Alpha  occ. eigenvalues --   -0.63917  -0.62603  -0.62099  -0.61574  -0.60537
 Alpha  occ. eigenvalues --   -0.60448  -0.60063  -0.59880  -0.59279  -0.58932
 Alpha  occ. eigenvalues --   -0.57990  -0.57475  -0.57127  -0.55879  -0.54325
 Alpha  occ. eigenvalues --   -0.54016  -0.53718  -0.52931  -0.52597  -0.51675
 Alpha  occ. eigenvalues --   -0.51645  -0.51539  -0.51335  -0.50651  -0.50513
 Alpha  occ. eigenvalues --   -0.50306  -0.49192  -0.48593  -0.48452  -0.46750
 Alpha  occ. eigenvalues --   -0.46471  -0.45953  -0.45488  -0.45285  -0.44420
 Alpha  occ. eigenvalues --   -0.43814  -0.43563  -0.43392  -0.42634  -0.42487
 Alpha  occ. eigenvalues --   -0.42272  -0.41737  -0.41509  -0.41363  -0.41079
 Alpha  occ. eigenvalues --   -0.40870  -0.40803  -0.40479  -0.40259  -0.40054
 Alpha  occ. eigenvalues --   -0.39776  -0.39670  -0.39430  -0.39300  -0.39285
 Alpha  occ. eigenvalues --   -0.38994  -0.38838  -0.38364  -0.38331  -0.38236
 Alpha  occ. eigenvalues --   -0.38169  -0.37983  -0.37662  -0.37473  -0.37447
 Alpha  occ. eigenvalues --   -0.37307  -0.36657  -0.36465  -0.36296  -0.36249
 Alpha  occ. eigenvalues --   -0.36121  -0.36096  -0.35852  -0.35725  -0.35559
 Alpha  occ. eigenvalues --   -0.35275  -0.35200  -0.34968  -0.34763  -0.34693
 Alpha  occ. eigenvalues --   -0.34625  -0.34587  -0.34150  -0.34083  -0.33857
 Alpha  occ. eigenvalues --   -0.33823  -0.33573  -0.33521  -0.33367  -0.33243
 Alpha  occ. eigenvalues --   -0.33020  -0.32791  -0.32677  -0.32462  -0.32353
 Alpha  occ. eigenvalues --   -0.32314  -0.32164  -0.31981  -0.31782  -0.31725
 Alpha  occ. eigenvalues --   -0.31561  -0.31460  -0.31163  -0.31031  -0.30878
 Alpha  occ. eigenvalues --   -0.30472  -0.30418  -0.30295  -0.30136  -0.30095
 Alpha  occ. eigenvalues --   -0.29965  -0.29634  -0.29468  -0.29385  -0.29106
 Alpha  occ. eigenvalues --   -0.28791  -0.28634  -0.28379  -0.27754  -0.27433
 Alpha  occ. eigenvalues --   -0.27293  -0.27087  -0.27041  -0.26942  -0.26359
 Alpha  occ. eigenvalues --   -0.26263  -0.25965  -0.25924  -0.25388  -0.25224
 Alpha  occ. eigenvalues --   -0.24791  -0.24546  -0.24248  -0.24169  -0.24005
 Alpha  occ. eigenvalues --   -0.23111  -0.22403  -0.21812  -0.21435  -0.20779
 Alpha  occ. eigenvalues --   -0.19762  -0.19720  -0.18764  -0.18713  -0.17663
 Alpha  occ. eigenvalues --   -0.15819
 Alpha virt. eigenvalues --   -0.11613  -0.07333  -0.06715  -0.04805  -0.03308
 Alpha virt. eigenvalues --   -0.02625  -0.02346  -0.01969  -0.00975  -0.00104
 Alpha virt. eigenvalues --    0.00564   0.01289   0.02360   0.02690   0.02927

 Mulliken charges:
               1
     1  Mg   0.658700
     2  C    0.026785
     3  C   -0.067519
     4  C   -0.035444
     5  C   -0.076585
     6  N   -0.218816
     7  C   -0.109184
     8  C    0.081616
     9  C   -0.029212
    10  C    0.041773
    11  C    0.127048
    12  C    0.068881
    13  C    0.184091
    14  C    0.080065
    15  O   -0.192744
    16  O   -0.285374
    17  N   -0.282138
    18  C    0.158440
    19  C   -0.144889
    20  C    0.022790
    21  C    0.086711
    22  C    0.194279
    23  C   -0.072721
    24  O   -0.190343
    25  C    0.139551
    26  N   -0.222020
    27  C    0.055723
    28  C   -0.027682
    29  C    0.066605
    30  C    0.028780
    31  C    0.123411
    32  C    0.085809
    33  C    0.064822
    34  N   -0.273651
    35  C    0.117466
    36  C   -0.159316
    37  C    0.075116
    38  C    0.092348
    39  C    0.172964
    40  C   -0.054802
    41  O   -0.142530
    42  C    0.104689
    43  C    0.079372
    44  O   -0.180112
    45  O   -0.255984
    46  C    0.215033
    47  C    0.302262
    48  C   -0.112296
    49  C   -0.150248
    50  C    0.166822
    51  C    0.094016
    52  C    0.052205
    53  C    0.169637
    54  C   -0.050430
    55  C    0.106031
    56  C    0.105093
    57  C    0.052091
    58  C    0.142792
    59  C   -0.111407
    60  C    0.156936
    61  C    0.088667
    62  C    0.083784
    63  C    0.159338
    64  C   -0.136937
    65  C    0.112389
    66  C    0.084186
    67  H   -0.064429
    68  H   -0.098192
    69  H   -0.073079
    70  H   -0.024579
    71  H   -0.028761
    72  H    0.000279
    73  H    0.000381
    74  H   -0.005669
    75  H   -0.018635
    76  H    0.020271
    77  H   -0.009826
    78  H   -0.016030
    79  H   -0.008351
    80  H    0.008106
    81  H   -0.011938
    82  H    0.021907
    83  H    0.000347
    84  H    0.006948
    85  H   -0.009313
    86  H   -0.032032
    87  H   -0.004793
    88  H   -0.010642
    89  H   -0.008112
    90  H   -0.001963
    91  H   -0.021706
    92  H   -0.005417
    93  H   -0.007893
    94  H   -0.003308
    95  H   -0.008359
    96  H   -0.019123
    97  H    0.008633
    98  H   -0.007043
    99  H   -0.007158
   100  H    0.033161
   101  H    0.007736
   102  H   -0.000602
   103  H    0.013809
   104  H   -0.031634
   105  H   -0.018589
   106  H   -0.011415
   107  H   -0.005725
   108  H   -0.026228
   109  H   -0.026966
   110  H   -0.018781
   111  H   -0.019956
   112  H   -0.042398
   113  H   -0.015803
   114  H   -0.015242
   115  H   -0.031544
   116  H   -0.026368
   117  H   -0.006789
   118  H   -0.043207
   119  H   -0.050501
   120  H   -0.035508
   121  H   -0.044636
   122  H   -0.052205
   123  H   -0.042217
   124  H   -0.052738
   125  H   -0.009974
   126  H   -0.028025
   127  H   -0.020575
   128  H   -0.038322
   129  H   -0.043755
   130  H   -0.040753
   131  H   -0.054607
   132  H   -0.036449
   133  H   -0.041466
   134  H   -0.033163
   135  H   -0.020284
   136  H   -0.020189
   137  H   -0.002602
   138  H   -0.019760
   139  H   -0.005040
   140  H   -0.027948
 Sum of Mulliken charges =  -0.00000

 Dipole moment (field-independent basis, Debye):
    X=             -1.3181    Y=              3.1501    Z=              0.8025  Tot=              3.5078
 Quadrupole moment (field-independent basis, Debye-Ang):
   XX=           -403.5987   YY=           -435.8110   ZZ=           -383.0381
   XY=             56.4269   XZ=              2.9381   YZ=             14.7642

 Normal termination of Gaussian 16 at Thu May  5 10:24:31 2022.
