 Gaussian 16, Revision A.03,
 Gaussian 16:  ES64L-G16RevA.03 25-Dec-2016

 -----------------------------------
 #p cam-b3lyp/Def2SVP td=(nstates=5)
 -----------------------------------

 -------------------------------------------------------
 step_801_chromophore_20 TDDFT with cam-b3lyp functional
 -------------------------------------------------------
 Symbolic Z-matrix:
 Charge =  0 Multiplicity = 1

                         Standard orientation:
 ---------------------------------------------------------------------
 Center     Atomic      Atomic             Coordinates (Angstroms)
 Number     Number       Type             X           Y           Z
 ---------------------------------------------------------------------
      1         12           0        4.059373    1.461753   -0.460534
      2          6           0        4.216148   -2.010941   -1.381641
      3          6           0        1.457320    1.814120   -2.587528
      4          6           0        3.981453    4.660370    0.424948
      5          6           0        6.865309    0.971190    1.532676
      6          7           0        2.896444   -0.002510   -1.654074
      7          6           0        2.976017   -1.388266   -1.834598
      8          6           0        1.838778   -2.010724   -2.642312
      9          6           0        1.273641   -0.722975   -3.296196
     10          6           0        1.907472    0.463123   -2.480284
     11          6           0        1.569940   -0.620244   -4.812814
     12          6           0        0.910518   -2.778545   -1.605408
     13          6           0        0.121829   -4.036031   -2.031624
     14          6           0       -0.411998   -4.882337   -0.905733
     15          8           0       -0.011328   -6.013188   -0.652768
     16          8           0       -1.365143   -4.221453   -0.150243
     17          7           0        2.784636    3.007546   -0.915200
     18          6           0        1.864139    2.946653   -1.917648
     19          6           0        1.364832    4.327987   -2.150735
     20          6           0        1.846962    5.136291   -1.079808
     21          6           0        2.994449    4.265277   -0.484435
     22          6           0        0.462557    4.767291   -3.272769
     23          6           0        1.460754    6.575668   -0.665011
     24          8           0        0.576731    7.145581   -1.316735
     25          6           0        2.010252    7.323957    0.544588
     26          7           0        5.008749    2.575289    1.078645
     27          6           0        4.885596    3.900465    1.147611
     28          6           0        5.745742    4.454336    2.325080
     29          6           0        6.755246    3.234875    2.541382
     30          6           0        6.200440    2.176332    1.645761
     31          6           0        6.396548    5.804648    1.985306
     32          6           0        6.853493    2.727916    4.051712
     33          6           0        8.268799    2.563454    4.582965
     34          7           0        5.237344   -0.204330    0.206168
     35          6           0        6.452951   -0.202920    0.854452
     36          6           0        7.067785   -1.454092    0.692585
     37          6           0        6.229168   -2.234839   -0.137260
     38          6           0        5.112050   -1.429629   -0.470338
     39          6           0        8.412984   -1.877079    1.252860
     40          6           0        6.058899   -3.534668   -0.852491
     41          8           0        6.853333   -4.481433   -0.886035
     42          6           0        4.770758   -3.379808   -1.688031
     43          6           0        3.983338   -4.579435   -1.360894
     44          8           0        3.593186   -4.869742   -0.241694
     45          8           0        3.799319   -5.325024   -2.487147
     46          6           0        3.080757   -6.570296   -2.189678
     47          6           0       -1.933439   -5.100171    0.876485
     48          6           0       -3.267914   -4.383594    1.165258
     49          6           0       -4.260023   -4.873906    1.882004
     50          6           0       -4.172151   -6.014902    2.854757
     51          6           0       -5.535616   -4.017332    2.113990
     52          6           0       -5.147562   -2.907896    3.127480
     53          6           0       -6.411665   -2.559888    3.950670
     54          6           0       -6.599561   -1.037249    3.868829
     55          6           0       -6.807333   -0.373903    5.270407
     56          6           0       -7.790635   -0.668543    2.997722
     57          6           0       -7.476990    0.630232    2.192270
     58          6           0       -7.495060    0.477964    0.653538
     59          6           0       -8.834413    0.728174    0.069328
     60          6           0       -9.194818   -0.113609   -1.137643
     61          6           0       -8.975809    2.252796   -0.210964
     62          6           0      -10.288601    2.974624    0.092617
     63          6           0      -10.915414    3.619520   -1.064496
     64          6           0      -11.619115    2.591406   -1.994445
     65          6           0      -11.375987    2.814053   -3.533269
     66          6           0      -13.209582    2.643689   -1.830124
     67          1           0        0.716418    1.989075   -3.371354
     68          1           0        3.931696    5.743550    0.555528
     69          1           0        7.766895    0.885170    2.142536
     70          1           0        2.289470   -2.599318   -3.441631
     71          1           0        0.187913   -0.726133   -3.212577
     72          1           0        1.743617   -1.622630   -5.203269
     73          1           0        2.389403    0.091058   -4.911789
     74          1           0        0.721739   -0.176548   -5.336020
     75          1           0        0.221032   -2.001059   -1.275512
     76          1           0        1.375782   -3.100861   -0.673995
     77          1           0        0.736925   -4.583352   -2.745211
     78          1           0       -0.771817   -3.690145   -2.550709
     79          1           0        0.822098    5.705636   -3.694062
     80          1           0       -0.476579    5.122111   -2.846863
     81          1           0        0.384793    4.127739   -4.151706
     82          1           0        2.931342    7.803914    0.214070
     83          1           0        2.309351    6.649278    1.346905
     84          1           0        1.289212    8.046900    0.927402
     85          1           0        5.126703    4.646014    3.201360
     86          1           0        7.670871    3.602559    2.078712
     87          1           0        7.347985    5.861893    2.513705
     88          1           0        5.709592    6.570561    2.346261
     89          1           0        6.515715    6.031016    0.926783
     90          1           0        6.283196    1.799336    4.089193
     91          1           0        6.398361    3.427596    4.752633
     92          1           0        8.478111    3.219610    5.428236
     93          1           0        9.032525    2.760046    3.829918
     94          1           0        8.351768    1.516310    4.872876
     95          1           0        8.224026   -2.505425    2.122852
     96          1           0        9.088413   -1.148858    1.703265
     97          1           0        8.899198   -2.545495    0.541868
     98          1           0        5.106192   -3.544209   -2.711992
     99          1           0        2.042514   -6.339338   -2.426630
    100          1           0        3.050698   -6.893220   -1.149728
    101          1           0        3.307351   -7.447402   -2.795239
    102          1           0       -1.206031   -5.123508    1.688092
    103          1           0       -2.062905   -6.149057    0.609625
    104          1           0       -3.372996   -3.383340    0.744251
    105          1           0       -5.022033   -6.650788    2.607738
    106          1           0       -4.431767   -5.640261    3.845020
    107          1           0       -3.243969   -6.580176    2.940783
    108          1           0       -6.399870   -4.669236    2.234593
    109          1           0       -5.667773   -3.589231    1.120231
    110          1           0       -4.620893   -2.164590    2.527461
    111          1           0       -4.354831   -3.239094    3.797833
    112          1           0       -6.200482   -2.805159    4.991727
    113          1           0       -7.258477   -3.145317    3.592932
    114          1           0       -5.734122   -0.586133    3.384958
    115          1           0       -5.863472    0.130908    5.478027
    116          1           0       -6.801936   -1.032154    6.139311
    117          1           0       -7.620346    0.336684    5.415116
    118          1           0       -8.755517   -0.432425    3.446629
    119          1           0       -8.167754   -1.453536    2.341815
    120          1           0       -6.599916    1.143932    2.585563
    121          1           0       -8.263389    1.351023    2.417431
    122          1           0       -7.237184   -0.563641    0.460967
    123          1           0       -6.770169    1.044652    0.069151
    124          1           0       -9.610391    0.534705    0.808954
    125          1           0      -10.157187   -0.607628   -1.003986
    126          1           0       -8.417846   -0.851367   -1.336838
    127          1           0       -9.302289    0.548436   -1.996530
    128          1           0       -8.439861    2.439689   -1.141158
    129          1           0       -8.322428    2.772825    0.489330
    130          1           0      -10.328706    3.598402    0.985773
    131          1           0      -10.973903    2.203107    0.444038
    132          1           0      -10.130597    4.100846   -1.649092
    133          1           0      -11.641472    4.319963   -0.653725
    134          1           0      -11.310395    1.587523   -1.701908
    135          1           0      -12.320534    2.608239   -4.037708
    136          1           0      -10.701787    1.992344   -3.773372
    137          1           0      -10.946340    3.779646   -3.800469
    138          1           0      -13.650020    1.649245   -1.757380
    139          1           0      -13.710189    3.190404   -2.628776
    140          1           0      -13.393636    3.112235   -0.862251
 ---------------------------------------------------------------------

 SCF Done:  E(RCAM-B3LYP) =  -3007.13672108     A.U. after   19 cycles

 Excitation energies and oscillator strengths:

 Excited State   1:      Singlet-A      1.7096 eV  725.24 nm  f=0.3583  <S**2>=0.000
     245 -> 248        0.17266
     246 -> 247        0.68649
     245 <- 248        0.10444
 This state for optimization and/or second-order correction.
 Total Energy, E(TD-HF/TD-DFT) =  -3007.07389614
 Copying the excited state density for this state as the 1-particle RhoCI density.

 Excited State   2:      Singlet-A      2.3277 eV  532.65 nm  f=0.0562  <S**2>=0.000
     245 -> 247        0.60658
     246 -> 248       -0.34889

 Excited State   3:      Singlet-A      3.2869 eV  377.20 nm  f=0.0038  <S**2>=0.000
     242 -> 247        0.10045
     244 -> 247        0.67024
     246 -> 248        0.13394

 Excited State   4:      Singlet-A      3.4455 eV  359.85 nm  f=0.2954  <S**2>=0.000
     239 -> 247       -0.11268
     239 -> 249       -0.16400
     241 -> 247       -0.20299
     242 -> 247       -0.39695
     242 -> 249       -0.12500
     245 -> 247        0.21279
     246 -> 248        0.42182

 Excited State   5:      Singlet-A      3.5101 eV  353.22 nm  f=0.4654  <S**2>=0.000
     239 -> 247        0.21265
     239 -> 249        0.21269
     241 -> 249        0.10723
     242 -> 247        0.34228
     244 -> 247       -0.13995
     245 -> 247        0.25884
     246 -> 248        0.38693

 The electronic state is 1-A.
 Alpha  occ. eigenvalues --  -46.88913 -19.25543 -19.25229 -19.20003 -19.19333
 Alpha  occ. eigenvalues --  -19.19245 -19.18625 -14.43626 -14.41570 -14.40405
 Alpha  occ. eigenvalues --  -14.38456 -10.39438 -10.38872 -10.36227 -10.34871
 Alpha  occ. eigenvalues --  -10.32318 -10.32056 -10.31783 -10.31721 -10.31671
 Alpha  occ. eigenvalues --  -10.31147 -10.30180 -10.30174 -10.30109 -10.29370
 Alpha  occ. eigenvalues --  -10.29128 -10.28860 -10.28720 -10.28529 -10.28227
 Alpha  occ. eigenvalues --  -10.28163 -10.28143 -10.27950 -10.27764 -10.27738
 Alpha  occ. eigenvalues --  -10.27538 -10.27141 -10.26925 -10.26698 -10.26654
 Alpha  occ. eigenvalues --  -10.26625 -10.26527 -10.26389 -10.26082 -10.26014
 Alpha  occ. eigenvalues --  -10.25686 -10.25685 -10.25651 -10.25506 -10.25502
 Alpha  occ. eigenvalues --  -10.25425 -10.25067 -10.24871 -10.24829 -10.24687
 Alpha  occ. eigenvalues --  -10.24684 -10.24582 -10.24421 -10.24324 -10.24256
 Alpha  occ. eigenvalues --  -10.24245 -10.24211 -10.24209 -10.24193 -10.24134
 Alpha  occ. eigenvalues --  -10.24014  -3.17399  -1.92311  -1.91843  -1.91703
 Alpha  occ. eigenvalues --   -1.16601  -1.16283  -1.09818  -1.08692  -1.07716
 Alpha  occ. eigenvalues --   -1.07570  -1.04706  -1.03857  -1.03348  -1.01464
 Alpha  occ. eigenvalues --   -0.92647  -0.90965  -0.90475  -0.89934  -0.89546
 Alpha  occ. eigenvalues --   -0.88887  -0.88423  -0.87622  -0.87471  -0.86803
 Alpha  occ. eigenvalues --   -0.86397  -0.84977  -0.84166  -0.83889  -0.83769
 Alpha  occ. eigenvalues --   -0.82543  -0.82448  -0.81630  -0.81083  -0.80548
 Alpha  occ. eigenvalues --   -0.79599  -0.78181  -0.77601  -0.77463  -0.75819
 Alpha  occ. eigenvalues --   -0.75752  -0.75412  -0.75177  -0.74594  -0.74198
 Alpha  occ. eigenvalues --   -0.72978  -0.72343  -0.72063  -0.70686  -0.68815
 Alpha  occ. eigenvalues --   -0.68590  -0.68350  -0.67561  -0.67022  -0.65959
 Alpha  occ. eigenvalues --   -0.65736  -0.65591  -0.65530  -0.64697  -0.64470
 Alpha  occ. eigenvalues --   -0.64182  -0.63141  -0.62554  -0.62101  -0.60368
 Alpha  occ. eigenvalues --   -0.60188  -0.59400  -0.59004  -0.58745  -0.57998
 Alpha  occ. eigenvalues --   -0.57270  -0.56962  -0.56635  -0.55781  -0.55474
 Alpha  occ. eigenvalues --   -0.55337  -0.54874  -0.54392  -0.54160  -0.54134
 Alpha  occ. eigenvalues --   -0.53809  -0.53525  -0.53196  -0.53078  -0.53017
 Alpha  occ. eigenvalues --   -0.52255  -0.52221  -0.52199  -0.51968  -0.51724
 Alpha  occ. eigenvalues --   -0.51552  -0.51351  -0.50925  -0.50789  -0.50604
 Alpha  occ. eigenvalues --   -0.50547  -0.50383  -0.50186  -0.50019  -0.49642
 Alpha  occ. eigenvalues --   -0.49517  -0.49411  -0.48806  -0.48697  -0.48570
 Alpha  occ. eigenvalues --   -0.48262  -0.48219  -0.48086  -0.47890  -0.47831
 Alpha  occ. eigenvalues --   -0.47617  -0.47291  -0.47032  -0.46827  -0.46564
 Alpha  occ. eigenvalues --   -0.46479  -0.46230  -0.46040  -0.45999  -0.45779
 Alpha  occ. eigenvalues --   -0.45550  -0.45311  -0.45240  -0.45109  -0.45021
 Alpha  occ. eigenvalues --   -0.44703  -0.44525  -0.44302  -0.44111  -0.43954
 Alpha  occ. eigenvalues --   -0.43828  -0.43731  -0.43555  -0.43474  -0.43360
 Alpha  occ. eigenvalues --   -0.43018  -0.42862  -0.42491  -0.42298  -0.42246
 Alpha  occ. eigenvalues --   -0.42210  -0.41974  -0.41880  -0.41569  -0.41305
 Alpha  occ. eigenvalues --   -0.41186  -0.41167  -0.40703  -0.40603  -0.40120
 Alpha  occ. eigenvalues --   -0.39843  -0.39609  -0.39471  -0.38675  -0.38289
 Alpha  occ. eigenvalues --   -0.38245  -0.37974  -0.37913  -0.37782  -0.37149
 Alpha  occ. eigenvalues --   -0.37110  -0.37056  -0.36840  -0.36675  -0.36222
 Alpha  occ. eigenvalues --   -0.35886  -0.35034  -0.34688  -0.34553  -0.34537
 Alpha  occ. eigenvalues --   -0.34125  -0.33900  -0.33062  -0.31764  -0.31295
 Alpha  occ. eigenvalues --   -0.30466  -0.30376  -0.29397  -0.28554  -0.24633
 Alpha  occ. eigenvalues --   -0.21106
 Alpha virt. eigenvalues --   -0.08491  -0.02275  -0.00321   0.02215   0.02453
 Alpha virt. eigenvalues --    0.04322   0.04971   0.05574   0.06549   0.06720
 Alpha virt. eigenvalues --    0.07614   0.08006   0.08764   0.08816   0.08936

 Mulliken charges:
               1
     1  Mg   0.792384
     2  C    0.009237
     3  C   -0.076113
     4  C   -0.075439
     5  C   -0.082440
     6  N   -0.278808
     7  C   -0.072997
     8  C    0.027424
     9  C   -0.078785
    10  C    0.051189
    11  C    0.070354
    12  C    0.022488
    13  C    0.114770
    14  C    0.159184
    15  O   -0.234006
    16  O   -0.349204
    17  N   -0.374873
    18  C    0.169723
    19  C   -0.145072
    20  C   -0.040060
    21  C    0.128901
    22  C    0.130616
    23  C    0.001445
    24  O   -0.227354
    25  C    0.057105
    26  N   -0.300035
    27  C    0.089608
    28  C   -0.070737
    29  C   -0.000968
    30  C    0.048861
    31  C    0.062130
    32  C    0.032181
    33  C    0.000674
    34  N   -0.357002
    35  C    0.121238
    36  C   -0.168987
    37  C    0.003554
    38  C    0.114265
    39  C    0.121888
    40  C    0.045533
    41  O   -0.182723
    42  C    0.022812
    43  C    0.165820
    44  O   -0.217154
    45  O   -0.319060
    46  C    0.174771
    47  C    0.270782
    48  C   -0.132073
    49  C   -0.173169
    50  C    0.101480
    51  C    0.035559
    52  C    0.003052
    53  C    0.111416
    54  C   -0.110459
    55  C    0.047068
    56  C    0.054991
    57  C   -0.002886
    58  C    0.085662
    59  C   -0.163180
    60  C    0.094466
    61  C    0.028427
    62  C    0.030675
    63  C    0.100231
    64  C   -0.195179
    65  C    0.055595
    66  C    0.028714
    67  H   -0.026728
    68  H   -0.062439
    69  H   -0.040338
    70  H    0.010320
    71  H    0.007065
    72  H    0.025260
    73  H    0.025776
    74  H    0.018329
    75  H    0.011033
    76  H    0.050385
    77  H    0.019510
    78  H    0.015948
    79  H    0.023559
    80  H    0.040115
    81  H    0.016400
    82  H    0.048460
    83  H    0.030349
    84  H    0.042737
    85  H    0.024684
    86  H    0.003386
    87  H    0.021345
    88  H    0.011784
    89  H    0.018193
    90  H    0.029113
    91  H    0.005545
    92  H    0.018282
    93  H    0.014202
    94  H    0.020054
    95  H    0.016352
    96  H    0.004497
    97  H    0.032647
    98  H    0.039078
    99  H    0.011773
   100  H    0.061208
   101  H    0.031838
   102  H    0.028037
   103  H    0.042425
   104  H    0.003379
   105  H    0.006522
   106  H    0.012789
   107  H    0.018953
   108  H    0.002931
   109  H    0.002430
   110  H    0.007455
   111  H    0.008320
   112  H   -0.011105
   113  H    0.011225
   114  H    0.015910
   115  H   -0.006886
   116  H   -0.001299
   117  H    0.016851
   118  H   -0.012939
   119  H   -0.021884
   120  H   -0.006485
   121  H   -0.016946
   122  H   -0.023841
   123  H   -0.011831
   124  H   -0.020470
   125  H    0.013852
   126  H   -0.000416
   127  H   -0.000206
   128  H   -0.009149
   129  H   -0.012028
   130  H   -0.009153
   131  H   -0.026299
   132  H   -0.008135
   133  H   -0.010408
   134  H   -0.003143
   135  H    0.004613
   136  H    0.001534
   137  H    0.020566
   138  H    0.004940
   139  H    0.017691
   140  H   -0.005031
 Sum of Mulliken charges =  -0.00000

 Dipole moment (field-independent basis, Debye):
    X=             -2.0472    Y=              4.3280    Z=              0.3165  Tot=              4.7982
 Quadrupole moment (field-independent basis, Debye-Ang):
   XX=           -408.6962   YY=           -430.2751   ZZ=           -380.8259
   XY=             60.3316   XZ=              2.5218   YZ=             15.2151

 Normal termination of Gaussian 16 at Thu May  5 09:24:34 2022.
