 Gaussian 16, Revision A.03,
 Gaussian 16:  ES64L-G16RevA.03 25-Dec-2016

 ---------------------------------
 #p PBE1PBE/Def2SVP td=(nstates=5)
 ---------------------------------

 -----------------------------------------------------
 step_801_chromophore_20 TDDFT with PBE1PBE functional
 -----------------------------------------------------
 Symbolic Z-matrix:
 Charge =  0 Multiplicity = 1

                         Standard orientation:
 ---------------------------------------------------------------------
 Center     Atomic      Atomic             Coordinates (Angstroms)
 Number     Number       Type             X           Y           Z
 ---------------------------------------------------------------------
      1         12           0        4.059373    1.461753   -0.460534
      2          6           0        4.216148   -2.010941   -1.381641
      3          6           0        1.457320    1.814120   -2.587528
      4          6           0        3.981453    4.660370    0.424948
      5          6           0        6.865309    0.971190    1.532676
      6          7           0        2.896444   -0.002510   -1.654074
      7          6           0        2.976017   -1.388266   -1.834598
      8          6           0        1.838778   -2.010724   -2.642312
      9          6           0        1.273641   -0.722975   -3.296196
     10          6           0        1.907472    0.463123   -2.480284
     11          6           0        1.569940   -0.620244   -4.812814
     12          6           0        0.910518   -2.778545   -1.605408
     13          6           0        0.121829   -4.036031   -2.031624
     14          6           0       -0.411998   -4.882337   -0.905733
     15          8           0       -0.011328   -6.013188   -0.652768
     16          8           0       -1.365143   -4.221453   -0.150243
     17          7           0        2.784636    3.007546   -0.915200
     18          6           0        1.864139    2.946653   -1.917648
     19          6           0        1.364832    4.327987   -2.150735
     20          6           0        1.846962    5.136291   -1.079808
     21          6           0        2.994449    4.265277   -0.484435
     22          6           0        0.462557    4.767291   -3.272769
     23          6           0        1.460754    6.575668   -0.665011
     24          8           0        0.576731    7.145581   -1.316735
     25          6           0        2.010252    7.323957    0.544588
     26          7           0        5.008749    2.575289    1.078645
     27          6           0        4.885596    3.900465    1.147611
     28          6           0        5.745742    4.454336    2.325080
     29          6           0        6.755246    3.234875    2.541382
     30          6           0        6.200440    2.176332    1.645761
     31          6           0        6.396548    5.804648    1.985306
     32          6           0        6.853493    2.727916    4.051712
     33          6           0        8.268799    2.563454    4.582965
     34          7           0        5.237344   -0.204330    0.206168
     35          6           0        6.452951   -0.202920    0.854452
     36          6           0        7.067785   -1.454092    0.692585
     37          6           0        6.229168   -2.234839   -0.137260
     38          6           0        5.112050   -1.429629   -0.470338
     39          6           0        8.412984   -1.877079    1.252860
     40          6           0        6.058899   -3.534668   -0.852491
     41          8           0        6.853333   -4.481433   -0.886035
     42          6           0        4.770758   -3.379808   -1.688031
     43          6           0        3.983338   -4.579435   -1.360894
     44          8           0        3.593186   -4.869742   -0.241694
     45          8           0        3.799319   -5.325024   -2.487147
     46          6           0        3.080757   -6.570296   -2.189678
     47          6           0       -1.933439   -5.100171    0.876485
     48          6           0       -3.267914   -4.383594    1.165258
     49          6           0       -4.260023   -4.873906    1.882004
     50          6           0       -4.172151   -6.014902    2.854757
     51          6           0       -5.535616   -4.017332    2.113990
     52          6           0       -5.147562   -2.907896    3.127480
     53          6           0       -6.411665   -2.559888    3.950670
     54          6           0       -6.599561   -1.037249    3.868829
     55          6           0       -6.807333   -0.373903    5.270407
     56          6           0       -7.790635   -0.668543    2.997722
     57          6           0       -7.476990    0.630232    2.192270
     58          6           0       -7.495060    0.477964    0.653538
     59          6           0       -8.834413    0.728174    0.069328
     60          6           0       -9.194818   -0.113609   -1.137643
     61          6           0       -8.975809    2.252796   -0.210964
     62          6           0      -10.288601    2.974624    0.092617
     63          6           0      -10.915414    3.619520   -1.064496
     64          6           0      -11.619115    2.591406   -1.994445
     65          6           0      -11.375987    2.814053   -3.533269
     66          6           0      -13.209582    2.643689   -1.830124
     67          1           0        0.716418    1.989075   -3.371354
     68          1           0        3.931696    5.743550    0.555528
     69          1           0        7.766895    0.885170    2.142536
     70          1           0        2.289470   -2.599318   -3.441631
     71          1           0        0.187913   -0.726133   -3.212577
     72          1           0        1.743617   -1.622630   -5.203269
     73          1           0        2.389403    0.091058   -4.911789
     74          1           0        0.721739   -0.176548   -5.336020
     75          1           0        0.221032   -2.001059   -1.275512
     76          1           0        1.375782   -3.100861   -0.673995
     77          1           0        0.736925   -4.583352   -2.745211
     78          1           0       -0.771817   -3.690145   -2.550709
     79          1           0        0.822098    5.705636   -3.694062
     80          1           0       -0.476579    5.122111   -2.846863
     81          1           0        0.384793    4.127739   -4.151706
     82          1           0        2.931342    7.803914    0.214070
     83          1           0        2.309351    6.649278    1.346905
     84          1           0        1.289212    8.046900    0.927402
     85          1           0        5.126703    4.646014    3.201360
     86          1           0        7.670871    3.602559    2.078712
     87          1           0        7.347985    5.861893    2.513705
     88          1           0        5.709592    6.570561    2.346261
     89          1           0        6.515715    6.031016    0.926783
     90          1           0        6.283196    1.799336    4.089193
     91          1           0        6.398361    3.427596    4.752633
     92          1           0        8.478111    3.219610    5.428236
     93          1           0        9.032525    2.760046    3.829918
     94          1           0        8.351768    1.516310    4.872876
     95          1           0        8.224026   -2.505425    2.122852
     96          1           0        9.088413   -1.148858    1.703265
     97          1           0        8.899198   -2.545495    0.541868
     98          1           0        5.106192   -3.544209   -2.711992
     99          1           0        2.042514   -6.339338   -2.426630
    100          1           0        3.050698   -6.893220   -1.149728
    101          1           0        3.307351   -7.447402   -2.795239
    102          1           0       -1.206031   -5.123508    1.688092
    103          1           0       -2.062905   -6.149057    0.609625
    104          1           0       -3.372996   -3.383340    0.744251
    105          1           0       -5.022033   -6.650788    2.607738
    106          1           0       -4.431767   -5.640261    3.845020
    107          1           0       -3.243969   -6.580176    2.940783
    108          1           0       -6.399870   -4.669236    2.234593
    109          1           0       -5.667773   -3.589231    1.120231
    110          1           0       -4.620893   -2.164590    2.527461
    111          1           0       -4.354831   -3.239094    3.797833
    112          1           0       -6.200482   -2.805159    4.991727
    113          1           0       -7.258477   -3.145317    3.592932
    114          1           0       -5.734122   -0.586133    3.384958
    115          1           0       -5.863472    0.130908    5.478027
    116          1           0       -6.801936   -1.032154    6.139311
    117          1           0       -7.620346    0.336684    5.415116
    118          1           0       -8.755517   -0.432425    3.446629
    119          1           0       -8.167754   -1.453536    2.341815
    120          1           0       -6.599916    1.143932    2.585563
    121          1           0       -8.263389    1.351023    2.417431
    122          1           0       -7.237184   -0.563641    0.460967
    123          1           0       -6.770169    1.044652    0.069151
    124          1           0       -9.610391    0.534705    0.808954
    125          1           0      -10.157187   -0.607628   -1.003986
    126          1           0       -8.417846   -0.851367   -1.336838
    127          1           0       -9.302289    0.548436   -1.996530
    128          1           0       -8.439861    2.439689   -1.141158
    129          1           0       -8.322428    2.772825    0.489330
    130          1           0      -10.328706    3.598402    0.985773
    131          1           0      -10.973903    2.203107    0.444038
    132          1           0      -10.130597    4.100846   -1.649092
    133          1           0      -11.641472    4.319963   -0.653725
    134          1           0      -11.310395    1.587523   -1.701908
    135          1           0      -12.320534    2.608239   -4.037708
    136          1           0      -10.701787    1.992344   -3.773372
    137          1           0      -10.946340    3.779646   -3.800469
    138          1           0      -13.650020    1.649245   -1.757380
    139          1           0      -13.710189    3.190404   -2.628776
    140          1           0      -13.393636    3.112235   -0.862251
 ---------------------------------------------------------------------

 SCF Done:  E(RPBE1PBE) =  -3005.32467303     A.U. after   16 cycles

 Excitation energies and oscillator strengths:

 Excited State   1:      Singlet-A      1.8251 eV  679.33 nm  f=0.3514  <S**2>=0.000
     245 -> 248        0.16991
     246 -> 247        0.69376
     246 <- 247       -0.10432
 This state for optimization and/or second-order correction.
 Total Energy, E(TD-HF/TD-DFT) =  -3005.25760165
 Copying the excited state density for this state as the 1-particle RhoCI density.

 Excited State   2:      Singlet-A      2.2911 eV  541.15 nm  f=0.0653  <S**2>=0.000
     245 -> 247        0.62584
     246 -> 248       -0.31551

 Excited State   3:      Singlet-A      2.8896 eV  429.07 nm  f=0.0025  <S**2>=0.000
     244 -> 247        0.69036
     246 -> 248        0.10035

 Excited State   4:      Singlet-A      3.0302 eV  409.16 nm  f=0.0056  <S**2>=0.000
     241 -> 247       -0.43810
     241 -> 249        0.13348
     242 -> 247        0.50581

 Excited State   5:      Singlet-A      3.0501 eV  406.49 nm  f=0.0013  <S**2>=0.000
     240 -> 247        0.19531
     240 -> 249        0.14022
     241 -> 247        0.49010
     242 -> 247        0.40404
     242 -> 249        0.12087

 The electronic state is 1-A.
 Alpha  occ. eigenvalues --  -46.92276 -19.26263 -19.25948 -19.20311 -19.19533
 Alpha  occ. eigenvalues --  -19.19303 -19.19060 -14.42989 -14.41213 -14.39871
 Alpha  occ. eigenvalues --  -14.38315 -10.36506 -10.35922 -10.33161 -10.32243
 Alpha  occ. eigenvalues --  -10.29864 -10.29858 -10.29304 -10.29146 -10.29098
 Alpha  occ. eigenvalues --  -10.28455 -10.28110 -10.27420 -10.27411 -10.27245
 Alpha  occ. eigenvalues --  -10.26881 -10.26588 -10.26575 -10.26227 -10.26177
 Alpha  occ. eigenvalues --  -10.25992 -10.25645 -10.25507 -10.25460 -10.25456
 Alpha  occ. eigenvalues --  -10.25261 -10.24860 -10.24358 -10.24328 -10.24327
 Alpha  occ. eigenvalues --  -10.24291 -10.23908 -10.23814 -10.23756 -10.23694
 Alpha  occ. eigenvalues --  -10.23400 -10.23322 -10.23110 -10.23101 -10.23067
 Alpha  occ. eigenvalues --  -10.22933 -10.22787 -10.22718 -10.22458 -10.22392
 Alpha  occ. eigenvalues --  -10.22329 -10.22127 -10.21981 -10.21762 -10.21754
 Alpha  occ. eigenvalues --  -10.21731 -10.21693 -10.21656 -10.21586 -10.21508
 Alpha  occ. eigenvalues --  -10.21494  -3.14345  -1.87198  -1.86709  -1.86573
 Alpha  occ. eigenvalues --   -1.11431  -1.11114  -1.04313  -1.03604  -1.02611
 Alpha  occ. eigenvalues --   -1.02453  -0.99214  -0.98404  -0.97879  -0.96381
 Alpha  occ. eigenvalues --   -0.87120  -0.85057  -0.84596  -0.84167  -0.83813
 Alpha  occ. eigenvalues --   -0.83007  -0.82682  -0.81773  -0.81699  -0.80890
 Alpha  occ. eigenvalues --   -0.80533  -0.79538  -0.78493  -0.78237  -0.77944
 Alpha  occ. eigenvalues --   -0.76701  -0.76512  -0.75834  -0.75463  -0.74784
 Alpha  occ. eigenvalues --   -0.73815  -0.72481  -0.71927  -0.71616  -0.70213
 Alpha  occ. eigenvalues --   -0.69936  -0.69538  -0.69512  -0.68686  -0.68318
 Alpha  occ. eigenvalues --   -0.67357  -0.66840  -0.66497  -0.64987  -0.63173
 Alpha  occ. eigenvalues --   -0.62858  -0.62708  -0.61958  -0.61208  -0.60229
 Alpha  occ. eigenvalues --   -0.60131  -0.60082  -0.59953  -0.59047  -0.58837
 Alpha  occ. eigenvalues --   -0.58684  -0.57256  -0.56762  -0.56700  -0.54888
 Alpha  occ. eigenvalues --   -0.54654  -0.54024  -0.53467  -0.53272  -0.52491
 Alpha  occ. eigenvalues --   -0.51878  -0.51351  -0.51123  -0.50387  -0.50041
 Alpha  occ. eigenvalues --   -0.50007  -0.49404  -0.48973  -0.48792  -0.48564
 Alpha  occ. eigenvalues --   -0.48334  -0.47995  -0.47844  -0.47574  -0.47499
 Alpha  occ. eigenvalues --   -0.46865  -0.46727  -0.46585  -0.46500  -0.46216
 Alpha  occ. eigenvalues --   -0.46092  -0.45897  -0.45606  -0.45360  -0.45156
 Alpha  occ. eigenvalues --   -0.45018  -0.44885  -0.44697  -0.44601  -0.44151
 Alpha  occ. eigenvalues --   -0.44033  -0.43902  -0.43493  -0.43242  -0.43215
 Alpha  occ. eigenvalues --   -0.42999  -0.42826  -0.42663  -0.42554  -0.42468
 Alpha  occ. eigenvalues --   -0.42216  -0.41919  -0.41643  -0.41515  -0.41382
 Alpha  occ. eigenvalues --   -0.41111  -0.40922  -0.40736  -0.40553  -0.40433
 Alpha  occ. eigenvalues --   -0.40310  -0.40122  -0.39944  -0.39858  -0.39766
 Alpha  occ. eigenvalues --   -0.39367  -0.39180  -0.39100  -0.38891  -0.38759
 Alpha  occ. eigenvalues --   -0.38625  -0.38413  -0.38338  -0.38266  -0.38153
 Alpha  occ. eigenvalues --   -0.37864  -0.37682  -0.37400  -0.37087  -0.37059
 Alpha  occ. eigenvalues --   -0.36924  -0.36799  -0.36768  -0.36442  -0.36182
 Alpha  occ. eigenvalues --   -0.36029  -0.35853  -0.35552  -0.35399  -0.35072
 Alpha  occ. eigenvalues --   -0.34620  -0.34414  -0.34349  -0.33405  -0.33260
 Alpha  occ. eigenvalues --   -0.33058  -0.32974  -0.32706  -0.32577  -0.32218
 Alpha  occ. eigenvalues --   -0.32096  -0.31918  -0.31776  -0.31512  -0.31192
 Alpha  occ. eigenvalues --   -0.30717  -0.29915  -0.29819  -0.29588  -0.29376
 Alpha  occ. eigenvalues --   -0.29159  -0.28748  -0.28486  -0.26957  -0.26416
 Alpha  occ. eigenvalues --   -0.25526  -0.25474  -0.24650  -0.24470  -0.21452
 Alpha  occ. eigenvalues --   -0.18728
 Alpha virt. eigenvalues --   -0.11110  -0.05750  -0.04480  -0.02236  -0.00470
 Alpha virt. eigenvalues --    0.00037   0.00485   0.00978   0.02168   0.02878
 Alpha virt. eigenvalues --    0.03585   0.03966   0.05191   0.05616   0.05682

 Mulliken charges:
               1
     1  Mg   0.941544
     2  C    0.004400
     3  C   -0.063507
     4  C   -0.077089
     5  C   -0.070321
     6  N   -0.378145
     7  C    0.002981
     8  C   -0.048380
     9  C   -0.151172
    10  C    0.083376
    11  C    0.014346
    12  C   -0.021066
    13  C    0.034812
    14  C    0.221233
    15  O   -0.266242
    16  O   -0.378356
    17  N   -0.492855
    18  C    0.186393
    19  C   -0.178740
    20  C   -0.078621
    21  C    0.158239
    22  C    0.073947
    23  C    0.047246
    24  O   -0.260905
    25  C   -0.021344
    26  N   -0.400017
    27  C    0.122008
    28  C   -0.138091
    29  C   -0.083847
    30  C    0.077318
    31  C    0.002545
    32  C   -0.026225
    33  C   -0.071270
    34  N   -0.475400
    35  C    0.150155
    36  C   -0.198253
    37  C   -0.043631
    38  C    0.155620
    39  C    0.073252
    40  C    0.142639
    41  O   -0.227139
    42  C   -0.088898
    43  C    0.261131
    44  O   -0.252773
    45  O   -0.352614
    46  C    0.115643
    47  C    0.235103
    48  C   -0.143028
    49  C   -0.221283
    50  C    0.038620
    51  C   -0.030032
    52  C   -0.053526
    53  C    0.056206
    54  C   -0.207396
    55  C   -0.007796
    56  C    0.013175
    57  C   -0.066470
    58  C    0.023738
    59  C   -0.247127
    60  C    0.030227
    61  C   -0.023289
    62  C   -0.033271
    63  C    0.040701
    64  C   -0.287060
    65  C   -0.007366
    66  C   -0.032724
    67  H    0.004866
    68  H   -0.023177
    69  H   -0.003248
    70  H    0.047649
    71  H    0.043588
    72  H    0.051051
    73  H    0.054209
    74  H    0.045652
    75  H    0.044371
    76  H    0.083235
    77  H    0.052989
    78  H    0.050106
    79  H    0.050512
    80  H    0.066458
    81  H    0.040421
    82  H    0.074124
    83  H    0.056838
    84  H    0.069342
    85  H    0.059649
    86  H    0.041398
    87  H    0.049264
    88  H    0.039851
    89  H    0.045744
    90  H    0.061197
    91  H    0.038772
    92  H    0.046398
    93  H    0.040884
    94  H    0.046939
    95  H    0.047028
    96  H    0.032009
    97  H    0.061333
    98  H    0.076151
    99  H    0.038185
   100  H    0.082423
   101  H    0.054756
   102  H    0.054618
   103  H    0.068020
   104  H    0.033074
   105  H    0.035872
   106  H    0.040775
   107  H    0.045137
   108  H    0.033274
   109  H    0.037247
   110  H    0.038228
   111  H    0.041005
   112  H    0.022790
   113  H    0.041846
   114  H    0.053650
   115  H    0.021255
   116  H    0.025194
   117  H    0.042995
   118  H    0.018801
   119  H    0.009428
   120  H    0.025070
   121  H    0.017221
   122  H    0.010911
   123  H    0.021038
   124  H    0.018840
   125  H    0.040160
   126  H    0.027461
   127  H    0.030081
   128  H    0.022885
   129  H    0.022952
   130  H    0.021965
   131  H    0.007757
   132  H    0.025839
   133  H    0.021954
   134  H    0.040820
   135  H    0.032542
   136  H    0.030377
   137  H    0.046672
   138  H    0.032930
   139  H    0.044288
   140  H    0.022729
 Sum of Mulliken charges =  -0.00000

 Dipole moment (field-independent basis, Debye):
    X=             -1.5972    Y=              3.8329    Z=              0.6475  Tot=              4.2026
 Quadrupole moment (field-independent basis, Debye-Ang):
   XX=           -400.6982   YY=           -428.9388   ZZ=           -377.3531
   XY=             59.3554   XZ=              4.2683   YZ=             16.1941

 Normal termination of Gaussian 16 at Thu May  5 09:41:04 2022.
