 Gaussian 16, Revision A.03,
 Gaussian 16:  ES64L-G16RevA.03 25-Dec-2016

 --------------------------------
 #p wB97XD/Def2SVP td=(nstates=5)
 --------------------------------

 ----------------------------------------------------
 step_801_chromophore_20 TDDFT with wB97XD functional
 ----------------------------------------------------
 Symbolic Z-matrix:
 Charge =  0 Multiplicity = 1

                         Standard orientation:
 ---------------------------------------------------------------------
 Center     Atomic      Atomic             Coordinates (Angstroms)
 Number     Number       Type             X           Y           Z
 ---------------------------------------------------------------------
      1         12           0        4.059373    1.461753   -0.460534
      2          6           0        4.216148   -2.010941   -1.381641
      3          6           0        1.457320    1.814120   -2.587528
      4          6           0        3.981453    4.660370    0.424948
      5          6           0        6.865309    0.971190    1.532676
      6          7           0        2.896444   -0.002510   -1.654074
      7          6           0        2.976017   -1.388266   -1.834598
      8          6           0        1.838778   -2.010724   -2.642312
      9          6           0        1.273641   -0.722975   -3.296196
     10          6           0        1.907472    0.463123   -2.480284
     11          6           0        1.569940   -0.620244   -4.812814
     12          6           0        0.910518   -2.778545   -1.605408
     13          6           0        0.121829   -4.036031   -2.031624
     14          6           0       -0.411998   -4.882337   -0.905733
     15          8           0       -0.011328   -6.013188   -0.652768
     16          8           0       -1.365143   -4.221453   -0.150243
     17          7           0        2.784636    3.007546   -0.915200
     18          6           0        1.864139    2.946653   -1.917648
     19          6           0        1.364832    4.327987   -2.150735
     20          6           0        1.846962    5.136291   -1.079808
     21          6           0        2.994449    4.265277   -0.484435
     22          6           0        0.462557    4.767291   -3.272769
     23          6           0        1.460754    6.575668   -0.665011
     24          8           0        0.576731    7.145581   -1.316735
     25          6           0        2.010252    7.323957    0.544588
     26          7           0        5.008749    2.575289    1.078645
     27          6           0        4.885596    3.900465    1.147611
     28          6           0        5.745742    4.454336    2.325080
     29          6           0        6.755246    3.234875    2.541382
     30          6           0        6.200440    2.176332    1.645761
     31          6           0        6.396548    5.804648    1.985306
     32          6           0        6.853493    2.727916    4.051712
     33          6           0        8.268799    2.563454    4.582965
     34          7           0        5.237344   -0.204330    0.206168
     35          6           0        6.452951   -0.202920    0.854452
     36          6           0        7.067785   -1.454092    0.692585
     37          6           0        6.229168   -2.234839   -0.137260
     38          6           0        5.112050   -1.429629   -0.470338
     39          6           0        8.412984   -1.877079    1.252860
     40          6           0        6.058899   -3.534668   -0.852491
     41          8           0        6.853333   -4.481433   -0.886035
     42          6           0        4.770758   -3.379808   -1.688031
     43          6           0        3.983338   -4.579435   -1.360894
     44          8           0        3.593186   -4.869742   -0.241694
     45          8           0        3.799319   -5.325024   -2.487147
     46          6           0        3.080757   -6.570296   -2.189678
     47          6           0       -1.933439   -5.100171    0.876485
     48          6           0       -3.267914   -4.383594    1.165258
     49          6           0       -4.260023   -4.873906    1.882004
     50          6           0       -4.172151   -6.014902    2.854757
     51          6           0       -5.535616   -4.017332    2.113990
     52          6           0       -5.147562   -2.907896    3.127480
     53          6           0       -6.411665   -2.559888    3.950670
     54          6           0       -6.599561   -1.037249    3.868829
     55          6           0       -6.807333   -0.373903    5.270407
     56          6           0       -7.790635   -0.668543    2.997722
     57          6           0       -7.476990    0.630232    2.192270
     58          6           0       -7.495060    0.477964    0.653538
     59          6           0       -8.834413    0.728174    0.069328
     60          6           0       -9.194818   -0.113609   -1.137643
     61          6           0       -8.975809    2.252796   -0.210964
     62          6           0      -10.288601    2.974624    0.092617
     63          6           0      -10.915414    3.619520   -1.064496
     64          6           0      -11.619115    2.591406   -1.994445
     65          6           0      -11.375987    2.814053   -3.533269
     66          6           0      -13.209582    2.643689   -1.830124
     67          1           0        0.716418    1.989075   -3.371354
     68          1           0        3.931696    5.743550    0.555528
     69          1           0        7.766895    0.885170    2.142536
     70          1           0        2.289470   -2.599318   -3.441631
     71          1           0        0.187913   -0.726133   -3.212577
     72          1           0        1.743617   -1.622630   -5.203269
     73          1           0        2.389403    0.091058   -4.911789
     74          1           0        0.721739   -0.176548   -5.336020
     75          1           0        0.221032   -2.001059   -1.275512
     76          1           0        1.375782   -3.100861   -0.673995
     77          1           0        0.736925   -4.583352   -2.745211
     78          1           0       -0.771817   -3.690145   -2.550709
     79          1           0        0.822098    5.705636   -3.694062
     80          1           0       -0.476579    5.122111   -2.846863
     81          1           0        0.384793    4.127739   -4.151706
     82          1           0        2.931342    7.803914    0.214070
     83          1           0        2.309351    6.649278    1.346905
     84          1           0        1.289212    8.046900    0.927402
     85          1           0        5.126703    4.646014    3.201360
     86          1           0        7.670871    3.602559    2.078712
     87          1           0        7.347985    5.861893    2.513705
     88          1           0        5.709592    6.570561    2.346261
     89          1           0        6.515715    6.031016    0.926783
     90          1           0        6.283196    1.799336    4.089193
     91          1           0        6.398361    3.427596    4.752633
     92          1           0        8.478111    3.219610    5.428236
     93          1           0        9.032525    2.760046    3.829918
     94          1           0        8.351768    1.516310    4.872876
     95          1           0        8.224026   -2.505425    2.122852
     96          1           0        9.088413   -1.148858    1.703265
     97          1           0        8.899198   -2.545495    0.541868
     98          1           0        5.106192   -3.544209   -2.711992
     99          1           0        2.042514   -6.339338   -2.426630
    100          1           0        3.050698   -6.893220   -1.149728
    101          1           0        3.307351   -7.447402   -2.795239
    102          1           0       -1.206031   -5.123508    1.688092
    103          1           0       -2.062905   -6.149057    0.609625
    104          1           0       -3.372996   -3.383340    0.744251
    105          1           0       -5.022033   -6.650788    2.607738
    106          1           0       -4.431767   -5.640261    3.845020
    107          1           0       -3.243969   -6.580176    2.940783
    108          1           0       -6.399870   -4.669236    2.234593
    109          1           0       -5.667773   -3.589231    1.120231
    110          1           0       -4.620893   -2.164590    2.527461
    111          1           0       -4.354831   -3.239094    3.797833
    112          1           0       -6.200482   -2.805159    4.991727
    113          1           0       -7.258477   -3.145317    3.592932
    114          1           0       -5.734122   -0.586133    3.384958
    115          1           0       -5.863472    0.130908    5.478027
    116          1           0       -6.801936   -1.032154    6.139311
    117          1           0       -7.620346    0.336684    5.415116
    118          1           0       -8.755517   -0.432425    3.446629
    119          1           0       -8.167754   -1.453536    2.341815
    120          1           0       -6.599916    1.143932    2.585563
    121          1           0       -8.263389    1.351023    2.417431
    122          1           0       -7.237184   -0.563641    0.460967
    123          1           0       -6.770169    1.044652    0.069151
    124          1           0       -9.610391    0.534705    0.808954
    125          1           0      -10.157187   -0.607628   -1.003986
    126          1           0       -8.417846   -0.851367   -1.336838
    127          1           0       -9.302289    0.548436   -1.996530
    128          1           0       -8.439861    2.439689   -1.141158
    129          1           0       -8.322428    2.772825    0.489330
    130          1           0      -10.328706    3.598402    0.985773
    131          1           0      -10.973903    2.203107    0.444038
    132          1           0      -10.130597    4.100846   -1.649092
    133          1           0      -11.641472    4.319963   -0.653725
    134          1           0      -11.310395    1.587523   -1.701908
    135          1           0      -12.320534    2.608239   -4.037708
    136          1           0      -10.701787    1.992344   -3.773372
    137          1           0      -10.946340    3.779646   -3.800469
    138          1           0      -13.650020    1.649245   -1.757380
    139          1           0      -13.710189    3.190404   -2.628776
    140          1           0      -13.393636    3.112235   -0.862251
 ---------------------------------------------------------------------

 SCF Done:  E(RwB97XD) =  -3007.83484914     A.U. after   19 cycles

 Excitation energies and oscillator strengths:

 Excited State   1:      Singlet-A      1.6732 eV  741.01 nm  f=0.3576  <S**2>=0.000
     245 -> 248        0.17568
     246 -> 247        0.68375
     245 <- 248        0.11145
 This state for optimization and/or second-order correction.
 Total Energy, E(TD-HF/TD-DFT) =  -3007.77336117
 Copying the excited state density for this state as the 1-particle RhoCI density.

 Excited State   2:      Singlet-A      2.2895 eV  541.54 nm  f=0.0545  <S**2>=0.000
     245 -> 247        0.60448
     246 -> 248       -0.34815

 Excited State   3:      Singlet-A      3.3347 eV  371.80 nm  f=0.0096  <S**2>=0.000
     241 -> 247        0.12068
     244 -> 247        0.65145
     244 -> 249       -0.11402
     246 -> 248        0.16120

 Excited State   4:      Singlet-A      3.4521 eV  359.16 nm  f=0.2267  <S**2>=0.000
     239 -> 249        0.17662
     241 -> 247        0.47090
     241 -> 249        0.17061
     245 -> 247       -0.18044
     246 -> 248       -0.37816

 Excited State   5:      Singlet-A      3.5307 eV  351.16 nm  f=0.5390  <S**2>=0.000
     239 -> 247        0.21640
     239 -> 249        0.21211
     240 -> 247        0.11098
     241 -> 247        0.19317
     241 -> 249        0.12708
     242 -> 247       -0.14696
     244 -> 247       -0.16734
     245 -> 247        0.27439
     246 -> 248        0.42126

 The electronic state is 1-A.
 Alpha  occ. eigenvalues --  -46.95270 -19.30756 -19.30454 -19.24907 -19.24427
 Alpha  occ. eigenvalues --  -19.24163 -19.23624 -14.48278 -14.46131 -14.45027
 Alpha  occ. eigenvalues --  -14.43040 -10.43228 -10.42689 -10.40277 -10.38856
 Alpha  occ. eigenvalues --  -10.36426 -10.36220 -10.35805 -10.35776 -10.35549
 Alpha  occ. eigenvalues --  -10.35285 -10.34446 -10.34136 -10.33867 -10.33437
 Alpha  occ. eigenvalues --  -10.33280 -10.32933 -10.32921 -10.32443 -10.32280
 Alpha  occ. eigenvalues --  -10.32263 -10.32100 -10.31953 -10.31731 -10.31633
 Alpha  occ. eigenvalues --  -10.31576 -10.31062 -10.30805 -10.30702 -10.30699
 Alpha  occ. eigenvalues --  -10.30544 -10.30527 -10.30271 -10.30048 -10.29971
 Alpha  occ. eigenvalues --  -10.29683 -10.29624 -10.29496 -10.29450 -10.29447
 Alpha  occ. eigenvalues --  -10.29222 -10.28873 -10.28813 -10.28750 -10.28670
 Alpha  occ. eigenvalues --  -10.28633 -10.28506 -10.28351 -10.28161 -10.28152
 Alpha  occ. eigenvalues --  -10.28132 -10.28094 -10.28093 -10.28031 -10.27955
 Alpha  occ. eigenvalues --  -10.27909  -3.21189  -1.94792  -1.94302  -1.94166
 Alpha  occ. eigenvalues --   -1.18754  -1.18436  -1.12101  -1.10869  -1.09893
 Alpha  occ. eigenvalues --   -1.09744  -1.06752  -1.05883  -1.05389  -1.03444
 Alpha  occ. eigenvalues --   -0.94596  -0.92723  -0.92254  -0.91790  -0.91486
 Alpha  occ. eigenvalues --   -0.90671  -0.90313  -0.89435  -0.89362  -0.88809
 Alpha  occ. eigenvalues --   -0.88311  -0.86872  -0.86061  -0.85753  -0.85609
 Alpha  occ. eigenvalues --   -0.84411  -0.84338  -0.83530  -0.83041  -0.82419
 Alpha  occ. eigenvalues --   -0.81452  -0.80096  -0.79590  -0.79383  -0.77716
 Alpha  occ. eigenvalues --   -0.77595  -0.77214  -0.77148  -0.76397  -0.76016
 Alpha  occ. eigenvalues --   -0.74898  -0.74295  -0.74050  -0.72596  -0.70720
 Alpha  occ. eigenvalues --   -0.70467  -0.70313  -0.69601  -0.68868  -0.67797
 Alpha  occ. eigenvalues --   -0.67730  -0.67564  -0.67465  -0.66514  -0.66448
 Alpha  occ. eigenvalues --   -0.66132  -0.64939  -0.64374  -0.64080  -0.62368
 Alpha  occ. eigenvalues --   -0.62165  -0.61375  -0.60980  -0.60713  -0.59925
 Alpha  occ. eigenvalues --   -0.59301  -0.58857  -0.58592  -0.57730  -0.57431
 Alpha  occ. eigenvalues --   -0.57278  -0.56787  -0.56313  -0.56066  -0.56016
 Alpha  occ. eigenvalues --   -0.55714  -0.55402  -0.55123  -0.55045  -0.54938
 Alpha  occ. eigenvalues --   -0.54221  -0.54113  -0.54096  -0.53849  -0.53593
 Alpha  occ. eigenvalues --   -0.53476  -0.53226  -0.52889  -0.52743  -0.52534
 Alpha  occ. eigenvalues --   -0.52422  -0.52273  -0.52105  -0.51916  -0.51528
 Alpha  occ. eigenvalues --   -0.51470  -0.51325  -0.50781  -0.50561  -0.50488
 Alpha  occ. eigenvalues --   -0.50188  -0.50137  -0.50027  -0.49792  -0.49759
 Alpha  occ. eigenvalues --   -0.49505  -0.49205  -0.48968  -0.48732  -0.48407
 Alpha  occ. eigenvalues --   -0.48374  -0.48104  -0.47998  -0.47972  -0.47652
 Alpha  occ. eigenvalues --   -0.47483  -0.47248  -0.47086  -0.47008  -0.46929
 Alpha  occ. eigenvalues --   -0.46631  -0.46423  -0.46198  -0.46015  -0.45851
 Alpha  occ. eigenvalues --   -0.45747  -0.45580  -0.45476  -0.45338  -0.45284
 Alpha  occ. eigenvalues --   -0.44873  -0.44723  -0.44426  -0.44285  -0.44168
 Alpha  occ. eigenvalues --   -0.44159  -0.43918  -0.43771  -0.43455  -0.43202
 Alpha  occ. eigenvalues --   -0.43096  -0.43019  -0.42610  -0.42467  -0.42009
 Alpha  occ. eigenvalues --   -0.41691  -0.41458  -0.41346  -0.40494  -0.40170
 Alpha  occ. eigenvalues --   -0.40120  -0.40004  -0.39752  -0.39631  -0.39154
 Alpha  occ. eigenvalues --   -0.39066  -0.38969  -0.38803  -0.38514  -0.38208
 Alpha  occ. eigenvalues --   -0.37726  -0.36883  -0.36581  -0.36537  -0.36381
 Alpha  occ. eigenvalues --   -0.36065  -0.35781  -0.35211  -0.33814  -0.33500
 Alpha  occ. eigenvalues --   -0.32608  -0.32368  -0.31387  -0.30657  -0.26586
 Alpha  occ. eigenvalues --   -0.22935
 Alpha virt. eigenvalues --   -0.06801  -0.00356   0.01709   0.04351   0.05485
 Alpha virt. eigenvalues --    0.06614   0.07322   0.07801   0.08941   0.09352
 Alpha virt. eigenvalues --    0.10164   0.10684   0.11823   0.12299   0.12315

 Mulliken charges:
               1
     1  Mg   0.932495
     2  C    0.000445
     3  C   -0.082123
     4  C   -0.093059
     5  C   -0.089193
     6  N   -0.344481
     7  C   -0.033365
     8  C   -0.020630
     9  C   -0.127985
    10  C    0.069671
    11  C    0.023553
    12  C   -0.012382
    13  C    0.054346
    14  C    0.213087
    15  O   -0.263781
    16  O   -0.378040
    17  N   -0.461067
    18  C    0.185087
    19  C   -0.162966
    20  C   -0.075591
    21  C    0.157230
    22  C    0.080516
    23  C    0.043433
    24  O   -0.255212
    25  C   -0.006465
    26  N   -0.373266
    27  C    0.118561
    28  C   -0.117987
    29  C   -0.057022
    30  C    0.071961
    31  C    0.013207
    32  C   -0.011468
    33  C   -0.056778
    34  N   -0.440021
    35  C    0.137714
    36  C   -0.193200
    37  C   -0.037356
    38  C    0.138805
    39  C    0.081280
    40  C    0.122189
    41  O   -0.219183
    42  C   -0.046233
    43  C    0.232129
    44  O   -0.246056
    45  O   -0.350416
    46  C    0.136431
    47  C    0.244168
    48  C   -0.153039
    49  C   -0.200287
    50  C    0.050009
    51  C   -0.010811
    52  C   -0.037927
    53  C    0.070074
    54  C   -0.168183
    55  C    0.001122
    56  C    0.021114
    57  C   -0.047951
    58  C    0.045091
    59  C   -0.214181
    60  C    0.043656
    61  C   -0.013873
    62  C   -0.009069
    63  C    0.054776
    64  C   -0.255444
    65  C    0.007643
    66  C   -0.017580
    67  H   -0.000155
    68  H   -0.040133
    69  H   -0.014350
    70  H    0.035510
    71  H    0.034467
    72  H    0.046907
    73  H    0.047390
    74  H    0.040453
    75  H    0.035818
    76  H    0.073890
    77  H    0.044200
    78  H    0.043171
    79  H    0.047895
    80  H    0.064906
    81  H    0.038723
    82  H    0.070567
    83  H    0.051182
    84  H    0.069471
    85  H    0.051397
    86  H    0.029254
    87  H    0.044464
    88  H    0.033287
    89  H    0.039967
    90  H    0.053073
    91  H    0.030112
    92  H    0.041147
    93  H    0.034212
    94  H    0.041627
    95  H    0.039236
    96  H    0.025930
    97  H    0.055765
    98  H    0.070624
    99  H    0.026313
   100  H    0.079328
   101  H    0.051709
   102  H    0.050556
   103  H    0.062870
   104  H    0.029367
   105  H    0.029087
   106  H    0.033618
   107  H    0.041645
   108  H    0.026120
   109  H    0.027264
   110  H    0.028926
   111  H    0.031011
   112  H    0.014675
   113  H    0.032737
   114  H    0.037022
   115  H    0.015099
   116  H    0.019340
   117  H    0.037826
   118  H    0.011185
   119  H   -0.001157
   120  H    0.017264
   121  H    0.004874
   122  H   -0.002441
   123  H    0.013001
   124  H    0.002462
   125  H    0.036090
   126  H    0.022863
   127  H    0.018621
   128  H    0.012611
   129  H    0.012347
   130  H    0.016673
   131  H   -0.005974
   132  H    0.015548
   133  H    0.014503
   134  H    0.019569
   135  H    0.025769
   136  H    0.023334
   137  H    0.041665
   138  H    0.027764
   139  H    0.037831
   140  H    0.014957
 Sum of Mulliken charges =  -0.00000

 Dipole moment (field-independent basis, Debye):
    X=             -2.1753    Y=              4.5655    Z=              0.2776  Tot=              5.0649
 Quadrupole moment (field-independent basis, Debye-Ang):
   XX=           -405.4386   YY=           -425.7931   ZZ=           -376.6124
   XY=             60.8246   XZ=              2.9968   YZ=             15.3060

 Normal termination of Gaussian 16 at Thu May  5 10:11:24 2022.
