 Gaussian 16, Revision A.03,
 Gaussian 16:  ES64L-G16RevA.03 25-Dec-2016

 --------------------
 #p ZINDO=(nstates=5)
 --------------------

 -----------------------------
 step_801_chromophore_20 ZINDO
 -----------------------------
 Symbolic Z-matrix:
 Charge =  0 Multiplicity = 1

                         Standard orientation:
 ---------------------------------------------------------------------
 Center     Atomic      Atomic             Coordinates (Angstroms)
 Number     Number       Type             X           Y           Z
 ---------------------------------------------------------------------
      1         12           0        4.059373    1.461753   -0.460534
      2          6           0        4.216148   -2.010941   -1.381641
      3          6           0        1.457320    1.814120   -2.587528
      4          6           0        3.981453    4.660370    0.424948
      5          6           0        6.865309    0.971190    1.532676
      6          7           0        2.896444   -0.002510   -1.654074
      7          6           0        2.976017   -1.388266   -1.834598
      8          6           0        1.838778   -2.010724   -2.642312
      9          6           0        1.273641   -0.722975   -3.296196
     10          6           0        1.907472    0.463123   -2.480284
     11          6           0        1.569940   -0.620244   -4.812814
     12          6           0        0.910518   -2.778545   -1.605408
     13          6           0        0.121829   -4.036031   -2.031624
     14          6           0       -0.411998   -4.882337   -0.905733
     15          8           0       -0.011328   -6.013188   -0.652768
     16          8           0       -1.365143   -4.221453   -0.150243
     17          7           0        2.784636    3.007546   -0.915200
     18          6           0        1.864139    2.946653   -1.917648
     19          6           0        1.364832    4.327987   -2.150735
     20          6           0        1.846962    5.136291   -1.079808
     21          6           0        2.994449    4.265277   -0.484435
     22          6           0        0.462557    4.767291   -3.272769
     23          6           0        1.460754    6.575668   -0.665011
     24          8           0        0.576731    7.145581   -1.316735
     25          6           0        2.010252    7.323957    0.544588
     26          7           0        5.008749    2.575289    1.078645
     27          6           0        4.885596    3.900465    1.147611
     28          6           0        5.745742    4.454336    2.325080
     29          6           0        6.755246    3.234875    2.541382
     30          6           0        6.200440    2.176332    1.645761
     31          6           0        6.396548    5.804648    1.985306
     32          6           0        6.853493    2.727916    4.051712
     33          6           0        8.268799    2.563454    4.582965
     34          7           0        5.237344   -0.204330    0.206168
     35          6           0        6.452951   -0.202920    0.854452
     36          6           0        7.067785   -1.454092    0.692585
     37          6           0        6.229168   -2.234839   -0.137260
     38          6           0        5.112050   -1.429629   -0.470338
     39          6           0        8.412984   -1.877079    1.252860
     40          6           0        6.058899   -3.534668   -0.852491
     41          8           0        6.853333   -4.481433   -0.886035
     42          6           0        4.770758   -3.379808   -1.688031
     43          6           0        3.983338   -4.579435   -1.360894
     44          8           0        3.593186   -4.869742   -0.241694
     45          8           0        3.799319   -5.325024   -2.487147
     46          6           0        3.080757   -6.570296   -2.189678
     47          6           0       -1.933439   -5.100171    0.876485
     48          6           0       -3.267914   -4.383594    1.165258
     49          6           0       -4.260023   -4.873906    1.882004
     50          6           0       -4.172151   -6.014902    2.854757
     51          6           0       -5.535616   -4.017332    2.113990
     52          6           0       -5.147562   -2.907896    3.127480
     53          6           0       -6.411665   -2.559888    3.950670
     54          6           0       -6.599561   -1.037249    3.868829
     55          6           0       -6.807333   -0.373903    5.270407
     56          6           0       -7.790635   -0.668543    2.997722
     57          6           0       -7.476990    0.630232    2.192270
     58          6           0       -7.495060    0.477964    0.653538
     59          6           0       -8.834413    0.728174    0.069328
     60          6           0       -9.194818   -0.113609   -1.137643
     61          6           0       -8.975809    2.252796   -0.210964
     62          6           0      -10.288601    2.974624    0.092617
     63          6           0      -10.915414    3.619520   -1.064496
     64          6           0      -11.619115    2.591406   -1.994445
     65          6           0      -11.375987    2.814053   -3.533269
     66          6           0      -13.209582    2.643689   -1.830124
     67          1           0        0.716418    1.989075   -3.371354
     68          1           0        3.931696    5.743550    0.555528
     69          1           0        7.766895    0.885170    2.142536
     70          1           0        2.289470   -2.599318   -3.441631
     71          1           0        0.187913   -0.726133   -3.212577
     72          1           0        1.743617   -1.622630   -5.203269
     73          1           0        2.389403    0.091058   -4.911789
     74          1           0        0.721739   -0.176548   -5.336020
     75          1           0        0.221032   -2.001059   -1.275512
     76          1           0        1.375782   -3.100861   -0.673995
     77          1           0        0.736925   -4.583352   -2.745211
     78          1           0       -0.771817   -3.690145   -2.550709
     79          1           0        0.822098    5.705636   -3.694062
     80          1           0       -0.476579    5.122111   -2.846863
     81          1           0        0.384793    4.127739   -4.151706
     82          1           0        2.931342    7.803914    0.214070
     83          1           0        2.309351    6.649278    1.346905
     84          1           0        1.289212    8.046900    0.927402
     85          1           0        5.126703    4.646014    3.201360
     86          1           0        7.670871    3.602559    2.078712
     87          1           0        7.347985    5.861893    2.513705
     88          1           0        5.709592    6.570561    2.346261
     89          1           0        6.515715    6.031016    0.926783
     90          1           0        6.283196    1.799336    4.089193
     91          1           0        6.398361    3.427596    4.752633
     92          1           0        8.478111    3.219610    5.428236
     93          1           0        9.032525    2.760046    3.829918
     94          1           0        8.351768    1.516310    4.872876
     95          1           0        8.224026   -2.505425    2.122852
     96          1           0        9.088413   -1.148858    1.703265
     97          1           0        8.899198   -2.545495    0.541868
     98          1           0        5.106192   -3.544209   -2.711992
     99          1           0        2.042514   -6.339338   -2.426630
    100          1           0        3.050698   -6.893220   -1.149728
    101          1           0        3.307351   -7.447402   -2.795239
    102          1           0       -1.206031   -5.123508    1.688092
    103          1           0       -2.062905   -6.149057    0.609625
    104          1           0       -3.372996   -3.383340    0.744251
    105          1           0       -5.022033   -6.650788    2.607738
    106          1           0       -4.431767   -5.640261    3.845020
    107          1           0       -3.243969   -6.580176    2.940783
    108          1           0       -6.399870   -4.669236    2.234593
    109          1           0       -5.667773   -3.589231    1.120231
    110          1           0       -4.620893   -2.164590    2.527461
    111          1           0       -4.354831   -3.239094    3.797833
    112          1           0       -6.200482   -2.805159    4.991727
    113          1           0       -7.258477   -3.145317    3.592932
    114          1           0       -5.734122   -0.586133    3.384958
    115          1           0       -5.863472    0.130908    5.478027
    116          1           0       -6.801936   -1.032154    6.139311
    117          1           0       -7.620346    0.336684    5.415116
    118          1           0       -8.755517   -0.432425    3.446629
    119          1           0       -8.167754   -1.453536    2.341815
    120          1           0       -6.599916    1.143932    2.585563
    121          1           0       -8.263389    1.351023    2.417431
    122          1           0       -7.237184   -0.563641    0.460967
    123          1           0       -6.770169    1.044652    0.069151
    124          1           0       -9.610391    0.534705    0.808954
    125          1           0      -10.157187   -0.607628   -1.003986
    126          1           0       -8.417846   -0.851367   -1.336838
    127          1           0       -9.302289    0.548436   -1.996530
    128          1           0       -8.439861    2.439689   -1.141158
    129          1           0       -8.322428    2.772825    0.489330
    130          1           0      -10.328706    3.598402    0.985773
    131          1           0      -10.973903    2.203107    0.444038
    132          1           0      -10.130597    4.100846   -1.649092
    133          1           0      -11.641472    4.319963   -0.653725
    134          1           0      -11.310395    1.587523   -1.701908
    135          1           0      -12.320534    2.608239   -4.037708
    136          1           0      -10.701787    1.992344   -3.773372
    137          1           0      -10.946340    3.779646   -3.800469
    138          1           0      -13.650020    1.649245   -1.757380
    139          1           0      -13.710189    3.190404   -2.628776
    140          1           0      -13.393636    3.112235   -0.862251
 ---------------------------------------------------------------------

 SCF Done:  E(RZINDO/S) =  -474.289106884     A.U. after   19 cycles

 Excitation energies and oscillator strengths:

 Excited State   1:      Singlet-A      1.2829 eV  966.44 nm  f=0.5104  <S**2>=0.000
     175 ->178         0.15479
     176 ->177         0.67061
 This state for optimization and/or second-order correction.
 Total Energy, E(CIS/TDA) =  -474.241961115
 Copying the excited state density for this state as the 1-particle RhoCI density.

 Excited State   2:      Singlet-A      1.9670 eV  630.33 nm  f=0.0023  <S**2>=0.000
     175 ->177        -0.47266
     176 ->178         0.49360

 Excited State   3:      Singlet-A      2.9261 eV  423.72 nm  f=0.4105  <S**2>=0.000
     175 ->177        -0.26576
     176 ->178        -0.24540
     176 ->179         0.47433
     176 ->180        -0.29603

 Excited State   4:      Singlet-A      2.9521 eV  419.99 nm  f=0.0891  <S**2>=0.000
     166 ->179         0.12673
     167 ->177        -0.18127
     167 ->179         0.30393
     167 ->180         0.12741
     167 ->185         0.14442
     168 ->177        -0.17689
     168 ->179         0.29673
     168 ->180         0.11798
     168 ->185         0.13770
     171 ->177         0.16202
     171 ->179        -0.13015
     175 ->177         0.14153
     176 ->178         0.14890

 Excited State   5:      Singlet-A      3.0081 eV  412.17 nm  f=0.6134  <S**2>=0.000
     170 ->177        -0.11604
     170 ->180         0.12096
     175 ->177         0.34375
     176 ->178         0.35572
     176 ->179         0.35757

 The electronic state is 1-A.
 Alpha  occ. eigenvalues --   -1.82659  -1.81053  -1.79974  -1.73538  -1.73203
 Alpha  occ. eigenvalues --   -1.70233  -1.68459  -1.62808  -1.58822  -1.57572
 Alpha  occ. eigenvalues --   -1.56421  -1.51704  -1.47981  -1.46838  -1.46213
 Alpha  occ. eigenvalues --   -1.44256  -1.42980  -1.40555  -1.38519  -1.37642
 Alpha  occ. eigenvalues --   -1.37007  -1.33591  -1.32979  -1.30781  -1.29513
 Alpha  occ. eigenvalues --   -1.27533  -1.27205  -1.23322  -1.20497  -1.18051
 Alpha  occ. eigenvalues --   -1.16574  -1.15818  -1.15479  -1.13900  -1.13677
 Alpha  occ. eigenvalues --   -1.12366  -1.10292  -1.10166  -1.04162  -1.03220
 Alpha  occ. eigenvalues --   -1.00646  -0.99813  -0.99049  -0.98083  -0.96381
 Alpha  occ. eigenvalues --   -0.96163  -0.95467  -0.94782  -0.93319  -0.92580
 Alpha  occ. eigenvalues --   -0.92032  -0.90652  -0.90003  -0.88916  -0.87513
 Alpha  occ. eigenvalues --   -0.86557  -0.85333  -0.84323  -0.82663  -0.80161
 Alpha  occ. eigenvalues --   -0.79603  -0.78772  -0.77444  -0.77006  -0.76528
 Alpha  occ. eigenvalues --   -0.75430  -0.74614  -0.74503  -0.73843  -0.73478
 Alpha  occ. eigenvalues --   -0.72698  -0.72017  -0.71652  -0.71350  -0.71175
 Alpha  occ. eigenvalues --   -0.70729  -0.70016  -0.69374  -0.68641  -0.68010
 Alpha  occ. eigenvalues --   -0.67056  -0.66488  -0.66251  -0.65823  -0.65122
 Alpha  occ. eigenvalues --   -0.64935  -0.64543  -0.63973  -0.63720  -0.63350
 Alpha  occ. eigenvalues --   -0.63245  -0.62979  -0.62834  -0.62687  -0.62567
 Alpha  occ. eigenvalues --   -0.61931  -0.61128  -0.60098  -0.59984  -0.59809
 Alpha  occ. eigenvalues --   -0.59263  -0.59179  -0.58477  -0.58187  -0.58086
 Alpha  occ. eigenvalues --   -0.57847  -0.57697  -0.57026  -0.56732  -0.56704
 Alpha  occ. eigenvalues --   -0.56434  -0.55997  -0.55729  -0.55361  -0.55164
 Alpha  occ. eigenvalues --   -0.54841  -0.54306  -0.53230  -0.52966  -0.52925
 Alpha  occ. eigenvalues --   -0.52628  -0.52323  -0.51986  -0.51540  -0.51308
 Alpha  occ. eigenvalues --   -0.51285  -0.50595  -0.50549  -0.50233  -0.50145
 Alpha  occ. eigenvalues --   -0.50020  -0.49886  -0.49702  -0.49259  -0.49047
 Alpha  occ. eigenvalues --   -0.48580  -0.48477  -0.47984  -0.47697  -0.47561
 Alpha  occ. eigenvalues --   -0.47274  -0.46926  -0.46859  -0.46644  -0.46331
 Alpha  occ. eigenvalues --   -0.45901  -0.45651  -0.45619  -0.45452  -0.45347
 Alpha  occ. eigenvalues --   -0.45114  -0.44704  -0.44263  -0.44094  -0.43885
 Alpha  occ. eigenvalues --   -0.43647  -0.43423  -0.42325  -0.42102  -0.41897
 Alpha  occ. eigenvalues --   -0.41552  -0.41161  -0.40621  -0.39309  -0.38054
 Alpha  occ. eigenvalues --   -0.37553  -0.37076  -0.36539  -0.34645  -0.34116
 Alpha  occ. eigenvalues --   -0.33894  -0.32690  -0.31620  -0.31137  -0.27198
 Alpha  occ. eigenvalues --   -0.21702
 Alpha virt. eigenvalues --   -0.08074  -0.02594  -0.01227   0.01147   0.02228
 Alpha virt. eigenvalues --    0.02276   0.02618   0.03538   0.04371   0.05146
 Alpha virt. eigenvalues --    0.05389   0.05861   0.06585   0.07361   0.07451

 Mulliken charges:
               1
     1  Mg   0.429854
     2  C   -0.012211
     3  C   -0.069301
     4  C   -0.114780
     5  C   -0.079363
     6  N   -0.265428
     7  C    0.067698
     8  C    0.009841
     9  C    0.006293
    10  C    0.147607
    11  C   -0.051886
    12  C   -0.020188
    13  C    0.008422
    14  C    0.470110
    15  O   -0.512857
    16  O   -0.271016
    17  N   -0.322093
    18  C    0.135727
    19  C    0.074283
    20  C   -0.061054
    21  C    0.163361
    22  C   -0.038880
    23  C    0.326576
    24  O   -0.522665
    25  C   -0.020891
    26  N   -0.286907
    27  C    0.190187
    28  C   -0.006444
    29  C   -0.004024
    30  C    0.107587
    31  C   -0.053922
    32  C   -0.025876
    33  C   -0.055536
    34  N   -0.344026
    35  C    0.091374
    36  C    0.005918
    37  C   -0.055399
    38  C    0.070425
    39  C   -0.049210
    40  C    0.336447
    41  O   -0.526138
    42  C    0.063757
    43  C    0.494934
    44  O   -0.519598
    45  O   -0.261996
    46  C    0.065299
    47  C    0.102261
    48  C   -0.094114
    49  C   -0.010734
    50  C   -0.042680
    51  C   -0.036549
    52  C   -0.027518
    53  C   -0.032905
    54  C    0.000729
    55  C   -0.066075
    56  C   -0.035782
    57  C   -0.040857
    58  C   -0.022543
    59  C   -0.003379
    60  C   -0.057410
    61  C   -0.039906
    62  C   -0.025924
    63  C   -0.022916
    64  C   -0.024648
    65  C   -0.064190
    66  C   -0.065923
    67  H    0.025686
    68  H    0.022094
    69  H    0.021310
    70  H    0.036616
    71  H    0.026192
    72  H    0.030340
    73  H    0.027769
    74  H    0.017540
    75  H    0.018815
    76  H    0.044386
    77  H    0.040659
    78  H    0.027502
    79  H    0.032982
    80  H    0.050845
    81  H    0.030185
    82  H    0.043085
    83  H    0.028247
    84  H    0.046322
    85  H    0.039997
    86  H    0.035270
    87  H    0.022786
    88  H    0.012463
    89  H    0.025573
    90  H    0.031977
    91  H    0.015909
    92  H    0.020574
    93  H    0.018961
    94  H    0.021152
    95  H    0.022919
    96  H    0.023663
    97  H    0.032725
    98  H    0.053234
    99  H    0.027275
   100  H    0.062204
   101  H    0.036123
   102  H    0.049419
   103  H    0.058658
   104  H    0.033907
   105  H    0.021726
   106  H    0.024761
   107  H    0.028450
   108  H    0.031421
   109  H    0.012081
   110  H    0.031446
   111  H    0.018795
   112  H    0.017911
   113  H    0.030992
   114  H    0.031460
   115  H    0.006034
   116  H    0.018406
   117  H    0.026913
   118  H    0.016783
   119  H    0.014078
   120  H    0.018353
   121  H    0.007750
   122  H    0.003894
   123  H    0.019952
   124  H    0.014669
   125  H    0.017875
   126  H    0.019177
   127  H    0.017847
   128  H    0.023773
   129  H   -0.000056
   130  H    0.019053
   131  H    0.004816
   132  H    0.017931
   133  H    0.019204
   134  H    0.028882
   135  H    0.022004
   136  H    0.012251
   137  H    0.029982
   138  H    0.016145
   139  H    0.025815
   140  H    0.011114
 Sum of Mulliken charges =  -0.00000

 Dipole moment (field-independent basis, Debye):
    X=             -3.2409    Y=              8.7718    Z=             -2.4584  Tot=              9.6691
 N-N= 4.408123987006D+03 E-N= 0.000000000000D+00  KE=-9.490612428398D+03
 Leave Link  601 at Thu May  5 10:24:40 2022, MaxMem=  6710886400 cpu:               0.8 elap:               0.0
 (Enter /sw/apps/gaussian-16.0/g16/l9999.exe)
 1\1\GINC-BP1-COMPUTE192\SP\RZINDO CIS\STO-3G\C55H74Mg1N4O6\OF15641\05-
 May-2022\0\\#p ZINDO=(nstates=5)\\step_801_chromophore_20 ZINDO\\0,1\M
 g,0,5.941,55.928,41.64\C,0,5.913,52.332,41.615\C,0,9.085,55.821,40.406
 \C,0,5.903,59.247,41.704\C,0,2.782,55.857,43.09\N,0,7.21,54.254,40.927
 \C,0,7.032,52.868,40.846\C,0,8.139,52.106,40.12\C,0,9.24,53.198,40.144
 \C,0,8.49,54.528,40.522\C,0,10.403,52.88,41.116\C,0,7.55,51.685,38.705
 \C,0,8.03,50.397,38.001\C,0,7.157,49.906,36.876\O,0,6.509,48.866,36.91

 Normal termination of Gaussian 16 at Thu May  5 10:24:40 2022.
