 Gaussian 16, Revision A.03,
 Gaussian 16:  ES64L-G16RevA.03 25-Dec-2016

 ------------------------------
 #p blyp/Def2SVP td=(nstates=5)
 ------------------------------

 -----------------------------------------------
 step_1_chromophore_5 TDDFT with blyp functional
 -----------------------------------------------
 Symbolic Z-matrix:
 Charge =  0 Multiplicity = 1

                         Standard orientation:
 ---------------------------------------------------------------------
 Center     Atomic      Atomic             Coordinates (Angstroms)
 Number     Number       Type             X           Y           Z
 ---------------------------------------------------------------------
      1         12           0        5.595197    0.627782   -0.310178
      2          6           0        4.036030   -2.645379    0.256419
      3          6           0        3.572315    0.776543   -3.114728
      4          6           0        6.078904    3.779640   -0.269076
      5          6           0        7.125199    0.150911    2.905947
      6          7           0        3.826571   -0.815280   -1.229042
      7          6           0        3.391123   -2.065412   -0.847186
      8          6           0        2.191073   -2.501429   -1.765086
      9          6           0        2.258693   -1.545321   -2.968618
     10          6           0        3.268890   -0.467767   -2.418843
     11          6           0        2.785326   -2.106866   -4.354335
     12          6           0        0.809276   -2.526952   -1.026253
     13          6           0       -0.121950   -3.666356   -1.380354
     14          6           0       -1.297191   -3.335835   -2.353045
     15          8           0       -1.165136   -3.131476   -3.538266
     16          8           0       -2.452550   -3.203856   -1.639389
     17          7           0        5.040079    2.053788   -1.565430
     18          6           0        4.308779    1.941763   -2.716593
     19          6           0        4.177758    3.276181   -3.363087
     20          6           0        4.894483    4.153218   -2.507882
     21          6           0        5.334330    3.344670   -1.373543
     22          6           0        3.369268    3.621597   -4.624335
     23          6           0        4.985274    5.680710   -2.568345
     24          8           0        4.464628    6.236238   -3.531893
     25          6           0        5.646885    6.488450   -1.621235
     26          7           0        6.268230    1.840402    1.294657
     27          6           0        6.599243    3.113400    0.874638
     28          6           0        7.448293    3.798298    2.014523
     29          6           0        7.494686    2.708879    3.145206
     30          6           0        7.019863    1.463509    2.358756
     31          6           0        8.852912    4.310488    1.592942
     32          6           0        6.681664    2.956583    4.479358
     33          6           0        7.298700    3.883652    5.540993
     34          7           0        5.680031   -0.898066    1.294351
     35          6           0        6.441125   -0.974588    2.443637
     36          6           0        6.360101   -2.278144    3.056815
     37          6           0        5.424918   -2.982730    2.209836
     38          6           0        4.959025   -2.121300    1.156027
     39          6           0        7.053525   -2.654032    4.329940
     40          6           0        4.730453   -4.185286    2.083803
     41          8           0        4.624811   -5.136575    2.846069
     42          6           0        3.715150   -4.000471    0.919022
     43          6           0        4.019561   -5.134303   -0.032047
     44          8           0        3.155074   -5.880164   -0.498892
     45          8           0        5.391193   -5.200352   -0.506681
     46          6           0        5.536151   -6.067962   -1.674483
     47          6           0       -3.654922   -2.696689   -2.301241
     48          6           0       -4.086396   -1.478554   -1.522079
     49          6           0       -4.545179   -1.389743   -0.290285
     50          6           0       -4.691061   -2.542420    0.792234
     51          6           0       -4.925443   -0.069658    0.185467
     52          6           0       -6.279878    0.407994   -0.152724
     53          6           0       -6.413226    1.945282   -0.018153
     54          6           0       -7.788460    2.511629   -0.158631
     55          6           0       -7.791966    4.000760   -0.530474
     56          6           0       -8.637578    2.165691    1.166323
     57          6           0      -10.103251    1.774553    0.840060
     58          6           0      -10.621843    0.636016    1.750776
     59          6           0      -10.826041   -0.771674    1.008416
     60          6           0       -9.818018   -1.861111    1.518846
     61          6           0      -12.269876   -1.155134    1.107644
     62          6           0      -13.163418   -0.147204    0.248747
     63          6           0      -14.577215    0.136950    0.957231
     64          6           0      -14.928675    1.669414    0.880952
     65          6           0      -15.284743    2.230878    2.276339
     66          6           0      -16.135592    1.840526   -0.020722
     67          1           0        3.000956    0.820713   -4.043741
     68          1           0        6.474581    4.795917   -0.213690
     69          1           0        7.717139    0.128079    3.823208
     70          1           0        2.438194   -3.460847   -2.221799
     71          1           0        1.320616   -1.009601   -3.113894
     72          1           0        1.892005   -2.189603   -4.973034
     73          1           0        3.188828   -3.112971   -4.243880
     74          1           0        3.579846   -1.528524   -4.825769
     75          1           0        0.155484   -1.684960   -1.255078
     76          1           0        0.957465   -2.602295    0.051210
     77          1           0       -0.455773   -4.105613   -0.440275
     78          1           0        0.470830   -4.427224   -1.889085
     79          1           0        3.923849    4.335643   -5.233752
     80          1           0        2.425306    3.999746   -4.232028
     81          1           0        3.231739    2.743223   -5.253460
     82          1           0        6.714570    6.276169   -1.685280
     83          1           0        5.258806    6.415383   -0.605237
     84          1           0        5.337116    7.480986   -1.950157
     85          1           0        6.968748    4.672915    2.452770
     86          1           0        8.520763    2.467729    3.421841
     87          1           0        9.551585    3.801527    2.257100
     88          1           0        8.889451    5.385771    1.764877
     89          1           0        8.919626    4.028955    0.541330
     90          1           0        6.576987    1.955000    4.897737
     91          1           0        5.726037    3.437693    4.269967
     92          1           0        8.266734    4.093001    5.084914
     93          1           0        7.531873    3.336773    6.455703
     94          1           0        6.765887    4.807654    5.764250
     95          1           0        6.708522   -1.930890    5.067785
     96          1           0        8.132266   -2.501919    4.298999
     97          1           0        6.712713   -3.607493    4.733677
     98          1           0        2.722322   -4.161980    1.338472
     99          1           0        6.427506   -5.574031   -2.063141
    100          1           0        4.621182   -6.121029   -2.264459
    101          1           0        5.859717   -7.037325   -1.295147
    102          1           0       -4.340652   -3.525677   -2.127234
    103          1           0       -3.712996   -2.501218   -3.372242
    104          1           0       -4.058952   -0.595125   -2.160143
    105          1           0       -3.696859   -2.613179    1.233765
    106          1           0       -4.824991   -3.466947    0.230866
    107          1           0       -5.547111   -2.341608    1.435675
    108          1           0       -4.266700    0.724939   -0.163683
    109          1           0       -4.863898    0.004814    1.270639
    110          1           0       -6.977536   -0.006904    0.573913
    111          1           0       -6.484908    0.068377   -1.168525
    112          1           0       -5.820745    2.298346   -0.861461
    113          1           0       -5.949383    2.314047    0.897033
    114          1           0       -8.276353    2.090518   -1.037560
    115          1           0       -8.605576    4.159796   -1.236861
    116          1           0       -6.809138    4.298753   -0.894741
    117          1           0       -8.049457    4.636010    0.317110
    118          1           0       -8.581592    3.031652    1.826922
    119          1           0       -8.180738    1.371717    1.757061
    120          1           0      -10.184289    1.538138   -0.221688
    121          1           0      -10.659845    2.676187    1.093635
    122          1           0      -11.567067    1.001294    2.152816
    123          1           0      -10.005562    0.460980    2.632657
    124          1           0      -10.511508   -0.717570   -0.033048
    125          1           0       -9.279770   -2.195037    0.632291
    126          1           0      -10.270351   -2.747117    1.963017
    127          1           0       -9.014942   -1.459186    2.136576
    128          1           0      -12.580234   -1.190101    2.151427
    129          1           0      -12.377573   -2.157111    0.690956
    130          1           0      -13.486044   -0.662211   -0.657004
    131          1           0      -12.657781    0.789447    0.012948
    132          1           0      -14.633092   -0.237668    1.979056
    133          1           0      -15.326804   -0.457534    0.434125
    134          1           0      -14.104648    2.239052    0.452792
    135          1           0      -15.620928    3.264277    2.195910
    136          1           0      -14.372338    2.104120    2.859346
    137          1           0      -15.997542    1.595096    2.802511
    138          1           0      -16.570047    0.889423   -0.328445
    139          1           0      -15.808806    2.258691   -0.972448
    140          1           0      -16.889941    2.486941    0.428830
 ---------------------------------------------------------------------

 SCF Done:  E(RB-LYP) =  -3007.34646377     A.U. after   20 cycles

 Excitation energies and oscillator strengths:

 Excited State   1:      Singlet-A      1.7070 eV  726.34 nm  f=0.0174  <S**2>=0.000
     244 -> 247        0.60551
     245 -> 247        0.29950
     246 -> 247        0.20193
 This state for optimization and/or second-order correction.
 Total Energy, E(TD-HF/TD-DFT) =  -3007.28373393
 Copying the excited state density for this state as the 1-particle RhoCI density.

 Excited State   2:      Singlet-A      1.8175 eV  682.17 nm  f=0.2558  <S**2>=0.000
     244 -> 247       -0.17835
     245 -> 248       -0.19699
     246 -> 247        0.65235
     246 <- 247       -0.13560

 Excited State   3:      Singlet-A      1.9596 eV  632.70 nm  f=0.0005  <S**2>=0.000
     243 -> 247        0.70379

 Excited State   4:      Singlet-A      2.0017 eV  619.41 nm  f=0.0567  <S**2>=0.000
     242 -> 247        0.14599
     244 -> 247       -0.29004
     245 -> 247        0.56165
     246 -> 248        0.25979

 Excited State   5:      Singlet-A      2.3896 eV  518.86 nm  f=0.0094  <S**2>=0.000
     242 -> 247        0.67276
     246 -> 248       -0.15024

 The electronic state is 1-A.
 Alpha  occ. eigenvalues --  -46.28917 -18.82194 -18.80743 -18.76815 -18.76770
 Alpha  occ. eigenvalues --  -18.75360 -18.74692 -14.03447 -14.03175 -14.02034
 Alpha  occ. eigenvalues --  -14.00702 -10.03871 -10.03666  -9.99628  -9.98235
 Alpha  occ. eigenvalues --   -9.97704  -9.97393  -9.97047  -9.97010  -9.96779
 Alpha  occ. eigenvalues --   -9.96751  -9.96569  -9.96483  -9.95262  -9.94976
 Alpha  occ. eigenvalues --   -9.94639  -9.94551  -9.94405  -9.94367  -9.94256
 Alpha  occ. eigenvalues --   -9.94027  -9.93897  -9.93841  -9.93825  -9.93393
 Alpha  occ. eigenvalues --   -9.93161  -9.93099  -9.92929  -9.92879  -9.92840
 Alpha  occ. eigenvalues --   -9.92791  -9.92784  -9.92572  -9.92550  -9.92516
 Alpha  occ. eigenvalues --   -9.92488  -9.92197  -9.92143  -9.91848  -9.91750
 Alpha  occ. eigenvalues --   -9.91661  -9.91542  -9.91301  -9.91285  -9.91265
 Alpha  occ. eigenvalues --   -9.91238  -9.91166  -9.91138  -9.91132  -9.91107
 Alpha  occ. eigenvalues --   -9.91018  -9.90933  -9.90841  -9.90798  -9.90793
 Alpha  occ. eigenvalues --   -9.90057  -2.93434  -1.73803  -1.73398  -1.73109
 Alpha  occ. eigenvalues --   -0.97882  -0.95334  -0.91829  -0.90577  -0.90421
 Alpha  occ. eigenvalues --   -0.88394  -0.87026  -0.85645  -0.85429  -0.83634
 Alpha  occ. eigenvalues --   -0.75681  -0.74706  -0.72806  -0.72604  -0.72159
 Alpha  occ. eigenvalues --   -0.71907  -0.71691  -0.70862  -0.70287  -0.69966
 Alpha  occ. eigenvalues --   -0.69549  -0.69186  -0.68442  -0.67742  -0.67582
 Alpha  occ. eigenvalues --   -0.66775  -0.66407  -0.65301  -0.64799  -0.64297
 Alpha  occ. eigenvalues --   -0.64007  -0.62493  -0.61903  -0.61767  -0.60815
 Alpha  occ. eigenvalues --   -0.60377  -0.59895  -0.59869  -0.59421  -0.58784
 Alpha  occ. eigenvalues --   -0.58265  -0.57771  -0.56834  -0.55398  -0.54349
 Alpha  occ. eigenvalues --   -0.53829  -0.53073  -0.52701  -0.52357  -0.51492
 Alpha  occ. eigenvalues --   -0.51296  -0.51207  -0.50820  -0.50391  -0.49990
 Alpha  occ. eigenvalues --   -0.49810  -0.49302  -0.48540  -0.48044  -0.46504
 Alpha  occ. eigenvalues --   -0.46166  -0.45661  -0.45527  -0.45418  -0.44233
 Alpha  occ. eigenvalues --   -0.43719  -0.43478  -0.43242  -0.42923  -0.42431
 Alpha  occ. eigenvalues --   -0.42156  -0.41622  -0.41358  -0.41251  -0.41235
 Alpha  occ. eigenvalues --   -0.41130  -0.40851  -0.40455  -0.40150  -0.40134
 Alpha  occ. eigenvalues --   -0.40014  -0.39717  -0.39357  -0.38901  -0.38827
 Alpha  occ. eigenvalues --   -0.38757  -0.38636  -0.38609  -0.38446  -0.38322
 Alpha  occ. eigenvalues --   -0.38206  -0.37966  -0.37748  -0.37565  -0.37425
 Alpha  occ. eigenvalues --   -0.37085  -0.36930  -0.36698  -0.36513  -0.36446
 Alpha  occ. eigenvalues --   -0.36177  -0.36057  -0.35904  -0.35819  -0.35664
 Alpha  occ. eigenvalues --   -0.35453  -0.35265  -0.34947  -0.34778  -0.34528
 Alpha  occ. eigenvalues --   -0.34508  -0.34335  -0.34113  -0.33954  -0.33779
 Alpha  occ. eigenvalues --   -0.33498  -0.33472  -0.33444  -0.33292  -0.33115
 Alpha  occ. eigenvalues --   -0.32884  -0.32809  -0.32719  -0.32446  -0.32269
 Alpha  occ. eigenvalues --   -0.32190  -0.32017  -0.31833  -0.31732  -0.31239
 Alpha  occ. eigenvalues --   -0.31020  -0.30934  -0.30801  -0.30639  -0.30509
 Alpha  occ. eigenvalues --   -0.30388  -0.30290  -0.30145  -0.29940  -0.29795
 Alpha  occ. eigenvalues --   -0.29475  -0.29328  -0.29111  -0.29102  -0.28961
 Alpha  occ. eigenvalues --   -0.28890  -0.28788  -0.28484  -0.28100  -0.28011
 Alpha  occ. eigenvalues --   -0.27718  -0.27657  -0.27051  -0.26725  -0.26590
 Alpha  occ. eigenvalues --   -0.26556  -0.26172  -0.25804  -0.25408  -0.25245
 Alpha  occ. eigenvalues --   -0.24485  -0.24264  -0.24179  -0.23975  -0.23616
 Alpha  occ. eigenvalues --   -0.23032  -0.22380  -0.22190  -0.21473  -0.21102
 Alpha  occ. eigenvalues --   -0.20909  -0.19779  -0.18798  -0.17919  -0.17489
 Alpha  occ. eigenvalues --   -0.16048
 Alpha virt. eigenvalues --   -0.11667  -0.07526  -0.06509  -0.04764  -0.04419
 Alpha virt. eigenvalues --   -0.03068  -0.02916  -0.02475  -0.01754  -0.00071
 Alpha virt. eigenvalues --    0.01061   0.01805   0.01997   0.02480   0.02590

 Mulliken charges:
               1
     1  Mg   0.706101
     2  C    0.018155
     3  C   -0.036485
     4  C   -0.039491
     5  C   -0.073664
     6  N   -0.165595
     7  C   -0.099804
     8  C    0.102990
     9  C   -0.018845
    10  C   -0.060181
    11  C    0.118333
    12  C    0.130071
    13  C    0.130244
    14  C    0.051518
    15  O   -0.183857
    16  O   -0.262906
    17  N   -0.315995
    18  C    0.138418
    19  C   -0.173676
    20  C    0.052840
    21  C    0.158757
    22  C    0.196676
    23  C   -0.120503
    24  O   -0.175867
    25  C    0.192549
    26  N   -0.249349
    27  C   -0.004366
    28  C   -0.016629
    29  C    0.005847
    30  C   -0.003530
    31  C    0.140838
    32  C    0.095365
    33  C    0.075250
    34  N   -0.261831
    35  C    0.138237
    36  C   -0.159962
    37  C    0.112974
    38  C    0.097687
    39  C    0.196274
    40  C   -0.103909
    41  O   -0.141399
    42  C    0.059934
    43  C    0.124862
    44  O   -0.187632
    45  O   -0.328498
    46  C    0.221044
    47  C    0.336184
    48  C   -0.138192
    49  C   -0.107152
    50  C    0.161038
    51  C    0.148950
    52  C    0.078812
    53  C    0.070402
    54  C   -0.048803
    55  C    0.124567
    56  C    0.077449
    57  C    0.081379
    58  C    0.082075
    59  C   -0.080027
    60  C    0.102635
    61  C    0.117100
    62  C    0.045411
    63  C    0.084825
    64  C   -0.099859
    65  C    0.096749
    66  C    0.117602
    67  H   -0.059682
    68  H   -0.083477
    69  H   -0.063431
    70  H   -0.018719
    71  H   -0.013311
    72  H    0.013737
    73  H   -0.011804
    74  H    0.000071
    75  H   -0.008954
    76  H   -0.013773
    77  H   -0.017105
    78  H   -0.004177
    79  H    0.015058
    80  H    0.017690
    81  H   -0.015208
    82  H    0.026894
    83  H    0.010577
    84  H   -0.011706
    85  H   -0.027224
    86  H   -0.038658
    87  H   -0.007994
    88  H   -0.004021
    89  H   -0.003160
    90  H   -0.024823
    91  H   -0.016929
    92  H   -0.026398
    93  H   -0.007308
    94  H    0.004903
    95  H   -0.012914
    96  H   -0.000264
    97  H    0.008955
    98  H   -0.002707
    99  H    0.006988
   100  H    0.031458
   101  H    0.010374
   102  H   -0.020624
   103  H   -0.001332
   104  H   -0.039388
   105  H    0.017855
   106  H   -0.015920
   107  H    0.009744
   108  H   -0.039838
   109  H   -0.052232
   110  H   -0.039779
   111  H   -0.038342
   112  H   -0.042793
   113  H   -0.031806
   114  H   -0.045300
   115  H   -0.018069
   116  H   -0.016994
   117  H   -0.027335
   118  H   -0.035650
   119  H   -0.032486
   120  H   -0.010012
   121  H   -0.033348
   122  H   -0.030836
   123  H   -0.032856
   124  H   -0.034008
   125  H   -0.026440
   126  H   -0.017339
   127  H   -0.018447
   128  H   -0.023678
   129  H   -0.041166
   130  H   -0.027587
   131  H   -0.003739
   132  H   -0.034952
   133  H   -0.035200
   134  H   -0.026769
   135  H   -0.005680
   136  H   -0.022397
   137  H   -0.015105
   138  H   -0.025056
   139  H   -0.029760
   140  H   -0.020427
 Sum of Mulliken charges =  -0.00000

 Dipole moment (field-independent basis, Debye):
    X=              1.0000    Y=              4.1177    Z=              1.1032  Tot=              4.3786
 Quadrupole moment (field-independent basis, Debye-Ang):
   XX=           -355.9995   YY=           -445.4478   ZZ=           -409.0615
   XY=             22.3677   XZ=              5.7247   YZ=             32.3781

 Normal termination of Gaussian 16 at Wed May  4 18:18:25 2022.
