 Gaussian 16, Revision A.03,
 Gaussian 16:  ES64L-G16RevA.03 25-Dec-2016

 -----------------------------------
 #p cam-b3lyp/Def2SVP td=(nstates=5)
 -----------------------------------

 ----------------------------------------------------
 step_1_chromophore_5 TDDFT with cam-b3lyp functional
 ----------------------------------------------------
 Symbolic Z-matrix:
 Charge =  0 Multiplicity = 1

                         Standard orientation:
 ---------------------------------------------------------------------
 Center     Atomic      Atomic             Coordinates (Angstroms)
 Number     Number       Type             X           Y           Z
 ---------------------------------------------------------------------
      1         12           0        5.595197    0.627782   -0.310178
      2          6           0        4.036030   -2.645379    0.256419
      3          6           0        3.572315    0.776543   -3.114728
      4          6           0        6.078904    3.779640   -0.269076
      5          6           0        7.125199    0.150911    2.905947
      6          7           0        3.826571   -0.815280   -1.229042
      7          6           0        3.391123   -2.065412   -0.847186
      8          6           0        2.191073   -2.501429   -1.765086
      9          6           0        2.258693   -1.545321   -2.968618
     10          6           0        3.268890   -0.467767   -2.418843
     11          6           0        2.785326   -2.106866   -4.354335
     12          6           0        0.809276   -2.526952   -1.026253
     13          6           0       -0.121950   -3.666356   -1.380354
     14          6           0       -1.297191   -3.335835   -2.353045
     15          8           0       -1.165136   -3.131476   -3.538266
     16          8           0       -2.452550   -3.203856   -1.639389
     17          7           0        5.040079    2.053788   -1.565430
     18          6           0        4.308779    1.941763   -2.716593
     19          6           0        4.177758    3.276181   -3.363087
     20          6           0        4.894483    4.153218   -2.507882
     21          6           0        5.334330    3.344670   -1.373543
     22          6           0        3.369268    3.621597   -4.624335
     23          6           0        4.985274    5.680710   -2.568345
     24          8           0        4.464628    6.236238   -3.531893
     25          6           0        5.646885    6.488450   -1.621235
     26          7           0        6.268230    1.840402    1.294657
     27          6           0        6.599243    3.113400    0.874638
     28          6           0        7.448293    3.798298    2.014523
     29          6           0        7.494686    2.708879    3.145206
     30          6           0        7.019863    1.463509    2.358756
     31          6           0        8.852912    4.310488    1.592942
     32          6           0        6.681664    2.956583    4.479358
     33          6           0        7.298700    3.883652    5.540993
     34          7           0        5.680031   -0.898066    1.294351
     35          6           0        6.441125   -0.974588    2.443637
     36          6           0        6.360101   -2.278144    3.056815
     37          6           0        5.424918   -2.982730    2.209836
     38          6           0        4.959025   -2.121300    1.156027
     39          6           0        7.053525   -2.654032    4.329940
     40          6           0        4.730453   -4.185286    2.083803
     41          8           0        4.624811   -5.136575    2.846069
     42          6           0        3.715150   -4.000471    0.919022
     43          6           0        4.019561   -5.134303   -0.032047
     44          8           0        3.155074   -5.880164   -0.498892
     45          8           0        5.391193   -5.200352   -0.506681
     46          6           0        5.536151   -6.067962   -1.674483
     47          6           0       -3.654922   -2.696689   -2.301241
     48          6           0       -4.086396   -1.478554   -1.522079
     49          6           0       -4.545179   -1.389743   -0.290285
     50          6           0       -4.691061   -2.542420    0.792234
     51          6           0       -4.925443   -0.069658    0.185467
     52          6           0       -6.279878    0.407994   -0.152724
     53          6           0       -6.413226    1.945282   -0.018153
     54          6           0       -7.788460    2.511629   -0.158631
     55          6           0       -7.791966    4.000760   -0.530474
     56          6           0       -8.637578    2.165691    1.166323
     57          6           0      -10.103251    1.774553    0.840060
     58          6           0      -10.621843    0.636016    1.750776
     59          6           0      -10.826041   -0.771674    1.008416
     60          6           0       -9.818018   -1.861111    1.518846
     61          6           0      -12.269876   -1.155134    1.107644
     62          6           0      -13.163418   -0.147204    0.248747
     63          6           0      -14.577215    0.136950    0.957231
     64          6           0      -14.928675    1.669414    0.880952
     65          6           0      -15.284743    2.230878    2.276339
     66          6           0      -16.135592    1.840526   -0.020722
     67          1           0        3.000956    0.820713   -4.043741
     68          1           0        6.474581    4.795917   -0.213690
     69          1           0        7.717139    0.128079    3.823208
     70          1           0        2.438194   -3.460847   -2.221799
     71          1           0        1.320616   -1.009601   -3.113894
     72          1           0        1.892005   -2.189603   -4.973034
     73          1           0        3.188828   -3.112971   -4.243880
     74          1           0        3.579846   -1.528524   -4.825769
     75          1           0        0.155484   -1.684960   -1.255078
     76          1           0        0.957465   -2.602295    0.051210
     77          1           0       -0.455773   -4.105613   -0.440275
     78          1           0        0.470830   -4.427224   -1.889085
     79          1           0        3.923849    4.335643   -5.233752
     80          1           0        2.425306    3.999746   -4.232028
     81          1           0        3.231739    2.743223   -5.253460
     82          1           0        6.714570    6.276169   -1.685280
     83          1           0        5.258806    6.415383   -0.605237
     84          1           0        5.337116    7.480986   -1.950157
     85          1           0        6.968748    4.672915    2.452770
     86          1           0        8.520763    2.467729    3.421841
     87          1           0        9.551585    3.801527    2.257100
     88          1           0        8.889451    5.385771    1.764877
     89          1           0        8.919626    4.028955    0.541330
     90          1           0        6.576987    1.955000    4.897737
     91          1           0        5.726037    3.437693    4.269967
     92          1           0        8.266734    4.093001    5.084914
     93          1           0        7.531873    3.336773    6.455703
     94          1           0        6.765887    4.807654    5.764250
     95          1           0        6.708522   -1.930890    5.067785
     96          1           0        8.132266   -2.501919    4.298999
     97          1           0        6.712713   -3.607493    4.733677
     98          1           0        2.722322   -4.161980    1.338472
     99          1           0        6.427506   -5.574031   -2.063141
    100          1           0        4.621182   -6.121029   -2.264459
    101          1           0        5.859717   -7.037325   -1.295147
    102          1           0       -4.340652   -3.525677   -2.127234
    103          1           0       -3.712996   -2.501218   -3.372242
    104          1           0       -4.058952   -0.595125   -2.160143
    105          1           0       -3.696859   -2.613179    1.233765
    106          1           0       -4.824991   -3.466947    0.230866
    107          1           0       -5.547111   -2.341608    1.435675
    108          1           0       -4.266700    0.724939   -0.163683
    109          1           0       -4.863898    0.004814    1.270639
    110          1           0       -6.977536   -0.006904    0.573913
    111          1           0       -6.484908    0.068377   -1.168525
    112          1           0       -5.820745    2.298346   -0.861461
    113          1           0       -5.949383    2.314047    0.897033
    114          1           0       -8.276353    2.090518   -1.037560
    115          1           0       -8.605576    4.159796   -1.236861
    116          1           0       -6.809138    4.298753   -0.894741
    117          1           0       -8.049457    4.636010    0.317110
    118          1           0       -8.581592    3.031652    1.826922
    119          1           0       -8.180738    1.371717    1.757061
    120          1           0      -10.184289    1.538138   -0.221688
    121          1           0      -10.659845    2.676187    1.093635
    122          1           0      -11.567067    1.001294    2.152816
    123          1           0      -10.005562    0.460980    2.632657
    124          1           0      -10.511508   -0.717570   -0.033048
    125          1           0       -9.279770   -2.195037    0.632291
    126          1           0      -10.270351   -2.747117    1.963017
    127          1           0       -9.014942   -1.459186    2.136576
    128          1           0      -12.580234   -1.190101    2.151427
    129          1           0      -12.377573   -2.157111    0.690956
    130          1           0      -13.486044   -0.662211   -0.657004
    131          1           0      -12.657781    0.789447    0.012948
    132          1           0      -14.633092   -0.237668    1.979056
    133          1           0      -15.326804   -0.457534    0.434125
    134          1           0      -14.104648    2.239052    0.452792
    135          1           0      -15.620928    3.264277    2.195910
    136          1           0      -14.372338    2.104120    2.859346
    137          1           0      -15.997542    1.595096    2.802511
    138          1           0      -16.570047    0.889423   -0.328445
    139          1           0      -15.808806    2.258691   -0.972448
    140          1           0      -16.889941    2.486941    0.428830
 ---------------------------------------------------------------------

 SCF Done:  E(RCAM-B3LYP) =  -3007.13019015     A.U. after   17 cycles

 Excitation energies and oscillator strengths:

 Excited State   1:      Singlet-A      1.7233 eV  719.44 nm  f=0.3445  <S**2>=0.000
     245 -> 248       -0.19633
     246 -> 247        0.67940
     245 <- 248       -0.11001
 This state for optimization and/or second-order correction.
 Total Energy, E(TD-HF/TD-DFT) =  -3007.06685883
 Copying the excited state density for this state as the 1-particle RhoCI density.

 Excited State   2:      Singlet-A      2.2432 eV  552.72 nm  f=0.0692  <S**2>=0.000
     245 -> 247        0.61606
     246 -> 248        0.33048

 Excited State   3:      Singlet-A      3.1976 eV  387.74 nm  f=0.0111  <S**2>=0.000
     243 -> 247        0.10803
     244 -> 247        0.62837
     246 -> 248       -0.22644

 Excited State   4:      Singlet-A      3.3924 eV  365.48 nm  f=0.0373  <S**2>=0.000
     243 -> 247        0.55720
     243 -> 249        0.23304
     243 -> 250       -0.16056
     243 -> 251       -0.16672
     244 -> 247       -0.11031
     246 -> 248        0.16735

 Excited State   5:      Singlet-A      3.4706 eV  357.24 nm  f=0.6836  <S**2>=0.000
     241 -> 247       -0.15753
     243 -> 247       -0.12207
     244 -> 247        0.23160
     245 -> 247       -0.30373
     246 -> 248        0.52541
     246 -> 249        0.11536
     246 -> 250        0.14211

 The electronic state is 1-A.
 Alpha  occ. eigenvalues --  -46.90639 -19.25036 -19.23608 -19.20003 -19.19783
 Alpha  occ. eigenvalues --  -19.18705 -19.17765 -14.42561 -14.41900 -14.40692
 Alpha  occ. eigenvalues --  -14.39024 -10.39299 -10.39195 -10.34850 -10.33409
 Alpha  occ. eigenvalues --  -10.32219 -10.31782 -10.31696 -10.31438 -10.31411
 Alpha  occ. eigenvalues --  -10.31274 -10.30892 -10.30650 -10.29558 -10.29263
 Alpha  occ. eigenvalues --  -10.29109 -10.28799 -10.28726 -10.28487 -10.28366
 Alpha  occ. eigenvalues --  -10.28324 -10.28238 -10.28081 -10.27980 -10.27363
 Alpha  occ. eigenvalues --  -10.27276 -10.27230 -10.26994 -10.26787 -10.26734
 Alpha  occ. eigenvalues --  -10.26575 -10.26524 -10.26522 -10.26481 -10.26315
 Alpha  occ. eigenvalues --  -10.26167 -10.26091 -10.25798 -10.25569 -10.25449
 Alpha  occ. eigenvalues --  -10.25333 -10.25261 -10.25125 -10.25114 -10.24930
 Alpha  occ. eigenvalues --  -10.24892 -10.24862 -10.24785 -10.24780 -10.24749
 Alpha  occ. eigenvalues --  -10.24730 -10.24482 -10.24414 -10.24392 -10.24373
 Alpha  occ. eigenvalues --  -10.23604  -3.19050  -1.93895  -1.93557  -1.93315
 Alpha  occ. eigenvalues --   -1.16357  -1.13847  -1.10375  -1.08885  -1.08343
 Alpha  occ. eigenvalues --   -1.06249  -1.04923  -1.03261  -1.03183  -1.00960
 Alpha  occ. eigenvalues --   -0.92776  -0.91594  -0.89588  -0.89379  -0.88872
 Alpha  occ. eigenvalues --   -0.88582  -0.88415  -0.87432  -0.86907  -0.86819
 Alpha  occ. eigenvalues --   -0.85914  -0.85486  -0.84772  -0.84077  -0.83764
 Alpha  occ. eigenvalues --   -0.82892  -0.82486  -0.81284  -0.80594  -0.80106
 Alpha  occ. eigenvalues --   -0.79768  -0.78228  -0.77592  -0.77235  -0.76140
 Alpha  occ. eigenvalues --   -0.75714  -0.75228  -0.75175  -0.74693  -0.73925
 Alpha  occ. eigenvalues --   -0.73345  -0.72716  -0.71777  -0.70224  -0.68952
 Alpha  occ. eigenvalues --   -0.68400  -0.67551  -0.67318  -0.66707  -0.65705
 Alpha  occ. eigenvalues --   -0.65425  -0.65278  -0.64945  -0.64238  -0.63913
 Alpha  occ. eigenvalues --   -0.63824  -0.63253  -0.62399  -0.61802  -0.60285
 Alpha  occ. eigenvalues --   -0.59692  -0.59184  -0.59035  -0.58835  -0.57697
 Alpha  occ. eigenvalues --   -0.56991  -0.56913  -0.56655  -0.55882  -0.55488
 Alpha  occ. eigenvalues --   -0.55103  -0.54701  -0.54248  -0.54041  -0.53978
 Alpha  occ. eigenvalues --   -0.53838  -0.53770  -0.53614  -0.53225  -0.52830
 Alpha  occ. eigenvalues --   -0.52700  -0.52436  -0.52156  -0.51708  -0.51335
 Alpha  occ. eigenvalues --   -0.51265  -0.51228  -0.51039  -0.50929  -0.50763
 Alpha  occ. eigenvalues --   -0.50541  -0.50276  -0.49960  -0.49787  -0.49634
 Alpha  occ. eigenvalues --   -0.49447  -0.49275  -0.49164  -0.48810  -0.48743
 Alpha  occ. eigenvalues --   -0.48541  -0.48292  -0.48180  -0.47894  -0.47805
 Alpha  occ. eigenvalues --   -0.47700  -0.47233  -0.47059  -0.46850  -0.46597
 Alpha  occ. eigenvalues --   -0.46362  -0.46256  -0.46081  -0.45861  -0.45746
 Alpha  occ. eigenvalues --   -0.45224  -0.45176  -0.45099  -0.44840  -0.44828
 Alpha  occ. eigenvalues --   -0.44556  -0.44448  -0.44315  -0.44048  -0.44007
 Alpha  occ. eigenvalues --   -0.43826  -0.43670  -0.43363  -0.43172  -0.42823
 Alpha  occ. eigenvalues --   -0.42478  -0.42413  -0.42246  -0.42171  -0.42016
 Alpha  occ. eigenvalues --   -0.41892  -0.41740  -0.41605  -0.41435  -0.41219
 Alpha  occ. eigenvalues --   -0.41107  -0.40831  -0.40211  -0.40180  -0.40064
 Alpha  occ. eigenvalues --   -0.39898  -0.39870  -0.39402  -0.39219  -0.38977
 Alpha  occ. eigenvalues --   -0.38785  -0.38519  -0.37765  -0.37763  -0.37305
 Alpha  occ. eigenvalues --   -0.37282  -0.36857  -0.36626  -0.36475  -0.35837
 Alpha  occ. eigenvalues --   -0.35586  -0.35263  -0.34556  -0.34426  -0.34349
 Alpha  occ. eigenvalues --   -0.34029  -0.33725  -0.33092  -0.31662  -0.31295
 Alpha  occ. eigenvalues --   -0.30930  -0.30803  -0.30061  -0.28631  -0.24355
 Alpha  occ. eigenvalues --   -0.21335
 Alpha virt. eigenvalues --   -0.08667  -0.02586  -0.00254   0.00695   0.02279
 Alpha virt. eigenvalues --    0.04354   0.04681   0.04911   0.05950   0.07050
 Alpha virt. eigenvalues --    0.07832   0.08001   0.08428   0.08669   0.09061

 Mulliken charges:
               1
     1  Mg   0.834072
     2  C   -0.008649
     3  C   -0.050672
     4  C   -0.075519
     5  C   -0.088184
     6  N   -0.224105
     7  C   -0.064837
     8  C    0.056019
     9  C   -0.066049
    10  C   -0.038895
    11  C    0.060264
    12  C    0.075682
    13  C    0.063412
    14  C    0.132258
    15  O   -0.226034
    16  O   -0.326646
    17  N   -0.409569
    18  C    0.147802
    19  C   -0.174191
    20  C   -0.015586
    21  C    0.192467
    22  C    0.144663
    23  C   -0.033438
    24  O   -0.215783
    25  C    0.089422
    26  N   -0.319434
    27  C    0.023325
    28  C   -0.072990
    29  C   -0.047325
    30  C    0.018943
    31  C    0.084341
    32  C    0.042896
    33  C    0.012950
    34  N   -0.344297
    35  C    0.142953
    36  C   -0.151735
    37  C    0.031162
    38  C    0.128023
    39  C    0.139594
    40  C   -0.006991
    41  O   -0.180631
    42  C   -0.020998
    43  C    0.218365
    44  O   -0.227005
    45  O   -0.389925
    46  C    0.179499
    47  C    0.296359
    48  C   -0.162110
    49  C   -0.127329
    50  C    0.106889
    51  C    0.078508
    52  C    0.036959
    53  C    0.014388
    54  C   -0.107112
    55  C    0.068316
    56  C    0.032069
    57  C    0.025425
    58  C    0.028141
    59  C   -0.133997
    60  C    0.048161
    61  C    0.064245
    62  C   -0.006178
    63  C    0.034266
    64  C   -0.160877
    65  C    0.040018
    66  C    0.056917
    67  H   -0.023682
    68  H   -0.047296
    69  H   -0.028295
    70  H    0.013896
    71  H    0.021445
    72  H    0.038685
    73  H    0.012616
    74  H    0.024897
    75  H    0.020226
    76  H    0.017663
    77  H    0.019394
    78  H    0.027334
    79  H    0.044570
    80  H    0.045227
    81  H    0.010266
    82  H    0.054020
    83  H    0.041693
    84  H    0.027746
    85  H    0.008120
    86  H   -0.004053
    87  H    0.016741
    88  H    0.019809
    89  H    0.021384
    90  H    0.004776
    91  H    0.010875
    92  H   -0.004483
    93  H    0.017255
    94  H    0.027907
    95  H    0.011943
    96  H    0.024774
    97  H    0.037191
    98  H    0.039315
    99  H    0.031678
   100  H    0.053799
   101  H    0.033121
   102  H    0.009394
   103  H    0.032621
   104  H   -0.006873
   105  H    0.042441
   106  H    0.007830
   107  H    0.030871
   108  H   -0.007114
   109  H   -0.020158
   110  H   -0.018704
   111  H   -0.010108
   112  H   -0.014572
   113  H   -0.003740
   114  H   -0.013521
   115  H    0.006245
   116  H    0.008154
   117  H   -0.003507
   118  H   -0.007418
   119  H   -0.007197
   120  H    0.014201
   121  H   -0.004141
   122  H   -0.004481
   123  H   -0.003859
   124  H   -0.003024
   125  H   -0.003064
   126  H    0.008072
   127  H    0.002531
   128  H    0.002874
   129  H   -0.011203
   130  H    0.001659
   131  H    0.017796
   132  H   -0.007249
   133  H   -0.006247
   134  H    0.003485
   135  H    0.017846
   136  H    0.000175
   137  H    0.008279
   138  H   -0.000808
   139  H   -0.004281
   140  H    0.004554
 Sum of Mulliken charges =  -0.00000

 Dipole moment (field-independent basis, Debye):
    X=              1.0805    Y=              4.6781    Z=              0.6297  Tot=              4.8424
 Quadrupole moment (field-independent basis, Debye-Ang):
   XX=           -355.8471   YY=           -442.9547   ZZ=           -407.5117
   XY=             26.7006   XZ=              4.4650   YZ=             33.0876

 Normal termination of Gaussian 16 at Wed May  4 16:15:00 2022.
