 Gaussian 16, Revision A.03,
 Gaussian 16:  ES64L-G16RevA.03 25-Dec-2016

 ---------------------------------
 #p PBE1PBE/Def2SVP td=(nstates=5)
 ---------------------------------

 --------------------------------------------------
 step_1_chromophore_5 TDDFT with PBE1PBE functional
 --------------------------------------------------
 Symbolic Z-matrix:
 Charge =  0 Multiplicity = 1

                         Standard orientation:
 ---------------------------------------------------------------------
 Center     Atomic      Atomic             Coordinates (Angstroms)
 Number     Number       Type             X           Y           Z
 ---------------------------------------------------------------------
      1         12           0        5.595197    0.627782   -0.310178
      2          6           0        4.036030   -2.645379    0.256419
      3          6           0        3.572315    0.776543   -3.114728
      4          6           0        6.078904    3.779640   -0.269076
      5          6           0        7.125199    0.150911    2.905947
      6          7           0        3.826571   -0.815280   -1.229042
      7          6           0        3.391123   -2.065412   -0.847186
      8          6           0        2.191073   -2.501429   -1.765086
      9          6           0        2.258693   -1.545321   -2.968618
     10          6           0        3.268890   -0.467767   -2.418843
     11          6           0        2.785326   -2.106866   -4.354335
     12          6           0        0.809276   -2.526952   -1.026253
     13          6           0       -0.121950   -3.666356   -1.380354
     14          6           0       -1.297191   -3.335835   -2.353045
     15          8           0       -1.165136   -3.131476   -3.538266
     16          8           0       -2.452550   -3.203856   -1.639389
     17          7           0        5.040079    2.053788   -1.565430
     18          6           0        4.308779    1.941763   -2.716593
     19          6           0        4.177758    3.276181   -3.363087
     20          6           0        4.894483    4.153218   -2.507882
     21          6           0        5.334330    3.344670   -1.373543
     22          6           0        3.369268    3.621597   -4.624335
     23          6           0        4.985274    5.680710   -2.568345
     24          8           0        4.464628    6.236238   -3.531893
     25          6           0        5.646885    6.488450   -1.621235
     26          7           0        6.268230    1.840402    1.294657
     27          6           0        6.599243    3.113400    0.874638
     28          6           0        7.448293    3.798298    2.014523
     29          6           0        7.494686    2.708879    3.145206
     30          6           0        7.019863    1.463509    2.358756
     31          6           0        8.852912    4.310488    1.592942
     32          6           0        6.681664    2.956583    4.479358
     33          6           0        7.298700    3.883652    5.540993
     34          7           0        5.680031   -0.898066    1.294351
     35          6           0        6.441125   -0.974588    2.443637
     36          6           0        6.360101   -2.278144    3.056815
     37          6           0        5.424918   -2.982730    2.209836
     38          6           0        4.959025   -2.121300    1.156027
     39          6           0        7.053525   -2.654032    4.329940
     40          6           0        4.730453   -4.185286    2.083803
     41          8           0        4.624811   -5.136575    2.846069
     42          6           0        3.715150   -4.000471    0.919022
     43          6           0        4.019561   -5.134303   -0.032047
     44          8           0        3.155074   -5.880164   -0.498892
     45          8           0        5.391193   -5.200352   -0.506681
     46          6           0        5.536151   -6.067962   -1.674483
     47          6           0       -3.654922   -2.696689   -2.301241
     48          6           0       -4.086396   -1.478554   -1.522079
     49          6           0       -4.545179   -1.389743   -0.290285
     50          6           0       -4.691061   -2.542420    0.792234
     51          6           0       -4.925443   -0.069658    0.185467
     52          6           0       -6.279878    0.407994   -0.152724
     53          6           0       -6.413226    1.945282   -0.018153
     54          6           0       -7.788460    2.511629   -0.158631
     55          6           0       -7.791966    4.000760   -0.530474
     56          6           0       -8.637578    2.165691    1.166323
     57          6           0      -10.103251    1.774553    0.840060
     58          6           0      -10.621843    0.636016    1.750776
     59          6           0      -10.826041   -0.771674    1.008416
     60          6           0       -9.818018   -1.861111    1.518846
     61          6           0      -12.269876   -1.155134    1.107644
     62          6           0      -13.163418   -0.147204    0.248747
     63          6           0      -14.577215    0.136950    0.957231
     64          6           0      -14.928675    1.669414    0.880952
     65          6           0      -15.284743    2.230878    2.276339
     66          6           0      -16.135592    1.840526   -0.020722
     67          1           0        3.000956    0.820713   -4.043741
     68          1           0        6.474581    4.795917   -0.213690
     69          1           0        7.717139    0.128079    3.823208
     70          1           0        2.438194   -3.460847   -2.221799
     71          1           0        1.320616   -1.009601   -3.113894
     72          1           0        1.892005   -2.189603   -4.973034
     73          1           0        3.188828   -3.112971   -4.243880
     74          1           0        3.579846   -1.528524   -4.825769
     75          1           0        0.155484   -1.684960   -1.255078
     76          1           0        0.957465   -2.602295    0.051210
     77          1           0       -0.455773   -4.105613   -0.440275
     78          1           0        0.470830   -4.427224   -1.889085
     79          1           0        3.923849    4.335643   -5.233752
     80          1           0        2.425306    3.999746   -4.232028
     81          1           0        3.231739    2.743223   -5.253460
     82          1           0        6.714570    6.276169   -1.685280
     83          1           0        5.258806    6.415383   -0.605237
     84          1           0        5.337116    7.480986   -1.950157
     85          1           0        6.968748    4.672915    2.452770
     86          1           0        8.520763    2.467729    3.421841
     87          1           0        9.551585    3.801527    2.257100
     88          1           0        8.889451    5.385771    1.764877
     89          1           0        8.919626    4.028955    0.541330
     90          1           0        6.576987    1.955000    4.897737
     91          1           0        5.726037    3.437693    4.269967
     92          1           0        8.266734    4.093001    5.084914
     93          1           0        7.531873    3.336773    6.455703
     94          1           0        6.765887    4.807654    5.764250
     95          1           0        6.708522   -1.930890    5.067785
     96          1           0        8.132266   -2.501919    4.298999
     97          1           0        6.712713   -3.607493    4.733677
     98          1           0        2.722322   -4.161980    1.338472
     99          1           0        6.427506   -5.574031   -2.063141
    100          1           0        4.621182   -6.121029   -2.264459
    101          1           0        5.859717   -7.037325   -1.295147
    102          1           0       -4.340652   -3.525677   -2.127234
    103          1           0       -3.712996   -2.501218   -3.372242
    104          1           0       -4.058952   -0.595125   -2.160143
    105          1           0       -3.696859   -2.613179    1.233765
    106          1           0       -4.824991   -3.466947    0.230866
    107          1           0       -5.547111   -2.341608    1.435675
    108          1           0       -4.266700    0.724939   -0.163683
    109          1           0       -4.863898    0.004814    1.270639
    110          1           0       -6.977536   -0.006904    0.573913
    111          1           0       -6.484908    0.068377   -1.168525
    112          1           0       -5.820745    2.298346   -0.861461
    113          1           0       -5.949383    2.314047    0.897033
    114          1           0       -8.276353    2.090518   -1.037560
    115          1           0       -8.605576    4.159796   -1.236861
    116          1           0       -6.809138    4.298753   -0.894741
    117          1           0       -8.049457    4.636010    0.317110
    118          1           0       -8.581592    3.031652    1.826922
    119          1           0       -8.180738    1.371717    1.757061
    120          1           0      -10.184289    1.538138   -0.221688
    121          1           0      -10.659845    2.676187    1.093635
    122          1           0      -11.567067    1.001294    2.152816
    123          1           0      -10.005562    0.460980    2.632657
    124          1           0      -10.511508   -0.717570   -0.033048
    125          1           0       -9.279770   -2.195037    0.632291
    126          1           0      -10.270351   -2.747117    1.963017
    127          1           0       -9.014942   -1.459186    2.136576
    128          1           0      -12.580234   -1.190101    2.151427
    129          1           0      -12.377573   -2.157111    0.690956
    130          1           0      -13.486044   -0.662211   -0.657004
    131          1           0      -12.657781    0.789447    0.012948
    132          1           0      -14.633092   -0.237668    1.979056
    133          1           0      -15.326804   -0.457534    0.434125
    134          1           0      -14.104648    2.239052    0.452792
    135          1           0      -15.620928    3.264277    2.195910
    136          1           0      -14.372338    2.104120    2.859346
    137          1           0      -15.997542    1.595096    2.802511
    138          1           0      -16.570047    0.889423   -0.328445
    139          1           0      -15.808806    2.258691   -0.972448
    140          1           0      -16.889941    2.486941    0.428830
 ---------------------------------------------------------------------

 SCF Done:  E(RPBE1PBE) =  -3005.31950624     A.U. after   15 cycles

 Excitation energies and oscillator strengths:

 Excited State   1:      Singlet-A      1.8696 eV  663.14 nm  f=0.3325  <S**2>=0.000
     245 -> 248       -0.19102
     246 -> 247        0.68653
 This state for optimization and/or second-order correction.
 Total Energy, E(TD-HF/TD-DFT) =  -3005.25079797
 Copying the excited state density for this state as the 1-particle RhoCI density.

 Excited State   2:      Singlet-A      2.2327 eV  555.30 nm  f=0.0735  <S**2>=0.000
     244 -> 247        0.10068
     245 -> 247        0.63226
     246 -> 248        0.29384

 Excited State   3:      Singlet-A      2.7604 eV  449.16 nm  f=0.0022  <S**2>=0.000
     243 -> 247        0.30094
     243 -> 249        0.11433
     244 -> 247        0.60487
     246 -> 248       -0.10900

 Excited State   4:      Singlet-A      2.9430 eV  421.28 nm  f=0.0004  <S**2>=0.000
     243 -> 247        0.60399
     244 -> 247       -0.30433
     246 -> 248        0.13702

 Excited State   5:      Singlet-A      3.1645 eV  391.79 nm  f=0.0000  <S**2>=0.000
     242 -> 247        0.66261
     242 -> 249       -0.16089

 The electronic state is 1-A.
 Alpha  occ. eigenvalues --  -46.94006 -19.25740 -19.24268 -19.20244 -19.20026
 Alpha  occ. eigenvalues --  -19.18834 -19.18080 -14.41917 -14.41516 -14.40195
 Alpha  occ. eigenvalues --  -14.38791 -10.36365 -10.36204 -10.31875 -10.30604
 Alpha  occ. eigenvalues --  -10.29820 -10.29353 -10.29314 -10.29161 -10.28941
 Alpha  occ. eigenvalues --  -10.28749 -10.28675 -10.27867 -10.27117 -10.27023
 Alpha  occ. eigenvalues --  -10.27014 -10.26541 -10.26531 -10.26236 -10.26109
 Alpha  occ. eigenvalues --  -10.25993 -10.25878 -10.25878 -10.25829 -10.24952
 Alpha  occ. eigenvalues --  -10.24934 -10.24878 -10.24657 -10.24533 -10.24459
 Alpha  occ. eigenvalues --  -10.24020 -10.24003 -10.23882 -10.23808 -10.23762
 Alpha  occ. eigenvalues --  -10.23661 -10.23429 -10.23268 -10.23252 -10.23153
 Alpha  occ. eigenvalues --  -10.23004 -10.22964 -10.22849 -10.22686 -10.22525
 Alpha  occ. eigenvalues --  -10.22436 -10.22391 -10.22377 -10.22333 -10.22326
 Alpha  occ. eigenvalues --  -10.22307 -10.21998 -10.21806 -10.21796 -10.21766
 Alpha  occ. eigenvalues --  -10.20983  -3.15999  -1.88781  -1.88424  -1.88186
 Alpha  occ. eigenvalues --   -1.11162  -1.08568  -1.05010  -1.03700  -1.03200
 Alpha  occ. eigenvalues --   -1.01080  -0.99442  -0.97892  -0.97728  -0.95716
 Alpha  occ. eigenvalues --   -0.87199  -0.85754  -0.83751  -0.83501  -0.83132
 Alpha  occ. eigenvalues --   -0.82697  -0.82668  -0.81545  -0.81162  -0.81003
 Alpha  occ. eigenvalues --   -0.80280  -0.79770  -0.78958  -0.78239  -0.78036
 Alpha  occ. eigenvalues --   -0.77167  -0.76703  -0.75617  -0.74799  -0.74243
 Alpha  occ. eigenvalues --   -0.74115  -0.72502  -0.71790  -0.71554  -0.70316
 Alpha  occ. eigenvalues --   -0.70010  -0.69506  -0.69314  -0.68831  -0.68147
 Alpha  occ. eigenvalues --   -0.67599  -0.67206  -0.66216  -0.64517  -0.63312
 Alpha  occ. eigenvalues --   -0.62885  -0.61814  -0.61672  -0.60949  -0.60160
 Alpha  occ. eigenvalues --   -0.59785  -0.59610  -0.59376  -0.58683  -0.58483
 Alpha  occ. eigenvalues --   -0.57926  -0.57414  -0.56591  -0.56293  -0.54769
 Alpha  occ. eigenvalues --   -0.54298  -0.53670  -0.53453  -0.53388  -0.52129
 Alpha  occ. eigenvalues --   -0.51634  -0.51440  -0.51108  -0.50245  -0.50126
 Alpha  occ. eigenvalues --   -0.49585  -0.49259  -0.48646  -0.48582  -0.48396
 Alpha  occ. eigenvalues --   -0.48294  -0.48237  -0.48150  -0.47748  -0.47406
 Alpha  occ. eigenvalues --   -0.47123  -0.46967  -0.46775  -0.46387  -0.45797
 Alpha  occ. eigenvalues --   -0.45768  -0.45720  -0.45558  -0.45476  -0.45270
 Alpha  occ. eigenvalues --   -0.45153  -0.44814  -0.44527  -0.44398  -0.44209
 Alpha  occ. eigenvalues --   -0.44054  -0.43889  -0.43757  -0.43467  -0.43371
 Alpha  occ. eigenvalues --   -0.43197  -0.42937  -0.42830  -0.42548  -0.42411
 Alpha  occ. eigenvalues --   -0.42327  -0.41841  -0.41669  -0.41501  -0.41327
 Alpha  occ. eigenvalues --   -0.40987  -0.40913  -0.40772  -0.40586  -0.40434
 Alpha  occ. eigenvalues --   -0.40012  -0.39814  -0.39672  -0.39620  -0.39513
 Alpha  occ. eigenvalues --   -0.39339  -0.39112  -0.39049  -0.38848  -0.38751
 Alpha  occ. eigenvalues --   -0.38618  -0.38603  -0.38221  -0.37855  -0.37629
 Alpha  occ. eigenvalues --   -0.37324  -0.37277  -0.37005  -0.36928  -0.36802
 Alpha  occ. eigenvalues --   -0.36667  -0.36559  -0.36424  -0.36204  -0.36013
 Alpha  occ. eigenvalues --   -0.35948  -0.35684  -0.35091  -0.35034  -0.34857
 Alpha  occ. eigenvalues --   -0.34768  -0.34655  -0.34194  -0.34139  -0.33755
 Alpha  occ. eigenvalues --   -0.33719  -0.33244  -0.32778  -0.32513  -0.32359
 Alpha  occ. eigenvalues --   -0.32075  -0.31734  -0.31631  -0.31293  -0.30726
 Alpha  occ. eigenvalues --   -0.30556  -0.30148  -0.29572  -0.29525  -0.29340
 Alpha  occ. eigenvalues --   -0.29147  -0.28808  -0.28306  -0.26991  -0.26534
 Alpha  occ. eigenvalues --   -0.26077  -0.25976  -0.25067  -0.24328  -0.21258
 Alpha  occ. eigenvalues --   -0.18980
 Alpha virt. eigenvalues --   -0.11204  -0.05991  -0.04265  -0.02300  -0.02029
 Alpha virt. eigenvalues --   -0.00093   0.00224   0.00344   0.01473   0.02978
 Alpha virt. eigenvalues --    0.04093   0.04645   0.04818   0.05206   0.05467

 Mulliken charges:
               1
     1  Mg   0.971389
     2  C   -0.034235
     3  C   -0.051090
     4  C   -0.077514
     5  C   -0.084078
     6  N   -0.314926
     7  C    0.011167
     8  C   -0.012684
     9  C   -0.135981
    10  C    0.007111
    11  C    0.003326
    12  C    0.022330
    13  C   -0.008371
    14  C    0.199226
    15  O   -0.260248
    16  O   -0.355286
    17  N   -0.531739
    18  C    0.170218
    19  C   -0.198716
    20  C   -0.057074
    21  C    0.215392
    22  C    0.084217
    23  C    0.021306
    24  O   -0.250525
    25  C    0.006514
    26  N   -0.409521
    27  C    0.054197
    28  C   -0.146894
    29  C   -0.119659
    30  C    0.059200
    31  C    0.025785
    32  C   -0.017297
    33  C   -0.059865
    34  N   -0.455211
    35  C    0.162863
    36  C   -0.158112
    37  C   -0.031379
    38  C    0.177752
    39  C    0.084374
    40  C    0.093934
    41  O   -0.225682
    42  C   -0.138672
    43  C    0.308534
    44  O   -0.262076
    45  O   -0.416353
    46  C    0.124624
    47  C    0.250302
    48  C   -0.172574
    49  C   -0.164873
    50  C    0.039411
    51  C    0.010925
    52  C   -0.026285
    53  C   -0.047221
    54  C   -0.193095
    55  C    0.012202
    56  C   -0.015155
    57  C   -0.040215
    58  C   -0.028665
    59  C   -0.215963
    60  C   -0.008876
    61  C    0.005396
    62  C   -0.073175
    63  C   -0.011406
    64  C   -0.256855
    65  C   -0.026531
    66  C    0.000353
    67  H    0.007353
    68  H   -0.010737
    69  H    0.002899
    70  H    0.053737
    71  H    0.057232
    72  H    0.065323
    73  H    0.039244
    74  H    0.051670
    75  H    0.053134
    76  H    0.051238
    77  H    0.050749
    78  H    0.059623
    79  H    0.070718
    80  H    0.072349
    81  H    0.036777
    82  H    0.080548
    83  H    0.068648
    84  H    0.055624
    85  H    0.045508
    86  H    0.033303
    87  H    0.043401
    88  H    0.046561
    89  H    0.049390
    90  H    0.038363
    91  H    0.044163
    92  H    0.025238
    93  H    0.045100
    94  H    0.054788
    95  H    0.041067
    96  H    0.052866
    97  H    0.065431
    98  H    0.075064
    99  H    0.054215
   100  H    0.073909
   101  H    0.056236
   102  H    0.037383
   103  H    0.057832
   104  H    0.023257
   105  H    0.070705
   106  H    0.036408
   107  H    0.056697
   108  H    0.026126
   109  H    0.013791
   110  H    0.020390
   111  H    0.023112
   112  H    0.019474
   113  H    0.029038
   114  H    0.024380
   115  H    0.033627
   116  H    0.034804
   117  H    0.023846
   118  H    0.024815
   119  H    0.023594
   120  H    0.042921
   121  H    0.029646
   122  H    0.031361
   123  H    0.027486
   124  H    0.034658
   125  H    0.024557
   126  H    0.034885
   127  H    0.028600
   128  H    0.034616
   129  H    0.022491
   130  H    0.035781
   131  H    0.052320
   132  H    0.023220
   133  H    0.025488
   134  H    0.039954
   135  H    0.045625
   136  H    0.030592
   137  H    0.036434
   138  H    0.025935
   139  H    0.024001
   140  H    0.031447
 Sum of Mulliken charges =  -0.00000

 Dipole moment (field-independent basis, Debye):
    X=              1.1298    Y=              4.5711    Z=              0.9711  Tot=              4.8077
 Quadrupole moment (field-independent basis, Debye-Ang):
   XX=           -351.0855   YY=           -440.3219   ZZ=           -403.4384
   XY=             26.2228   XZ=              7.1602   YZ=             33.6601

 Normal termination of Gaussian 16 at Wed May  4 16:50:57 2022.
