 Gaussian 16, Revision A.03,
 Gaussian 16:  ES64L-G16RevA.03 25-Dec-2016

 --------------------------------
 #p wB97XD/Def2SVP td=(nstates=5)
 --------------------------------

 -------------------------------------------------
 step_1_chromophore_5 TDDFT with wB97XD functional
 -------------------------------------------------
 Symbolic Z-matrix:
 Charge =  0 Multiplicity = 1

                         Standard orientation:
 ---------------------------------------------------------------------
 Center     Atomic      Atomic             Coordinates (Angstroms)
 Number     Number       Type             X           Y           Z
 ---------------------------------------------------------------------
      1         12           0        5.595197    0.627782   -0.310178
      2          6           0        4.036030   -2.645379    0.256419
      3          6           0        3.572315    0.776543   -3.114728
      4          6           0        6.078904    3.779640   -0.269076
      5          6           0        7.125199    0.150911    2.905947
      6          7           0        3.826571   -0.815280   -1.229042
      7          6           0        3.391123   -2.065412   -0.847186
      8          6           0        2.191073   -2.501429   -1.765086
      9          6           0        2.258693   -1.545321   -2.968618
     10          6           0        3.268890   -0.467767   -2.418843
     11          6           0        2.785326   -2.106866   -4.354335
     12          6           0        0.809276   -2.526952   -1.026253
     13          6           0       -0.121950   -3.666356   -1.380354
     14          6           0       -1.297191   -3.335835   -2.353045
     15          8           0       -1.165136   -3.131476   -3.538266
     16          8           0       -2.452550   -3.203856   -1.639389
     17          7           0        5.040079    2.053788   -1.565430
     18          6           0        4.308779    1.941763   -2.716593
     19          6           0        4.177758    3.276181   -3.363087
     20          6           0        4.894483    4.153218   -2.507882
     21          6           0        5.334330    3.344670   -1.373543
     22          6           0        3.369268    3.621597   -4.624335
     23          6           0        4.985274    5.680710   -2.568345
     24          8           0        4.464628    6.236238   -3.531893
     25          6           0        5.646885    6.488450   -1.621235
     26          7           0        6.268230    1.840402    1.294657
     27          6           0        6.599243    3.113400    0.874638
     28          6           0        7.448293    3.798298    2.014523
     29          6           0        7.494686    2.708879    3.145206
     30          6           0        7.019863    1.463509    2.358756
     31          6           0        8.852912    4.310488    1.592942
     32          6           0        6.681664    2.956583    4.479358
     33          6           0        7.298700    3.883652    5.540993
     34          7           0        5.680031   -0.898066    1.294351
     35          6           0        6.441125   -0.974588    2.443637
     36          6           0        6.360101   -2.278144    3.056815
     37          6           0        5.424918   -2.982730    2.209836
     38          6           0        4.959025   -2.121300    1.156027
     39          6           0        7.053525   -2.654032    4.329940
     40          6           0        4.730453   -4.185286    2.083803
     41          8           0        4.624811   -5.136575    2.846069
     42          6           0        3.715150   -4.000471    0.919022
     43          6           0        4.019561   -5.134303   -0.032047
     44          8           0        3.155074   -5.880164   -0.498892
     45          8           0        5.391193   -5.200352   -0.506681
     46          6           0        5.536151   -6.067962   -1.674483
     47          6           0       -3.654922   -2.696689   -2.301241
     48          6           0       -4.086396   -1.478554   -1.522079
     49          6           0       -4.545179   -1.389743   -0.290285
     50          6           0       -4.691061   -2.542420    0.792234
     51          6           0       -4.925443   -0.069658    0.185467
     52          6           0       -6.279878    0.407994   -0.152724
     53          6           0       -6.413226    1.945282   -0.018153
     54          6           0       -7.788460    2.511629   -0.158631
     55          6           0       -7.791966    4.000760   -0.530474
     56          6           0       -8.637578    2.165691    1.166323
     57          6           0      -10.103251    1.774553    0.840060
     58          6           0      -10.621843    0.636016    1.750776
     59          6           0      -10.826041   -0.771674    1.008416
     60          6           0       -9.818018   -1.861111    1.518846
     61          6           0      -12.269876   -1.155134    1.107644
     62          6           0      -13.163418   -0.147204    0.248747
     63          6           0      -14.577215    0.136950    0.957231
     64          6           0      -14.928675    1.669414    0.880952
     65          6           0      -15.284743    2.230878    2.276339
     66          6           0      -16.135592    1.840526   -0.020722
     67          1           0        3.000956    0.820713   -4.043741
     68          1           0        6.474581    4.795917   -0.213690
     69          1           0        7.717139    0.128079    3.823208
     70          1           0        2.438194   -3.460847   -2.221799
     71          1           0        1.320616   -1.009601   -3.113894
     72          1           0        1.892005   -2.189603   -4.973034
     73          1           0        3.188828   -3.112971   -4.243880
     74          1           0        3.579846   -1.528524   -4.825769
     75          1           0        0.155484   -1.684960   -1.255078
     76          1           0        0.957465   -2.602295    0.051210
     77          1           0       -0.455773   -4.105613   -0.440275
     78          1           0        0.470830   -4.427224   -1.889085
     79          1           0        3.923849    4.335643   -5.233752
     80          1           0        2.425306    3.999746   -4.232028
     81          1           0        3.231739    2.743223   -5.253460
     82          1           0        6.714570    6.276169   -1.685280
     83          1           0        5.258806    6.415383   -0.605237
     84          1           0        5.337116    7.480986   -1.950157
     85          1           0        6.968748    4.672915    2.452770
     86          1           0        8.520763    2.467729    3.421841
     87          1           0        9.551585    3.801527    2.257100
     88          1           0        8.889451    5.385771    1.764877
     89          1           0        8.919626    4.028955    0.541330
     90          1           0        6.576987    1.955000    4.897737
     91          1           0        5.726037    3.437693    4.269967
     92          1           0        8.266734    4.093001    5.084914
     93          1           0        7.531873    3.336773    6.455703
     94          1           0        6.765887    4.807654    5.764250
     95          1           0        6.708522   -1.930890    5.067785
     96          1           0        8.132266   -2.501919    4.298999
     97          1           0        6.712713   -3.607493    4.733677
     98          1           0        2.722322   -4.161980    1.338472
     99          1           0        6.427506   -5.574031   -2.063141
    100          1           0        4.621182   -6.121029   -2.264459
    101          1           0        5.859717   -7.037325   -1.295147
    102          1           0       -4.340652   -3.525677   -2.127234
    103          1           0       -3.712996   -2.501218   -3.372242
    104          1           0       -4.058952   -0.595125   -2.160143
    105          1           0       -3.696859   -2.613179    1.233765
    106          1           0       -4.824991   -3.466947    0.230866
    107          1           0       -5.547111   -2.341608    1.435675
    108          1           0       -4.266700    0.724939   -0.163683
    109          1           0       -4.863898    0.004814    1.270639
    110          1           0       -6.977536   -0.006904    0.573913
    111          1           0       -6.484908    0.068377   -1.168525
    112          1           0       -5.820745    2.298346   -0.861461
    113          1           0       -5.949383    2.314047    0.897033
    114          1           0       -8.276353    2.090518   -1.037560
    115          1           0       -8.605576    4.159796   -1.236861
    116          1           0       -6.809138    4.298753   -0.894741
    117          1           0       -8.049457    4.636010    0.317110
    118          1           0       -8.581592    3.031652    1.826922
    119          1           0       -8.180738    1.371717    1.757061
    120          1           0      -10.184289    1.538138   -0.221688
    121          1           0      -10.659845    2.676187    1.093635
    122          1           0      -11.567067    1.001294    2.152816
    123          1           0      -10.005562    0.460980    2.632657
    124          1           0      -10.511508   -0.717570   -0.033048
    125          1           0       -9.279770   -2.195037    0.632291
    126          1           0      -10.270351   -2.747117    1.963017
    127          1           0       -9.014942   -1.459186    2.136576
    128          1           0      -12.580234   -1.190101    2.151427
    129          1           0      -12.377573   -2.157111    0.690956
    130          1           0      -13.486044   -0.662211   -0.657004
    131          1           0      -12.657781    0.789447    0.012948
    132          1           0      -14.633092   -0.237668    1.979056
    133          1           0      -15.326804   -0.457534    0.434125
    134          1           0      -14.104648    2.239052    0.452792
    135          1           0      -15.620928    3.264277    2.195910
    136          1           0      -14.372338    2.104120    2.859346
    137          1           0      -15.997542    1.595096    2.802511
    138          1           0      -16.570047    0.889423   -0.328445
    139          1           0      -15.808806    2.258691   -0.972448
    140          1           0      -16.889941    2.486941    0.428830
 ---------------------------------------------------------------------

 SCF Done:  E(RwB97XD) =  -3007.82824876     A.U. after   17 cycles

 Excitation energies and oscillator strengths:

 Excited State   1:      Singlet-A      1.6703 eV  742.27 nm  f=0.3437  <S**2>=0.000
     245 -> 248       -0.20141
     246 -> 247        0.67716
     245 <- 248       -0.11911
 This state for optimization and/or second-order correction.
 Total Energy, E(TD-HF/TD-DFT) =  -3007.76686502
 Copying the excited state density for this state as the 1-particle RhoCI density.

 Excited State   2:      Singlet-A      2.1913 eV  565.80 nm  f=0.0673  <S**2>=0.000
     245 -> 247        0.61434
     246 -> 248        0.33128

 Excited State   3:      Singlet-A      3.2227 eV  384.72 nm  f=0.0195  <S**2>=0.000
     244 -> 247        0.61495
     244 -> 249        0.11999
     246 -> 248       -0.25088

 Excited State   4:      Singlet-A      3.4247 eV  362.03 nm  f=0.0620  <S**2>=0.000
     243 -> 247        0.53633
     243 -> 249        0.28601
     243 -> 250       -0.11158
     243 -> 251       -0.16365
     246 -> 248        0.19798

 Excited State   5:      Singlet-A      3.5020 eV  354.04 nm  f=0.7329  <S**2>=0.000
     241 -> 247        0.18882
     243 -> 247       -0.15269
     244 -> 247        0.25377
     245 -> 247       -0.30644
     246 -> 248        0.51755
     245 <- 247        0.10458

 The electronic state is 1-A.
 Alpha  occ. eigenvalues --  -46.96969 -19.30265 -19.28823 -19.24938 -19.24709
 Alpha  occ. eigenvalues --  -19.23741 -19.22787 -14.47182 -14.46442 -14.45290
 Alpha  occ. eigenvalues --  -14.43614 -10.43174 -10.42992 -10.38804 -10.37378
 Alpha  occ. eigenvalues --  -10.36314 -10.35769 -10.35656 -10.35525 -10.35445
 Alpha  occ. eigenvalues --  -10.35360 -10.34875 -10.34353 -10.33771 -10.33221
 Alpha  occ. eigenvalues --  -10.33092 -10.32941 -10.32785 -10.32543 -10.32512
 Alpha  occ. eigenvalues --  -10.32359 -10.32278 -10.32151 -10.32021 -10.31487
 Alpha  occ. eigenvalues --  -10.31278 -10.31214 -10.30968 -10.30720 -10.30703
 Alpha  occ. eigenvalues --  -10.30479 -10.30433 -10.30402 -10.30306 -10.30194
 Alpha  occ. eigenvalues --  -10.30041 -10.29933 -10.29596 -10.29534 -10.29424
 Alpha  occ. eigenvalues --  -10.29266 -10.29195 -10.29121 -10.29032 -10.28874
 Alpha  occ. eigenvalues --  -10.28803 -10.28764 -10.28714 -10.28691 -10.28673
 Alpha  occ. eigenvalues --  -10.28661 -10.28372 -10.28229 -10.28203 -10.28187
 Alpha  occ. eigenvalues --  -10.27397  -3.22871  -1.96395  -1.96038  -1.95791
 Alpha  occ. eigenvalues --   -1.18529  -1.15976  -1.12596  -1.11087  -1.10531
 Alpha  occ. eigenvalues --   -1.08445  -1.06993  -1.05244  -1.05188  -1.02953
 Alpha  occ. eigenvalues --   -0.94752  -0.93389  -0.91395  -0.91158  -0.90764
 Alpha  occ. eigenvalues --   -0.90351  -0.90308  -0.89193  -0.88885  -0.88769
 Alpha  occ. eigenvalues --   -0.87819  -0.87363  -0.86651  -0.85963  -0.85629
 Alpha  occ. eigenvalues --   -0.84804  -0.84352  -0.83223  -0.82442  -0.81909
 Alpha  occ. eigenvalues --   -0.81725  -0.80187  -0.79514  -0.79133  -0.77978
 Alpha  occ. eigenvalues --   -0.77637  -0.77121  -0.77005  -0.76500  -0.75781
 Alpha  occ. eigenvalues --   -0.75220  -0.74690  -0.73760  -0.72139  -0.70877
 Alpha  occ. eigenvalues --   -0.70366  -0.69435  -0.69319  -0.68569  -0.67657
 Alpha  occ. eigenvalues --   -0.67258  -0.67234  -0.66893  -0.66173  -0.65907
 Alpha  occ. eigenvalues --   -0.65612  -0.65065  -0.64221  -0.63774  -0.62307
 Alpha  occ. eigenvalues --   -0.61680  -0.61162  -0.60925  -0.60805  -0.59596
 Alpha  occ. eigenvalues --   -0.58982  -0.58903  -0.58554  -0.57727  -0.57454
 Alpha  occ. eigenvalues --   -0.57004  -0.56656  -0.56202  -0.55977  -0.55821
 Alpha  occ. eigenvalues --   -0.55715  -0.55666  -0.55503  -0.55137  -0.54764
 Alpha  occ. eigenvalues --   -0.54547  -0.54356  -0.54095  -0.53640  -0.53307
 Alpha  occ. eigenvalues --   -0.53133  -0.53087  -0.52900  -0.52856  -0.52625
 Alpha  occ. eigenvalues --   -0.52434  -0.52149  -0.51844  -0.51701  -0.51512
 Alpha  occ. eigenvalues --   -0.51418  -0.51223  -0.51051  -0.50721  -0.50677
 Alpha  occ. eigenvalues --   -0.50449  -0.50220  -0.50096  -0.49796  -0.49694
 Alpha  occ. eigenvalues --   -0.49595  -0.49150  -0.48975  -0.48738  -0.48518
 Alpha  occ. eigenvalues --   -0.48257  -0.48133  -0.47983  -0.47770  -0.47688
 Alpha  occ. eigenvalues --   -0.47156  -0.47023  -0.46919  -0.46759  -0.46680
 Alpha  occ. eigenvalues --   -0.46459  -0.46315  -0.46228  -0.45950  -0.45937
 Alpha  occ. eigenvalues --   -0.45755  -0.45585  -0.45314  -0.45036  -0.44755
 Alpha  occ. eigenvalues --   -0.44463  -0.44328  -0.44148  -0.44080  -0.43999
 Alpha  occ. eigenvalues --   -0.43814  -0.43665  -0.43513  -0.43291  -0.43109
 Alpha  occ. eigenvalues --   -0.42994  -0.42719  -0.42095  -0.42068  -0.41929
 Alpha  occ. eigenvalues --   -0.41759  -0.41718  -0.41241  -0.41118  -0.40809
 Alpha  occ. eigenvalues --   -0.40694  -0.40333  -0.39707  -0.39582  -0.39417
 Alpha  occ. eigenvalues --   -0.39105  -0.38708  -0.38563  -0.38309  -0.37702
 Alpha  occ. eigenvalues --   -0.37507  -0.37232  -0.36466  -0.36385  -0.36180
 Alpha  occ. eigenvalues --   -0.35983  -0.35763  -0.35156  -0.33738  -0.33416
 Alpha  occ. eigenvalues --   -0.33098  -0.32815  -0.32014  -0.30746  -0.26281
 Alpha  occ. eigenvalues --   -0.23140
 Alpha virt. eigenvalues --   -0.07006  -0.00679   0.01988   0.03766   0.04434
 Alpha virt. eigenvalues --    0.06629   0.07038   0.07096   0.08361   0.09662
 Alpha virt. eigenvalues --    0.10722   0.11319   0.11401   0.11805   0.12205

 Mulliken charges:
               1
     1  Mg   0.966047
     2  C   -0.023647
     3  C   -0.062793
     4  C   -0.092641
     5  C   -0.101281
     6  N   -0.282344
     7  C   -0.028309
     8  C    0.015444
     9  C   -0.114046
    10  C   -0.009948
    11  C    0.013150
    12  C    0.033053
    13  C    0.006111
    14  C    0.187813
    15  O   -0.257653
    16  O   -0.354164
    17  N   -0.499493
    18  C    0.163097
    19  C   -0.189760
    20  C   -0.055939
    21  C    0.215393
    22  C    0.097012
    23  C    0.017528
    24  O   -0.245809
    25  C    0.020422
    26  N   -0.385070
    27  C    0.048629
    28  C   -0.125777
    29  C   -0.089899
    30  C    0.044848
    31  C    0.037798
    32  C   -0.003705
    33  C   -0.042735
    34  N   -0.423170
    35  C    0.154967
    36  C   -0.160305
    37  C   -0.020791
    38  C    0.157844
    39  C    0.093698
    40  C    0.073967
    41  O   -0.217212
    42  C   -0.099156
    43  C    0.287424
    44  O   -0.257521
    45  O   -0.417753
    46  C    0.139038
    47  C    0.260590
    48  C   -0.182410
    49  C   -0.154888
    50  C    0.057050
    51  C    0.030618
    52  C   -0.005136
    53  C   -0.025656
    54  C   -0.164275
    55  C    0.022030
    56  C   -0.000723
    57  C   -0.022691
    58  C   -0.009616
    59  C   -0.188212
    60  C    0.002555
    61  C    0.022348
    62  C   -0.051405
    63  C   -0.001177
    64  C   -0.226274
    65  C   -0.010975
    66  C    0.010608
    67  H    0.001458
    68  H   -0.024148
    69  H   -0.002437
    70  H    0.036464
    71  H    0.048249
    72  H    0.061815
    73  H    0.033980
    74  H    0.045318
    75  H    0.044680
    76  H    0.043343
    77  H    0.047246
    78  H    0.053876
    79  H    0.068015
    80  H    0.069158
    81  H    0.032204
    82  H    0.075418
    83  H    0.063742
    84  H    0.054504
    85  H    0.035550
    86  H    0.019785
    87  H    0.037716
    88  H    0.041972
    89  H    0.042332
    90  H    0.028841
    91  H    0.036049
    92  H    0.015420
    93  H    0.039958
    94  H    0.049931
    95  H    0.033583
    96  H    0.047537
    97  H    0.062373
    98  H    0.070813
    99  H    0.050878
   100  H    0.069799
   101  H    0.052111
   102  H    0.032575
   103  H    0.056277
   104  H    0.019855
   105  H    0.065587
   106  H    0.029301
   107  H    0.052026
   108  H    0.016657
   109  H    0.005736
   110  H    0.003356
   111  H    0.013562
   112  H    0.008154
   113  H    0.019844
   114  H    0.011344
   115  H    0.028511
   116  H    0.029435
   117  H    0.017223
   118  H    0.016594
   119  H    0.010036
   120  H    0.032409
   121  H    0.022112
   122  H    0.018307
   123  H    0.018507
   124  H    0.021504
   125  H    0.018452
   126  H    0.030347
   127  H    0.021063
   128  H    0.024456
   129  H    0.014991
   130  H    0.028372
   131  H    0.035658
   132  H    0.013954
   133  H    0.016804
   134  H    0.029125
   135  H    0.040078
   136  H    0.022647
   137  H    0.029583
   138  H    0.019114
   139  H    0.018426
   140  H    0.025763
 Sum of Mulliken charges =  -0.00000

 Dipole moment (field-independent basis, Debye):
    X=              1.1049    Y=              4.8208    Z=              0.5504  Tot=              4.9763
 Quadrupole moment (field-independent basis, Debye-Ang):
   XX=           -351.7200   YY=           -438.9268   ZZ=           -403.3574
   XY=             27.5102   XZ=              4.5726   YZ=             33.1786

 Normal termination of Gaussian 16 at Wed May  4 17:47:18 2022.
