 Gaussian 16, Revision A.03,
 Gaussian 16:  ES64L-G16RevA.03 25-Dec-2016

 --------------------
 #p ZINDO=(nstates=5)
 --------------------

 --------------------------
 step_1_chromophore_5 ZINDO
 --------------------------
 Symbolic Z-matrix:
 Charge =  0 Multiplicity = 1

                         Standard orientation:
 ---------------------------------------------------------------------
 Center     Atomic      Atomic             Coordinates (Angstroms)
 Number     Number       Type             X           Y           Z
 ---------------------------------------------------------------------
      1         12           0        5.595197    0.627782   -0.310178
      2          6           0        4.036030   -2.645379    0.256419
      3          6           0        3.572315    0.776543   -3.114728
      4          6           0        6.078904    3.779640   -0.269076
      5          6           0        7.125199    0.150911    2.905947
      6          7           0        3.826571   -0.815280   -1.229042
      7          6           0        3.391123   -2.065412   -0.847186
      8          6           0        2.191073   -2.501429   -1.765086
      9          6           0        2.258693   -1.545321   -2.968618
     10          6           0        3.268890   -0.467767   -2.418843
     11          6           0        2.785326   -2.106866   -4.354335
     12          6           0        0.809276   -2.526952   -1.026253
     13          6           0       -0.121950   -3.666356   -1.380354
     14          6           0       -1.297191   -3.335835   -2.353045
     15          8           0       -1.165136   -3.131476   -3.538266
     16          8           0       -2.452550   -3.203856   -1.639389
     17          7           0        5.040079    2.053788   -1.565430
     18          6           0        4.308779    1.941763   -2.716593
     19          6           0        4.177758    3.276181   -3.363087
     20          6           0        4.894483    4.153218   -2.507882
     21          6           0        5.334330    3.344670   -1.373543
     22          6           0        3.369268    3.621597   -4.624335
     23          6           0        4.985274    5.680710   -2.568345
     24          8           0        4.464628    6.236238   -3.531893
     25          6           0        5.646885    6.488450   -1.621235
     26          7           0        6.268230    1.840402    1.294657
     27          6           0        6.599243    3.113400    0.874638
     28          6           0        7.448293    3.798298    2.014523
     29          6           0        7.494686    2.708879    3.145206
     30          6           0        7.019863    1.463509    2.358756
     31          6           0        8.852912    4.310488    1.592942
     32          6           0        6.681664    2.956583    4.479358
     33          6           0        7.298700    3.883652    5.540993
     34          7           0        5.680031   -0.898066    1.294351
     35          6           0        6.441125   -0.974588    2.443637
     36          6           0        6.360101   -2.278144    3.056815
     37          6           0        5.424918   -2.982730    2.209836
     38          6           0        4.959025   -2.121300    1.156027
     39          6           0        7.053525   -2.654032    4.329940
     40          6           0        4.730453   -4.185286    2.083803
     41          8           0        4.624811   -5.136575    2.846069
     42          6           0        3.715150   -4.000471    0.919022
     43          6           0        4.019561   -5.134303   -0.032047
     44          8           0        3.155074   -5.880164   -0.498892
     45          8           0        5.391193   -5.200352   -0.506681
     46          6           0        5.536151   -6.067962   -1.674483
     47          6           0       -3.654922   -2.696689   -2.301241
     48          6           0       -4.086396   -1.478554   -1.522079
     49          6           0       -4.545179   -1.389743   -0.290285
     50          6           0       -4.691061   -2.542420    0.792234
     51          6           0       -4.925443   -0.069658    0.185467
     52          6           0       -6.279878    0.407994   -0.152724
     53          6           0       -6.413226    1.945282   -0.018153
     54          6           0       -7.788460    2.511629   -0.158631
     55          6           0       -7.791966    4.000760   -0.530474
     56          6           0       -8.637578    2.165691    1.166323
     57          6           0      -10.103251    1.774553    0.840060
     58          6           0      -10.621843    0.636016    1.750776
     59          6           0      -10.826041   -0.771674    1.008416
     60          6           0       -9.818018   -1.861111    1.518846
     61          6           0      -12.269876   -1.155134    1.107644
     62          6           0      -13.163418   -0.147204    0.248747
     63          6           0      -14.577215    0.136950    0.957231
     64          6           0      -14.928675    1.669414    0.880952
     65          6           0      -15.284743    2.230878    2.276339
     66          6           0      -16.135592    1.840526   -0.020722
     67          1           0        3.000956    0.820713   -4.043741
     68          1           0        6.474581    4.795917   -0.213690
     69          1           0        7.717139    0.128079    3.823208
     70          1           0        2.438194   -3.460847   -2.221799
     71          1           0        1.320616   -1.009601   -3.113894
     72          1           0        1.892005   -2.189603   -4.973034
     73          1           0        3.188828   -3.112971   -4.243880
     74          1           0        3.579846   -1.528524   -4.825769
     75          1           0        0.155484   -1.684960   -1.255078
     76          1           0        0.957465   -2.602295    0.051210
     77          1           0       -0.455773   -4.105613   -0.440275
     78          1           0        0.470830   -4.427224   -1.889085
     79          1           0        3.923849    4.335643   -5.233752
     80          1           0        2.425306    3.999746   -4.232028
     81          1           0        3.231739    2.743223   -5.253460
     82          1           0        6.714570    6.276169   -1.685280
     83          1           0        5.258806    6.415383   -0.605237
     84          1           0        5.337116    7.480986   -1.950157
     85          1           0        6.968748    4.672915    2.452770
     86          1           0        8.520763    2.467729    3.421841
     87          1           0        9.551585    3.801527    2.257100
     88          1           0        8.889451    5.385771    1.764877
     89          1           0        8.919626    4.028955    0.541330
     90          1           0        6.576987    1.955000    4.897737
     91          1           0        5.726037    3.437693    4.269967
     92          1           0        8.266734    4.093001    5.084914
     93          1           0        7.531873    3.336773    6.455703
     94          1           0        6.765887    4.807654    5.764250
     95          1           0        6.708522   -1.930890    5.067785
     96          1           0        8.132266   -2.501919    4.298999
     97          1           0        6.712713   -3.607493    4.733677
     98          1           0        2.722322   -4.161980    1.338472
     99          1           0        6.427506   -5.574031   -2.063141
    100          1           0        4.621182   -6.121029   -2.264459
    101          1           0        5.859717   -7.037325   -1.295147
    102          1           0       -4.340652   -3.525677   -2.127234
    103          1           0       -3.712996   -2.501218   -3.372242
    104          1           0       -4.058952   -0.595125   -2.160143
    105          1           0       -3.696859   -2.613179    1.233765
    106          1           0       -4.824991   -3.466947    0.230866
    107          1           0       -5.547111   -2.341608    1.435675
    108          1           0       -4.266700    0.724939   -0.163683
    109          1           0       -4.863898    0.004814    1.270639
    110          1           0       -6.977536   -0.006904    0.573913
    111          1           0       -6.484908    0.068377   -1.168525
    112          1           0       -5.820745    2.298346   -0.861461
    113          1           0       -5.949383    2.314047    0.897033
    114          1           0       -8.276353    2.090518   -1.037560
    115          1           0       -8.605576    4.159796   -1.236861
    116          1           0       -6.809138    4.298753   -0.894741
    117          1           0       -8.049457    4.636010    0.317110
    118          1           0       -8.581592    3.031652    1.826922
    119          1           0       -8.180738    1.371717    1.757061
    120          1           0      -10.184289    1.538138   -0.221688
    121          1           0      -10.659845    2.676187    1.093635
    122          1           0      -11.567067    1.001294    2.152816
    123          1           0      -10.005562    0.460980    2.632657
    124          1           0      -10.511508   -0.717570   -0.033048
    125          1           0       -9.279770   -2.195037    0.632291
    126          1           0      -10.270351   -2.747117    1.963017
    127          1           0       -9.014942   -1.459186    2.136576
    128          1           0      -12.580234   -1.190101    2.151427
    129          1           0      -12.377573   -2.157111    0.690956
    130          1           0      -13.486044   -0.662211   -0.657004
    131          1           0      -12.657781    0.789447    0.012948
    132          1           0      -14.633092   -0.237668    1.979056
    133          1           0      -15.326804   -0.457534    0.434125
    134          1           0      -14.104648    2.239052    0.452792
    135          1           0      -15.620928    3.264277    2.195910
    136          1           0      -14.372338    2.104120    2.859346
    137          1           0      -15.997542    1.595096    2.802511
    138          1           0      -16.570047    0.889423   -0.328445
    139          1           0      -15.808806    2.258691   -0.972448
    140          1           0      -16.889941    2.486941    0.428830
 ---------------------------------------------------------------------

 SCF Done:  E(RZINDO/S) =  -474.049194428     A.U. after   20 cycles

 Excitation energies and oscillator strengths:

 Excited State   1:      Singlet-A      1.2479 eV  993.56 nm  f=0.5467  <S**2>=0.000
     175 ->178        -0.19813
     176 ->177         0.66076
 This state for optimization and/or second-order correction.
 Total Energy, E(CIS/TDA) =  -474.003335812
 Copying the excited state density for this state as the 1-particle RhoCI density.

 Excited State   2:      Singlet-A      1.8720 eV  662.31 nm  f=0.0063  <S**2>=0.000
     175 ->177         0.49946
     176 ->178         0.47731

 Excited State   3:      Singlet-A      2.7557 eV  449.92 nm  f=0.0228  <S**2>=0.000
     176 ->179         0.39567
     176 ->180         0.56412

 Excited State   4:      Singlet-A      2.8235 eV  439.12 nm  f=0.0336  <S**2>=0.000
     171 ->177         0.29290
     171 ->178        -0.15504
     171 ->179         0.29068
     171 ->181        -0.25854
     171 ->185         0.15338
     171 ->187         0.11623
     171 ->188         0.10243
     174 ->177        -0.16819
     176 ->178        -0.10894
     176 ->180        -0.10772

 Excited State   5:      Singlet-A      2.9159 eV  425.21 nm  f=0.6730  <S**2>=0.000
     171 ->179         0.10037
     175 ->177        -0.33400
     176 ->178         0.37110
     176 ->179        -0.34422
     176 ->180         0.15077
     176 ->181         0.13680

 The electronic state is 1-A.
 Alpha  occ. eigenvalues --   -1.82364  -1.80214  -1.77857  -1.72657  -1.70517
 Alpha  occ. eigenvalues --   -1.68367  -1.65633  -1.62752  -1.61536  -1.58322
 Alpha  occ. eigenvalues --   -1.55682  -1.52600  -1.49389  -1.46943  -1.46033
 Alpha  occ. eigenvalues --   -1.44883  -1.43520  -1.40068  -1.37638  -1.37410
 Alpha  occ. eigenvalues --   -1.35563  -1.32733  -1.32324  -1.31134  -1.29187
 Alpha  occ. eigenvalues --   -1.28826  -1.27689  -1.22679  -1.21297  -1.17619
 Alpha  occ. eigenvalues --   -1.15917  -1.15593  -1.14670  -1.13430  -1.12792
 Alpha  occ. eigenvalues --   -1.11042  -1.10012  -1.09422  -1.04445  -1.03560
 Alpha  occ. eigenvalues --   -1.02491  -1.01080  -0.97941  -0.97302  -0.96105
 Alpha  occ. eigenvalues --   -0.94996  -0.93823  -0.93241  -0.92765  -0.92623
 Alpha  occ. eigenvalues --   -0.91613  -0.90782  -0.89194  -0.88708  -0.87078
 Alpha  occ. eigenvalues --   -0.86468  -0.85638  -0.83314  -0.82035  -0.80901
 Alpha  occ. eigenvalues --   -0.79780  -0.78816  -0.77917  -0.77190  -0.77025
 Alpha  occ. eigenvalues --   -0.76404  -0.75616  -0.73865  -0.73454  -0.73219
 Alpha  occ. eigenvalues --   -0.72465  -0.71811  -0.71512  -0.71067  -0.70586
 Alpha  occ. eigenvalues --   -0.70518  -0.69801  -0.69107  -0.68726  -0.68237
 Alpha  occ. eigenvalues --   -0.67778  -0.67345  -0.66834  -0.66437  -0.65228
 Alpha  occ. eigenvalues --   -0.65194  -0.64827  -0.64329  -0.64157  -0.63913
 Alpha  occ. eigenvalues --   -0.63470  -0.63224  -0.62725  -0.62180  -0.61701
 Alpha  occ. eigenvalues --   -0.61502  -0.61149  -0.60985  -0.60278  -0.60211
 Alpha  occ. eigenvalues --   -0.60137  -0.59683  -0.58404  -0.58334  -0.57924
 Alpha  occ. eigenvalues --   -0.57867  -0.57335  -0.57099  -0.56553  -0.56163
 Alpha  occ. eigenvalues --   -0.55830  -0.55570  -0.55350  -0.55058  -0.54607
 Alpha  occ. eigenvalues --   -0.54282  -0.53808  -0.53653  -0.53487  -0.52703
 Alpha  occ. eigenvalues --   -0.52460  -0.52296  -0.51902  -0.51681  -0.51550
 Alpha  occ. eigenvalues --   -0.51390  -0.51128  -0.50937  -0.50729  -0.50306
 Alpha  occ. eigenvalues --   -0.50169  -0.49723  -0.49491  -0.49065  -0.48530
 Alpha  occ. eigenvalues --   -0.48248  -0.48175  -0.48053  -0.47818  -0.47784
 Alpha  occ. eigenvalues --   -0.47153  -0.47128  -0.47052  -0.46833  -0.46384
 Alpha  occ. eigenvalues --   -0.46246  -0.45940  -0.45791  -0.45469  -0.45279
 Alpha  occ. eigenvalues --   -0.45177  -0.44798  -0.44757  -0.44723  -0.43879
 Alpha  occ. eigenvalues --   -0.43754  -0.43370  -0.43244  -0.42678  -0.42597
 Alpha  occ. eigenvalues --   -0.42292  -0.41391  -0.41021  -0.39402  -0.38866
 Alpha  occ. eigenvalues --   -0.37996  -0.37043  -0.35743  -0.35154  -0.34257
 Alpha  occ. eigenvalues --   -0.33949  -0.32828  -0.32714  -0.31601  -0.27018
 Alpha  occ. eigenvalues --   -0.21832
 Alpha virt. eigenvalues --   -0.08504  -0.02996  -0.00966  -0.00047   0.01169
 Alpha virt. eigenvalues --    0.02137   0.02412   0.02627   0.04317   0.05294
 Alpha virt. eigenvalues --    0.05707   0.06177   0.06980   0.07356   0.07943

 Mulliken charges:
               1
     1  Mg   0.452318
     2  C   -0.016564
     3  C   -0.075866
     4  C   -0.107074
     5  C   -0.074551
     6  N   -0.285498
     7  C    0.099663
     8  C    0.021808
     9  C    0.007638
    10  C    0.138394
    11  C   -0.049458
    12  C   -0.014450
    13  C    0.001487
    14  C    0.469679
    15  O   -0.517502
    16  O   -0.263026
    17  N   -0.307921
    18  C    0.115278
    19  C    0.051157
    20  C   -0.060952
    21  C    0.154057
    22  C   -0.030035
    23  C    0.337992
    24  O   -0.535304
    25  C   -0.023224
    26  N   -0.274039
    27  C    0.139724
    28  C   -0.001252
    29  C   -0.004166
    30  C    0.104650
    31  C   -0.057052
    32  C   -0.026814
    33  C   -0.063440
    34  N   -0.355113
    35  C    0.106117
    36  C    0.014038
    37  C   -0.047539
    38  C    0.084895
    39  C   -0.033743
    40  C    0.327329
    41  O   -0.537093
    42  C    0.054144
    43  C    0.469537
    44  O   -0.527085
    45  O   -0.288476
    46  C    0.070847
    47  C    0.100949
    48  C   -0.086946
    49  C    0.005998
    50  C   -0.047867
    51  C   -0.013435
    52  C   -0.027545
    53  C   -0.029417
    54  C   -0.015125
    55  C   -0.058851
    56  C   -0.042507
    57  C   -0.036521
    58  C   -0.038905
    59  C   -0.012826
    60  C   -0.066798
    61  C   -0.026215
    62  C   -0.050618
    63  C   -0.045428
    64  C   -0.012624
    65  C   -0.056726
    66  C   -0.058672
    67  H    0.027252
    68  H    0.021816
    69  H    0.026045
    70  H    0.040114
    71  H    0.039409
    72  H    0.028323
    73  H    0.023109
    74  H    0.029475
    75  H    0.031975
    76  H    0.026478
    77  H    0.035173
    78  H    0.039140
    79  H    0.045534
    80  H    0.047498
    81  H    0.022805
    82  H    0.050196
    83  H    0.038536
    84  H    0.037423
    85  H    0.027629
    86  H    0.023855
    87  H    0.029660
    88  H    0.023783
    89  H    0.029678
    90  H    0.026579
    91  H    0.023889
    92  H    0.012863
    93  H    0.020944
    94  H    0.028942
    95  H    0.020694
    96  H    0.035200
    97  H    0.037539
    98  H    0.066394
    99  H    0.031242
   100  H    0.061924
   101  H    0.041652
   102  H    0.028545
   103  H    0.058009
   104  H    0.023339
   105  H    0.039213
   106  H    0.022268
   107  H    0.036990
   108  H    0.016292
   109  H    0.006997
   110  H    0.016532
   111  H    0.023244
   112  H    0.006221
   113  H    0.021695
   114  H    0.017847
   115  H    0.017300
   116  H    0.023836
   117  H    0.014467
   118  H    0.017721
   119  H    0.019259
   120  H    0.029882
   121  H    0.016625
   122  H    0.014097
   123  H    0.021655
   124  H    0.021529
   125  H    0.008158
   126  H    0.024118
   127  H    0.019677
   128  H    0.025394
   129  H    0.012029
   130  H    0.018410
   131  H    0.034777
   132  H    0.020785
   133  H    0.018245
   134  H    0.026549
   135  H    0.024009
   136  H    0.008943
   137  H    0.021461
   138  H    0.019035
   139  H    0.008732
   140  H    0.019907
 Sum of Mulliken charges =  -0.00000

 Dipole moment (field-independent basis, Debye):
    X=              2.1420    Y=              6.9892    Z=              0.6285  Tot=              7.3370
 N-N= 4.304987671456D+03 E-N= 0.000000000000D+00  KE=-9.284000803796D+03
 Leave Link  601 at Wed May  4 18:18:30 2022, MaxMem=  6710886400 cpu:               0.7 elap:               0.0
 (Enter /sw/apps/gaussian-16.0/g16/l9999.exe)
 1\1\GINC-BP1-COMPUTE141\SP\RZINDO CIS\STO-3G\C55H74Mg1N4O6\OF15641\04-
 May-2022\0\\#p ZINDO=(nstates=5)\\step_1_chromophore_5 ZINDO\\0,1\Mg,0
 ,24.459,-7.804,45.73\C,0,26.586,-5.045,44.577\C,0,21.887,-6.074,44.19\
 C,0,22.841,-10.552,45.751\C,0,27.522,-9.37,46.768\N,0,24.343,-5.766,44
 .356\C,0,25.305,-4.83,44.045\C,0,24.688,-3.749,43.084\C,0,23.167,-3.94
 3,43.211\C,0,23.119,-5.331,43.956\C,0,22.332,-2.873,44.03\C,0,25.237,-
 3.822,41.618\C,0,25.488,-2.499,40.927\C,0,24.417,-2.034,39.891\O,0,23.

 Normal termination of Gaussian 16 at Wed May  4 18:18:30 2022.
