 Gaussian 16, Revision A.03,
 Gaussian 16:  ES64L-G16RevA.03 25-Dec-2016

 ------------------------------
 #p blyp/Def2SVP td=(nstates=5)
 ------------------------------

 --------------------------------------------------
 step_301_chromophore_27 TDDFT with blyp functional
 --------------------------------------------------
 Symbolic Z-matrix:
 Charge =  0 Multiplicity = 1

                         Standard orientation:
 ---------------------------------------------------------------------
 Center     Atomic      Atomic             Coordinates (Angstroms)
 Number     Number       Type             X           Y           Z
 ---------------------------------------------------------------------
      1         12           0       -4.868564    0.834869    0.016584
      2          6           0       -3.976269   -2.702286   -0.012771
      3          6           0       -1.533237    1.400038    0.592481
      4          6           0       -5.502845    4.069587    0.268424
      5          6           0       -8.158244   -0.082989   -0.044842
      6          7           0       -2.993296   -0.478986    0.076765
      7          6           0       -2.811001   -1.858030    0.012114
      8          6           0       -1.370412   -2.322704   -0.001095
      9          6           0       -0.675728   -0.982082    0.344949
     10          6           0       -1.814785    0.098322    0.253782
     11          6           0        0.131377   -0.942034    1.753131
     12          6           0       -1.013198   -3.085662   -1.328866
     13          6           0        0.117194   -2.649439   -2.302681
     14          6           0        1.584970   -3.158534   -2.043992
     15          8           0        1.896232   -4.183291   -1.405523
     16          8           0        2.411805   -2.363665   -2.830201
     17          7           0       -3.729134    2.536402    0.349153
     18          6           0       -2.402025    2.518101    0.648462
     19          6           0       -1.983669    3.765759    1.115893
     20          6           0       -3.096775    4.621695    0.872195
     21          6           0       -4.203179    3.767007    0.387551
     22          6           0       -0.600367    3.966660    1.639193
     23          6           0       -3.194579    6.122177    1.009544
     24          8           0       -4.243813    6.695574    0.825661
     25          6           0       -1.980654    6.949368    1.310643
     26          7           0       -6.523084    1.867544    0.172539
     27          6           0       -6.651820    3.223879    0.138333
     28          6           0       -8.111813    3.724680   -0.087498
     29          6           0       -8.924228    2.373372   -0.186093
     30          6           0       -7.759374    1.248150   -0.091624
     31          6           0       -8.664527    4.622509    1.062725
     32          6           0       -9.694391    2.178413   -1.475473
     33          6           0      -11.175135    1.844144   -1.133978
     34          7           0       -5.923296   -0.998771   -0.050566
     35          6           0       -7.315342   -1.257708   -0.010994
     36          6           0       -7.531958   -2.699747   -0.102545
     37          6           0       -6.264216   -3.254504   -0.095028
     38          6           0       -5.274553   -2.201662   -0.008549
     39          6           0       -8.923909   -3.278756   -0.203323
     40          6           0       -5.654959   -4.466025   -0.039141
     41          8           0       -6.150588   -5.588939    0.178840
     42          6           0       -4.104309   -4.210647   -0.017507
     43          6           0       -3.456274   -4.895922    1.157148
     44          8           0       -3.565440   -4.688299    2.331750
     45          8           0       -2.702963   -5.951883    0.682357
     46          6           0       -1.726101   -6.625852    1.594473
     47          6           0        3.798073   -2.634532   -2.671905
     48          6           0        4.562271   -1.321070   -2.633407
     49          6           0        5.862028   -1.204180   -2.389056
     50          6           0        6.844978   -2.380414   -2.287874
     51          6           0        6.469429    0.134117   -2.502325
     52          6           0        7.049937    0.562169   -3.891451
     53          6           0        8.567504    0.924666   -3.871247
     54          6           0        8.916478    2.386381   -3.423370
     55          6           0        8.817817    3.310642   -4.726134
     56          6           0       10.190030    2.531485   -2.601013
     57          6           0        9.880626    2.611533   -1.110587
     58          6           0       10.877798    1.726467   -0.330769
     59          6           0       10.102948    0.691890    0.625876
     60          6           0       10.597831   -0.674706    0.223024
     61          6           0       10.425452    1.012403    2.097906
     62          6           0        9.120255    0.636274    2.860201
     63          6           0        9.537665    0.630823    4.368802
     64          6           0        9.938735   -0.774377    4.841784
     65          6           0        8.635392   -1.536298    5.163957
     66          6           0       11.007043   -0.835289    5.987705
     67          1           0       -0.474978    1.605659    0.765814
     68          1           0       -5.835041    5.097408    0.427799
     69          1           0       -9.207089   -0.363871   -0.155435
     70          1           0       -1.293759   -2.962223    0.878330
     71          1           0        0.082369   -0.730689   -0.396823
     72          1           0        0.046557   -1.888962    2.285178
     73          1           0       -0.355019   -0.194000    2.379319
     74          1           0        1.181467   -0.654349    1.715258
     75          1           0       -1.925684   -3.146256   -1.921844
     76          1           0       -0.857391   -4.094458   -0.949201
     77          1           0        0.034945   -1.562875   -2.335926
     78          1           0       -0.273509   -3.073628   -3.227812
     79          1           0       -0.439449    3.125866    2.313148
     80          1           0       -0.343448    4.948643    2.036224
     81          1           0        0.080958    3.994205    0.788095
     82          1           0       -2.414519    7.947912    1.357820
     83          1           0       -1.364890    6.787588    0.425029
     84          1           0       -1.522037    6.651298    2.253598
     85          1           0       -8.068400    4.270780   -1.029963
     86          1           0       -9.551358    2.292704    0.701088
     87          1           0       -8.394780    4.264631    2.057384
     88          1           0       -9.737980    4.718297    1.223600
     89          1           0       -8.265391    5.607115    0.820969
     90          1           0       -9.330804    1.297395   -2.003243
     91          1           0       -9.470129    3.030602   -2.116871
     92          1           0      -11.278627    1.182078   -0.274365
     93          1           0      -11.406326    1.148778   -1.940499
     94          1           0      -11.891495    2.661998   -1.203034
     95          1           0       -9.449622   -2.927733   -1.091149
     96          1           0       -9.511786   -2.815306    0.589259
     97          1           0       -8.865256   -4.361938   -0.098232
     98          1           0       -3.677915   -4.652812   -0.917420
     99          1           0       -1.507862   -7.630794    1.233705
    100          1           0       -2.163754   -6.767753    2.582465
    101          1           0       -0.854672   -5.977690    1.689155
    102          1           0        4.104796   -3.189272   -3.557677
    103          1           0        4.160458   -3.177374   -1.798837
    104          1           0        4.053246   -0.374981   -2.819148
    105          1           0        7.585306   -2.270269   -3.080236
    106          1           0        6.371346   -3.349082   -2.448003
    107          1           0        7.300636   -2.347191   -1.297596
    108          1           0        7.300929    0.229627   -1.804260
    109          1           0        5.841877    0.966991   -2.185766
    110          1           0        6.441565    1.430490   -4.146120
    111          1           0        6.957200   -0.121583   -4.734651
    112          1           0        8.994477    0.828869   -4.869419
    113          1           0        8.979031    0.189205   -3.179724
    114          1           0        8.009237    2.724627   -2.923656
    115          1           0        9.081994    4.333394   -4.456328
    116          1           0        7.772022    3.377139   -5.026892
    117          1           0        9.375709    2.806028   -5.515491
    118          1           0       10.733901    3.445777   -2.836702
    119          1           0       10.664810    1.614987   -2.951463
    120          1           0        8.849316    2.465728   -0.790659
    121          1           0       10.124163    3.579245   -0.670985
    122          1           0       11.638745    2.289971    0.208761
    123          1           0       11.550209    1.210678   -1.016558
    124          1           0        9.038567    0.788444    0.410089
    125          1           0       10.421998   -1.297654    1.099087
    126          1           0       11.621522   -0.588137   -0.141826
    127          1           0       10.092623   -0.956401   -0.702074
    128          1           0       10.732144    2.057783    2.124019
    129          1           0       11.272003    0.499239    2.554664
    130          1           0        8.617251   -0.231186    2.433136
    131          1           0        8.522165    1.547071    2.807380
    132          1           0        8.718469    1.030884    4.965494
    133          1           0       10.369522    1.328609    4.459789
    134          1           0       10.420085   -1.346560    4.049147
    135          1           0        8.798215   -2.523155    4.730217
    136          1           0        7.742298   -1.129796    4.688498
    137          1           0        8.610949   -1.600896    6.251964
    138          1           0       11.785262   -1.545176    5.707896
    139          1           0       10.705267   -1.226707    6.958741
    140          1           0       11.474204    0.141731    6.115501
 ---------------------------------------------------------------------

 SCF Done:  E(RB-LYP) =  -3007.33735354     A.U. after   23 cycles

 Excitation energies and oscillator strengths:

 Excited State   1:      Singlet-A      1.7625 eV  703.45 nm  f=0.0004  <S**2>=0.000
     244 -> 247        0.68259
     245 -> 247        0.17997
 This state for optimization and/or second-order correction.
 Total Energy, E(TD-HF/TD-DFT) =  -3007.27258231
 Copying the excited state density for this state as the 1-particle RhoCI density.

 Excited State   2:      Singlet-A      1.8121 eV  684.22 nm  f=0.3135  <S**2>=0.000
     245 -> 248        0.19487
     246 -> 247        0.68603
     246 <- 247       -0.15178

 Excited State   3:      Singlet-A      1.9241 eV  644.38 nm  f=0.0077  <S**2>=0.000
     243 -> 247        0.69978

 Excited State   4:      Singlet-A      2.0193 eV  614.01 nm  f=0.0555  <S**2>=0.000
     244 -> 247       -0.16950
     245 -> 247        0.61696
     246 -> 248       -0.26917

 Excited State   5:      Singlet-A      2.4773 eV  500.47 nm  f=0.0000  <S**2>=0.000
     241 -> 247        0.70710

 The electronic state is 1-A.
 Alpha  occ. eigenvalues --  -46.26355 -18.83762 -18.80450 -18.78609 -18.76035
 Alpha  occ. eigenvalues --  -18.75365 -18.74568 -14.03575 -14.03490 -14.00904
 Alpha  occ. eigenvalues --  -14.00700 -10.05866 -10.03085  -9.99287  -9.98333
 Alpha  occ. eigenvalues --   -9.98081  -9.97221  -9.96996  -9.96946  -9.96831
 Alpha  occ. eigenvalues --   -9.96221  -9.95560  -9.95089  -9.95052  -9.94780
 Alpha  occ. eigenvalues --   -9.94538  -9.94412  -9.94369  -9.94214  -9.93775
 Alpha  occ. eigenvalues --   -9.93671  -9.93492  -9.93460  -9.93440  -9.93387
 Alpha  occ. eigenvalues --   -9.93346  -9.93343  -9.92977  -9.92728  -9.92707
 Alpha  occ. eigenvalues --   -9.92558  -9.92506  -9.92408  -9.92377  -9.92349
 Alpha  occ. eigenvalues --   -9.92220  -9.92203  -9.91973  -9.91929  -9.91925
 Alpha  occ. eigenvalues --   -9.91912  -9.91817  -9.91707  -9.91627  -9.91543
 Alpha  occ. eigenvalues --   -9.91484  -9.91372  -9.91269  -9.91184  -9.91047
 Alpha  occ. eigenvalues --   -9.90984  -9.90953  -9.90760  -9.90715  -9.90577
 Alpha  occ. eigenvalues --   -9.90382  -2.91209  -1.71633  -1.71097  -1.70919
 Alpha  occ. eigenvalues --   -0.98759  -0.96683  -0.92341  -0.90845  -0.89340
 Alpha  occ. eigenvalues --   -0.88796  -0.87239  -0.86312  -0.84933  -0.84134
 Alpha  occ. eigenvalues --   -0.75511  -0.74338  -0.73450  -0.72946  -0.72666
 Alpha  occ. eigenvalues --   -0.72357  -0.72087  -0.70954  -0.70480  -0.70413
 Alpha  occ. eigenvalues --   -0.69621  -0.69314  -0.68249  -0.67520  -0.67238
 Alpha  occ. eigenvalues --   -0.66578  -0.66129  -0.65463  -0.65171  -0.64495
 Alpha  occ. eigenvalues --   -0.64269  -0.62820  -0.62498  -0.61365  -0.61216
 Alpha  occ. eigenvalues --   -0.60472  -0.60250  -0.59978  -0.59560  -0.58915
 Alpha  occ. eigenvalues --   -0.58719  -0.57846  -0.56986  -0.56078  -0.54584
 Alpha  occ. eigenvalues --   -0.54244  -0.53921  -0.52931  -0.52616  -0.51778
 Alpha  occ. eigenvalues --   -0.51493  -0.51363  -0.51218  -0.50144  -0.50021
 Alpha  occ. eigenvalues --   -0.49910  -0.49037  -0.48588  -0.47769  -0.46897
 Alpha  occ. eigenvalues --   -0.46600  -0.46039  -0.45368  -0.45031  -0.44456
 Alpha  occ. eigenvalues --   -0.44078  -0.43635  -0.43103  -0.42839  -0.42325
 Alpha  occ. eigenvalues --   -0.41966  -0.41826  -0.41703  -0.41463  -0.41210
 Alpha  occ. eigenvalues --   -0.41072  -0.40827  -0.40758  -0.40492  -0.40262
 Alpha  occ. eigenvalues --   -0.40130  -0.39913  -0.39886  -0.39726  -0.39278
 Alpha  occ. eigenvalues --   -0.39124  -0.38954  -0.38788  -0.38315  -0.38113
 Alpha  occ. eigenvalues --   -0.38025  -0.37907  -0.37833  -0.37728  -0.37555
 Alpha  occ. eigenvalues --   -0.37498  -0.37092  -0.36648  -0.36615  -0.36590
 Alpha  occ. eigenvalues --   -0.36237  -0.36081  -0.35890  -0.35759  -0.35458
 Alpha  occ. eigenvalues --   -0.35371  -0.35269  -0.34982  -0.34760  -0.34664
 Alpha  occ. eigenvalues --   -0.34463  -0.34385  -0.34134  -0.34006  -0.33978
 Alpha  occ. eigenvalues --   -0.33755  -0.33736  -0.33537  -0.33434  -0.33328
 Alpha  occ. eigenvalues --   -0.33208  -0.33115  -0.33025  -0.32891  -0.32517
 Alpha  occ. eigenvalues --   -0.32385  -0.32309  -0.32016  -0.31913  -0.31802
 Alpha  occ. eigenvalues --   -0.31464  -0.31300  -0.31277  -0.31115  -0.31025
 Alpha  occ. eigenvalues --   -0.30723  -0.30663  -0.30494  -0.30397  -0.30190
 Alpha  occ. eigenvalues --   -0.29801  -0.29568  -0.29391  -0.29045  -0.28993
 Alpha  occ. eigenvalues --   -0.28582  -0.28426  -0.28318  -0.28040  -0.27843
 Alpha  occ. eigenvalues --   -0.27512  -0.26753  -0.26638  -0.26627  -0.26595
 Alpha  occ. eigenvalues --   -0.26341  -0.26088  -0.25926  -0.25842  -0.25397
 Alpha  occ. eigenvalues --   -0.25377  -0.24237  -0.24143  -0.23876  -0.23501
 Alpha  occ. eigenvalues --   -0.23294  -0.22612  -0.22303  -0.21267  -0.20772
 Alpha  occ. eigenvalues --   -0.20683  -0.20325  -0.18551  -0.17942  -0.17479
 Alpha  occ. eigenvalues --   -0.15826
 Alpha virt. eigenvalues --   -0.11579  -0.07121  -0.06176  -0.04721  -0.04345
 Alpha virt. eigenvalues --   -0.02054  -0.01847  -0.01721  -0.01440   0.00490
 Alpha virt. eigenvalues --    0.01175   0.01188   0.01489   0.02335   0.02553

 Mulliken charges:
               1
     1  Mg   0.698984
     2  C   -0.021092
     3  C   -0.118562
     4  C   -0.075710
     5  C   -0.064034
     6  N   -0.174623
     7  C   -0.157078
     8  C    0.088656
     9  C   -0.038986
    10  C    0.052312
    11  C    0.102337
    12  C    0.110959
    13  C    0.095490
    14  C    0.131237
    15  O   -0.192679
    16  O   -0.256686
    17  N   -0.256111
    18  C    0.156203
    19  C   -0.153841
    20  C    0.030510
    21  C    0.155975
    22  C    0.195844
    23  C   -0.122160
    24  O   -0.152476
    25  C    0.135263
    26  N   -0.301739
    27  C   -0.004803
    28  C    0.052856
    29  C   -0.020219
    30  C    0.113859
    31  C    0.098713
    32  C    0.112716
    33  C    0.063650
    34  N   -0.289576
    35  C    0.067192
    36  C   -0.150135
    37  C    0.136625
    38  C    0.123188
    39  C    0.179213
    40  C   -0.100322
    41  O   -0.164830
    42  C    0.092406
    43  C    0.082891
    44  O   -0.147605
    45  O   -0.297534
    46  C    0.214577
    47  C    0.318254
    48  C   -0.113575
    49  C   -0.124733
    50  C    0.126989
    51  C    0.127728
    52  C    0.067849
    53  C    0.068453
    54  C   -0.114617
    55  C    0.083160
    56  C    0.173021
    57  C    0.081375
    58  C    0.064746
    59  C   -0.100650
    60  C    0.134460
    61  C    0.084030
    62  C    0.056104
    63  C    0.109461
    64  C   -0.092935
    65  C    0.108775
    66  C    0.098295
    67  H   -0.060400
    68  H   -0.045185
    69  H   -0.064984
    70  H   -0.011692
    71  H   -0.027080
    72  H   -0.000786
    73  H   -0.008730
    74  H   -0.005435
    75  H   -0.022992
    76  H   -0.008142
    77  H    0.005682
    78  H    0.015092
    79  H    0.018778
    80  H   -0.031418
    81  H   -0.000053
    82  H   -0.006131
    83  H    0.008522
    84  H    0.025423
    85  H   -0.015139
    86  H   -0.013828
    87  H   -0.005809
    88  H   -0.008842
    89  H    0.010833
    90  H   -0.020014
    91  H   -0.028797
    92  H   -0.001710
    93  H   -0.027288
    94  H    0.006810
    95  H   -0.004105
    96  H   -0.008007
    97  H    0.017179
    98  H   -0.006235
    99  H    0.022912
   100  H    0.016549
   101  H    0.017719
   102  H    0.000023
   103  H    0.019316
   104  H   -0.044865
   105  H    0.007086
   106  H   -0.015730
   107  H    0.008798
   108  H   -0.039965
   109  H   -0.034303
   110  H   -0.032668
   111  H   -0.025512
   112  H   -0.034150
   113  H   -0.025612
   114  H   -0.045010
   115  H   -0.012523
   116  H   -0.023169
   117  H   -0.010793
   118  H   -0.032966
   119  H   -0.019931
   120  H   -0.022521
   121  H   -0.038201
   122  H   -0.045160
   123  H   -0.048893
   124  H   -0.021607
   125  H   -0.014273
   126  H   -0.019199
   127  H   -0.025803
   128  H   -0.033719
   129  H   -0.031834
   130  H   -0.008498
   131  H   -0.031959
   132  H   -0.039304
   133  H   -0.042319
   134  H   -0.033287
   135  H   -0.025504
   136  H   -0.008172
   137  H   -0.010448
   138  H   -0.022736
   139  H   -0.018035
   140  H   -0.016301
 Sum of Mulliken charges =  -0.00000

 Dipole moment (field-independent basis, Debye):
    X=              4.2442    Y=              4.1075    Z=             -2.5491  Tot=              6.4329
 Quadrupole moment (field-independent basis, Debye-Ang):
   XX=           -380.2909   YY=           -446.4453   ZZ=           -405.0883
   XY=            -23.0833   XZ=             10.9423   YZ=              7.0984

 Normal termination of Gaussian 16 at Fri Apr 29 13:54:14 2022.
