 Gaussian 16, Revision A.03,
 Gaussian 16:  ES64L-G16RevA.03 25-Dec-2016

 -----------------------------------
 #p cam-b3lyp/Def2SVP td=(nstates=5)
 -----------------------------------

 -------------------------------------------------------
 step_301_chromophore_27 TDDFT with cam-b3lyp functional
 -------------------------------------------------------
 Symbolic Z-matrix:
 Charge =  0 Multiplicity = 1

                         Standard orientation:
 ---------------------------------------------------------------------
 Center     Atomic      Atomic             Coordinates (Angstroms)
 Number     Number       Type             X           Y           Z
 ---------------------------------------------------------------------
      1         12           0       -4.868564    0.834869    0.016584
      2          6           0       -3.976269   -2.702286   -0.012771
      3          6           0       -1.533237    1.400038    0.592481
      4          6           0       -5.502845    4.069587    0.268424
      5          6           0       -8.158244   -0.082989   -0.044842
      6          7           0       -2.993296   -0.478986    0.076765
      7          6           0       -2.811001   -1.858030    0.012114
      8          6           0       -1.370412   -2.322704   -0.001095
      9          6           0       -0.675728   -0.982082    0.344949
     10          6           0       -1.814785    0.098322    0.253782
     11          6           0        0.131377   -0.942034    1.753131
     12          6           0       -1.013198   -3.085662   -1.328866
     13          6           0        0.117194   -2.649439   -2.302681
     14          6           0        1.584970   -3.158534   -2.043992
     15          8           0        1.896232   -4.183291   -1.405523
     16          8           0        2.411805   -2.363665   -2.830201
     17          7           0       -3.729134    2.536402    0.349153
     18          6           0       -2.402025    2.518101    0.648462
     19          6           0       -1.983669    3.765759    1.115893
     20          6           0       -3.096775    4.621695    0.872195
     21          6           0       -4.203179    3.767007    0.387551
     22          6           0       -0.600367    3.966660    1.639193
     23          6           0       -3.194579    6.122177    1.009544
     24          8           0       -4.243813    6.695574    0.825661
     25          6           0       -1.980654    6.949368    1.310643
     26          7           0       -6.523084    1.867544    0.172539
     27          6           0       -6.651820    3.223879    0.138333
     28          6           0       -8.111813    3.724680   -0.087498
     29          6           0       -8.924228    2.373372   -0.186093
     30          6           0       -7.759374    1.248150   -0.091624
     31          6           0       -8.664527    4.622509    1.062725
     32          6           0       -9.694391    2.178413   -1.475473
     33          6           0      -11.175135    1.844144   -1.133978
     34          7           0       -5.923296   -0.998771   -0.050566
     35          6           0       -7.315342   -1.257708   -0.010994
     36          6           0       -7.531958   -2.699747   -0.102545
     37          6           0       -6.264216   -3.254504   -0.095028
     38          6           0       -5.274553   -2.201662   -0.008549
     39          6           0       -8.923909   -3.278756   -0.203323
     40          6           0       -5.654959   -4.466025   -0.039141
     41          8           0       -6.150588   -5.588939    0.178840
     42          6           0       -4.104309   -4.210647   -0.017507
     43          6           0       -3.456274   -4.895922    1.157148
     44          8           0       -3.565440   -4.688299    2.331750
     45          8           0       -2.702963   -5.951883    0.682357
     46          6           0       -1.726101   -6.625852    1.594473
     47          6           0        3.798073   -2.634532   -2.671905
     48          6           0        4.562271   -1.321070   -2.633407
     49          6           0        5.862028   -1.204180   -2.389056
     50          6           0        6.844978   -2.380414   -2.287874
     51          6           0        6.469429    0.134117   -2.502325
     52          6           0        7.049937    0.562169   -3.891451
     53          6           0        8.567504    0.924666   -3.871247
     54          6           0        8.916478    2.386381   -3.423370
     55          6           0        8.817817    3.310642   -4.726134
     56          6           0       10.190030    2.531485   -2.601013
     57          6           0        9.880626    2.611533   -1.110587
     58          6           0       10.877798    1.726467   -0.330769
     59          6           0       10.102948    0.691890    0.625876
     60          6           0       10.597831   -0.674706    0.223024
     61          6           0       10.425452    1.012403    2.097906
     62          6           0        9.120255    0.636274    2.860201
     63          6           0        9.537665    0.630823    4.368802
     64          6           0        9.938735   -0.774377    4.841784
     65          6           0        8.635392   -1.536298    5.163957
     66          6           0       11.007043   -0.835289    5.987705
     67          1           0       -0.474978    1.605659    0.765814
     68          1           0       -5.835041    5.097408    0.427799
     69          1           0       -9.207089   -0.363871   -0.155435
     70          1           0       -1.293759   -2.962223    0.878330
     71          1           0        0.082369   -0.730689   -0.396823
     72          1           0        0.046557   -1.888962    2.285178
     73          1           0       -0.355019   -0.194000    2.379319
     74          1           0        1.181467   -0.654349    1.715258
     75          1           0       -1.925684   -3.146256   -1.921844
     76          1           0       -0.857391   -4.094458   -0.949201
     77          1           0        0.034945   -1.562875   -2.335926
     78          1           0       -0.273509   -3.073628   -3.227812
     79          1           0       -0.439449    3.125866    2.313148
     80          1           0       -0.343448    4.948643    2.036224
     81          1           0        0.080958    3.994205    0.788095
     82          1           0       -2.414519    7.947912    1.357820
     83          1           0       -1.364890    6.787588    0.425029
     84          1           0       -1.522037    6.651298    2.253598
     85          1           0       -8.068400    4.270780   -1.029963
     86          1           0       -9.551358    2.292704    0.701088
     87          1           0       -8.394780    4.264631    2.057384
     88          1           0       -9.737980    4.718297    1.223600
     89          1           0       -8.265391    5.607115    0.820969
     90          1           0       -9.330804    1.297395   -2.003243
     91          1           0       -9.470129    3.030602   -2.116871
     92          1           0      -11.278627    1.182078   -0.274365
     93          1           0      -11.406326    1.148778   -1.940499
     94          1           0      -11.891495    2.661998   -1.203034
     95          1           0       -9.449622   -2.927733   -1.091149
     96          1           0       -9.511786   -2.815306    0.589259
     97          1           0       -8.865256   -4.361938   -0.098232
     98          1           0       -3.677915   -4.652812   -0.917420
     99          1           0       -1.507862   -7.630794    1.233705
    100          1           0       -2.163754   -6.767753    2.582465
    101          1           0       -0.854672   -5.977690    1.689155
    102          1           0        4.104796   -3.189272   -3.557677
    103          1           0        4.160458   -3.177374   -1.798837
    104          1           0        4.053246   -0.374981   -2.819148
    105          1           0        7.585306   -2.270269   -3.080236
    106          1           0        6.371346   -3.349082   -2.448003
    107          1           0        7.300636   -2.347191   -1.297596
    108          1           0        7.300929    0.229627   -1.804260
    109          1           0        5.841877    0.966991   -2.185766
    110          1           0        6.441565    1.430490   -4.146120
    111          1           0        6.957200   -0.121583   -4.734651
    112          1           0        8.994477    0.828869   -4.869419
    113          1           0        8.979031    0.189205   -3.179724
    114          1           0        8.009237    2.724627   -2.923656
    115          1           0        9.081994    4.333394   -4.456328
    116          1           0        7.772022    3.377139   -5.026892
    117          1           0        9.375709    2.806028   -5.515491
    118          1           0       10.733901    3.445777   -2.836702
    119          1           0       10.664810    1.614987   -2.951463
    120          1           0        8.849316    2.465728   -0.790659
    121          1           0       10.124163    3.579245   -0.670985
    122          1           0       11.638745    2.289971    0.208761
    123          1           0       11.550209    1.210678   -1.016558
    124          1           0        9.038567    0.788444    0.410089
    125          1           0       10.421998   -1.297654    1.099087
    126          1           0       11.621522   -0.588137   -0.141826
    127          1           0       10.092623   -0.956401   -0.702074
    128          1           0       10.732144    2.057783    2.124019
    129          1           0       11.272003    0.499239    2.554664
    130          1           0        8.617251   -0.231186    2.433136
    131          1           0        8.522165    1.547071    2.807380
    132          1           0        8.718469    1.030884    4.965494
    133          1           0       10.369522    1.328609    4.459789
    134          1           0       10.420085   -1.346560    4.049147
    135          1           0        8.798215   -2.523155    4.730217
    136          1           0        7.742298   -1.129796    4.688498
    137          1           0        8.610949   -1.600896    6.251964
    138          1           0       11.785262   -1.545176    5.707896
    139          1           0       10.705267   -1.226707    6.958741
    140          1           0       11.474204    0.141731    6.115501
 ---------------------------------------------------------------------

 SCF Done:  E(RCAM-B3LYP) =  -3007.13109570     A.U. after   18 cycles

 Excitation energies and oscillator strengths:

 Excited State   1:      Singlet-A      1.7134 eV  723.64 nm  f=0.3946  <S**2>=0.000
     245 -> 248        0.17872
     246 -> 247        0.68562
     245 <- 248        0.10676
 This state for optimization and/or second-order correction.
 Total Energy, E(TD-HF/TD-DFT) =  -3007.06813115
 Copying the excited state density for this state as the 1-particle RhoCI density.

 Excited State   2:      Singlet-A      2.2439 eV  552.53 nm  f=0.0796  <S**2>=0.000
     245 -> 247        0.62485
     246 -> 248       -0.31837

 Excited State   3:      Singlet-A      3.3054 eV  375.10 nm  f=0.0036  <S**2>=0.000
     241 -> 247       -0.10714
     243 -> 247        0.37129
     243 -> 249        0.27043
     243 -> 250        0.15349
     244 -> 247        0.44757
     244 -> 249        0.15490

 Excited State   4:      Singlet-A      3.4214 eV  362.38 nm  f=0.1700  <S**2>=0.000
     241 -> 247        0.44706
     243 -> 247        0.28413
     244 -> 247       -0.25790
     245 -> 247        0.14139
     246 -> 248        0.33213

 Excited State   5:      Singlet-A      3.4541 eV  358.95 nm  f=0.2919  <S**2>=0.000
     243 -> 247       -0.34914
     243 -> 249       -0.14005
     244 -> 247        0.32453
     245 -> 247        0.20615
     246 -> 248        0.44227

 The electronic state is 1-A.
 Alpha  occ. eigenvalues --  -46.87867 -19.26617 -19.23230 -19.21609 -19.19044
 Alpha  occ. eigenvalues --  -19.18860 -19.17382 -14.42517 -14.42393 -14.39255
 Alpha  occ. eigenvalues --  -14.39250 -10.41333 -10.38387 -10.34688 -10.33144
 Alpha  occ. eigenvalues --  -10.32266 -10.31847 -10.31351 -10.31180 -10.31106
 Alpha  occ. eigenvalues --  -10.30860 -10.29760 -10.29683 -10.29490 -10.28835
 Alpha  occ. eigenvalues --  -10.28632 -10.28566 -10.28438 -10.28422 -10.28229
 Alpha  occ. eigenvalues --  -10.27997 -10.27831 -10.27697 -10.27658 -10.27346
 Alpha  occ. eigenvalues --  -10.27311 -10.27291 -10.27258 -10.26800 -10.26764
 Alpha  occ. eigenvalues --  -10.26655 -10.26573 -10.26201 -10.26140 -10.26052
 Alpha  occ. eigenvalues --  -10.25933 -10.25929 -10.25860 -10.25710 -10.25669
 Alpha  occ. eigenvalues --  -10.25663 -10.25647 -10.25562 -10.25553 -10.25329
 Alpha  occ. eigenvalues --  -10.25251 -10.25021 -10.24946 -10.24834 -10.24750
 Alpha  occ. eigenvalues --  -10.24684 -10.24589 -10.24373 -10.24309 -10.24308
 Alpha  occ. eigenvalues --  -10.24079  -3.16638  -1.91534  -1.91117  -1.90934
 Alpha  occ. eigenvalues --   -1.17143  -1.15165  -1.11066  -1.08744  -1.07378
 Alpha  occ. eigenvalues --   -1.06574  -1.05193  -1.04059  -1.02507  -1.01492
 Alpha  occ. eigenvalues --   -0.92516  -0.91260  -0.90309  -0.89952  -0.89437
 Alpha  occ. eigenvalues --   -0.89096  -0.88758  -0.87562  -0.87192  -0.87016
 Alpha  occ. eigenvalues --   -0.86026  -0.85604  -0.84558  -0.83770  -0.83324
 Alpha  occ. eigenvalues --   -0.82655  -0.82541  -0.81401  -0.81012  -0.80348
 Alpha  occ. eigenvalues --   -0.80035  -0.78783  -0.78114  -0.76784  -0.76610
 Alpha  occ. eigenvalues --   -0.75826  -0.75632  -0.75296  -0.74872  -0.74117
 Alpha  occ. eigenvalues --   -0.73833  -0.72809  -0.71953  -0.70944  -0.69187
 Alpha  occ. eigenvalues --   -0.68845  -0.68492  -0.67416  -0.67136  -0.65957
 Alpha  occ. eigenvalues --   -0.65676  -0.65516  -0.65290  -0.64245  -0.63937
 Alpha  occ. eigenvalues --   -0.63802  -0.62980  -0.62494  -0.61385  -0.60751
 Alpha  occ. eigenvalues --   -0.60151  -0.59518  -0.58841  -0.58372  -0.57955
 Alpha  occ. eigenvalues --   -0.57488  -0.57000  -0.56282  -0.56085  -0.55611
 Alpha  occ. eigenvalues --   -0.55076  -0.54772  -0.54562  -0.54558  -0.54121
 Alpha  occ. eigenvalues --   -0.54056  -0.53790  -0.53492  -0.53295  -0.52910
 Alpha  occ. eigenvalues --   -0.52787  -0.52644  -0.52560  -0.52422  -0.52006
 Alpha  occ. eigenvalues --   -0.51733  -0.51609  -0.51134  -0.50965  -0.50614
 Alpha  occ. eigenvalues --   -0.50432  -0.50344  -0.50214  -0.49953  -0.49877
 Alpha  occ. eigenvalues --   -0.49740  -0.49518  -0.49333  -0.48821  -0.48716
 Alpha  occ. eigenvalues --   -0.48670  -0.48391  -0.48279  -0.47927  -0.47857
 Alpha  occ. eigenvalues --   -0.47397  -0.47307  -0.47219  -0.46725  -0.46517
 Alpha  occ. eigenvalues --   -0.46488  -0.46233  -0.46008  -0.45782  -0.45646
 Alpha  occ. eigenvalues --   -0.45596  -0.45418  -0.45354  -0.45105  -0.45024
 Alpha  occ. eigenvalues --   -0.44904  -0.44768  -0.44690  -0.44666  -0.44361
 Alpha  occ. eigenvalues --   -0.44149  -0.43958  -0.43759  -0.43484  -0.43352
 Alpha  occ. eigenvalues --   -0.43215  -0.42844  -0.42639  -0.42594  -0.42549
 Alpha  occ. eigenvalues --   -0.42208  -0.41987  -0.41781  -0.41751  -0.41356
 Alpha  occ. eigenvalues --   -0.41114  -0.40831  -0.40546  -0.40489  -0.40122
 Alpha  occ. eigenvalues --   -0.40118  -0.39575  -0.39416  -0.39084  -0.38955
 Alpha  occ. eigenvalues --   -0.38387  -0.37610  -0.37496  -0.37476  -0.37327
 Alpha  occ. eigenvalues --   -0.37126  -0.37051  -0.37016  -0.36784  -0.36257
 Alpha  occ. eigenvalues --   -0.35988  -0.35596  -0.35372  -0.34834  -0.34386
 Alpha  occ. eigenvalues --   -0.33952  -0.33050  -0.32899  -0.31472  -0.30970
 Alpha  occ. eigenvalues --   -0.30319  -0.30298  -0.30029  -0.29291  -0.24367
 Alpha  occ. eigenvalues --   -0.21078
 Alpha virt. eigenvalues --   -0.08662  -0.02044   0.00275   0.02551   0.03192
 Alpha virt. eigenvalues --    0.03245   0.04958   0.05526   0.06074   0.06775
 Alpha virt. eigenvalues --    0.07184   0.07986   0.08607   0.08800   0.08850

 Mulliken charges:
               1
     1  Mg   0.835221
     2  C   -0.048169
     3  C   -0.136261
     4  C   -0.094586
     5  C   -0.067548
     6  N   -0.243926
     7  C   -0.112193
     8  C    0.040218
     9  C   -0.091765
    10  C    0.075844
    11  C    0.046599
    12  C    0.062087
    13  C    0.026245
    14  C    0.210131
    15  O   -0.234616
    16  O   -0.321474
    17  N   -0.349034
    18  C    0.168187
    19  C   -0.157442
    20  C   -0.035365
    21  C    0.181418
    22  C    0.131933
    23  C   -0.039369
    24  O   -0.193557
    25  C    0.054005
    26  N   -0.379193
    27  C    0.025252
    28  C   -0.003287
    29  C   -0.073382
    30  C    0.127172
    31  C    0.040830
    32  C    0.053104
    33  C   -0.000149
    34  N   -0.373188
    35  C    0.065742
    36  C   -0.140112
    37  C    0.046957
    38  C    0.154974
    39  C    0.127014
    40  C   -0.004109
    41  O   -0.206647
    42  C    0.016213
    43  C    0.173454
    44  O   -0.184872
    45  O   -0.363395
    46  C    0.178751
    47  C    0.283161
    48  C   -0.131577
    49  C   -0.151268
    50  C    0.070186
    51  C    0.070262
    52  C    0.015082
    53  C    0.018652
    54  C   -0.170273
    55  C    0.033473
    56  C    0.114536
    57  C    0.023688
    58  C    0.014788
    59  C   -0.157846
    60  C    0.084426
    61  C    0.038169
    62  C   -0.003183
    63  C    0.051020
    64  C   -0.152397
    65  C    0.051392
    66  C    0.041228
    67  H   -0.022066
    68  H   -0.004815
    69  H   -0.032011
    70  H    0.021772
    71  H    0.005218
    72  H    0.024645
    73  H    0.015839
    74  H    0.019243
    75  H    0.009124
    76  H    0.023287
    77  H    0.035941
    78  H    0.048133
    79  H    0.045211
    80  H   -0.000217
    81  H    0.029454
    82  H    0.030635
    83  H    0.035929
    84  H    0.050407
    85  H    0.019437
    86  H    0.020132
    87  H    0.019850
    88  H    0.017512
    89  H    0.033258
    90  H    0.012139
    91  H    0.000806
    92  H    0.019704
    93  H   -0.002122
    94  H    0.030376
    95  H    0.020777
    96  H    0.016092
    97  H    0.045288
    98  H    0.037811
    99  H    0.045401
   100  H    0.041833
   101  H    0.036410
   102  H    0.026916
   103  H    0.048399
   104  H   -0.008974
   105  H    0.028871
   106  H    0.008978
   107  H    0.031766
   108  H   -0.015541
   109  H   -0.002926
   110  H   -0.005363
   111  H    0.004384
   112  H   -0.005120
   113  H   -0.002997
   114  H   -0.014775
   115  H    0.011562
   116  H    0.000115
   117  H    0.010865
   118  H   -0.001666
   119  H    0.007248
   120  H    0.003467
   121  H   -0.007462
   122  H   -0.015463
   123  H   -0.019604
   124  H    0.006413
   125  H    0.006839
   126  H    0.004974
   127  H   -0.005201
   128  H   -0.004145
   129  H   -0.004213
   130  H    0.016821
   131  H   -0.001594
   132  H   -0.008858
   133  H   -0.013243
   134  H   -0.003702
   135  H   -0.000953
   136  H    0.014927
   137  H    0.012569
   138  H    0.001630
   139  H    0.006013
   140  H    0.007377
 Sum of Mulliken charges =  -0.00000

 Dipole moment (field-independent basis, Debye):
    X=              4.8083    Y=              5.1853    Z=             -2.4220  Tot=              7.4748
 Quadrupole moment (field-independent basis, Debye-Ang):
   XX=           -381.7667   YY=           -443.3494   ZZ=           -405.0577
   XY=            -26.4324   XZ=             12.0761   YZ=              8.3138

 Normal termination of Gaussian 16 at Fri Apr 29 12:50:30 2022.
