 Gaussian 16, Revision A.03,
 Gaussian 16:  ES64L-G16RevA.03 25-Dec-2016

 ---------------------------------
 #p PBE1PBE/Def2SVP td=(nstates=5)
 ---------------------------------

 -----------------------------------------------------
 step_301_chromophore_27 TDDFT with PBE1PBE functional
 -----------------------------------------------------
 Symbolic Z-matrix:
 Charge =  0 Multiplicity = 1

                         Standard orientation:
 ---------------------------------------------------------------------
 Center     Atomic      Atomic             Coordinates (Angstroms)
 Number     Number       Type             X           Y           Z
 ---------------------------------------------------------------------
      1         12           0       -4.868564    0.834869    0.016584
      2          6           0       -3.976269   -2.702286   -0.012771
      3          6           0       -1.533237    1.400038    0.592481
      4          6           0       -5.502845    4.069587    0.268424
      5          6           0       -8.158244   -0.082989   -0.044842
      6          7           0       -2.993296   -0.478986    0.076765
      7          6           0       -2.811001   -1.858030    0.012114
      8          6           0       -1.370412   -2.322704   -0.001095
      9          6           0       -0.675728   -0.982082    0.344949
     10          6           0       -1.814785    0.098322    0.253782
     11          6           0        0.131377   -0.942034    1.753131
     12          6           0       -1.013198   -3.085662   -1.328866
     13          6           0        0.117194   -2.649439   -2.302681
     14          6           0        1.584970   -3.158534   -2.043992
     15          8           0        1.896232   -4.183291   -1.405523
     16          8           0        2.411805   -2.363665   -2.830201
     17          7           0       -3.729134    2.536402    0.349153
     18          6           0       -2.402025    2.518101    0.648462
     19          6           0       -1.983669    3.765759    1.115893
     20          6           0       -3.096775    4.621695    0.872195
     21          6           0       -4.203179    3.767007    0.387551
     22          6           0       -0.600367    3.966660    1.639193
     23          6           0       -3.194579    6.122177    1.009544
     24          8           0       -4.243813    6.695574    0.825661
     25          6           0       -1.980654    6.949368    1.310643
     26          7           0       -6.523084    1.867544    0.172539
     27          6           0       -6.651820    3.223879    0.138333
     28          6           0       -8.111813    3.724680   -0.087498
     29          6           0       -8.924228    2.373372   -0.186093
     30          6           0       -7.759374    1.248150   -0.091624
     31          6           0       -8.664527    4.622509    1.062725
     32          6           0       -9.694391    2.178413   -1.475473
     33          6           0      -11.175135    1.844144   -1.133978
     34          7           0       -5.923296   -0.998771   -0.050566
     35          6           0       -7.315342   -1.257708   -0.010994
     36          6           0       -7.531958   -2.699747   -0.102545
     37          6           0       -6.264216   -3.254504   -0.095028
     38          6           0       -5.274553   -2.201662   -0.008549
     39          6           0       -8.923909   -3.278756   -0.203323
     40          6           0       -5.654959   -4.466025   -0.039141
     41          8           0       -6.150588   -5.588939    0.178840
     42          6           0       -4.104309   -4.210647   -0.017507
     43          6           0       -3.456274   -4.895922    1.157148
     44          8           0       -3.565440   -4.688299    2.331750
     45          8           0       -2.702963   -5.951883    0.682357
     46          6           0       -1.726101   -6.625852    1.594473
     47          6           0        3.798073   -2.634532   -2.671905
     48          6           0        4.562271   -1.321070   -2.633407
     49          6           0        5.862028   -1.204180   -2.389056
     50          6           0        6.844978   -2.380414   -2.287874
     51          6           0        6.469429    0.134117   -2.502325
     52          6           0        7.049937    0.562169   -3.891451
     53          6           0        8.567504    0.924666   -3.871247
     54          6           0        8.916478    2.386381   -3.423370
     55          6           0        8.817817    3.310642   -4.726134
     56          6           0       10.190030    2.531485   -2.601013
     57          6           0        9.880626    2.611533   -1.110587
     58          6           0       10.877798    1.726467   -0.330769
     59          6           0       10.102948    0.691890    0.625876
     60          6           0       10.597831   -0.674706    0.223024
     61          6           0       10.425452    1.012403    2.097906
     62          6           0        9.120255    0.636274    2.860201
     63          6           0        9.537665    0.630823    4.368802
     64          6           0        9.938735   -0.774377    4.841784
     65          6           0        8.635392   -1.536298    5.163957
     66          6           0       11.007043   -0.835289    5.987705
     67          1           0       -0.474978    1.605659    0.765814
     68          1           0       -5.835041    5.097408    0.427799
     69          1           0       -9.207089   -0.363871   -0.155435
     70          1           0       -1.293759   -2.962223    0.878330
     71          1           0        0.082369   -0.730689   -0.396823
     72          1           0        0.046557   -1.888962    2.285178
     73          1           0       -0.355019   -0.194000    2.379319
     74          1           0        1.181467   -0.654349    1.715258
     75          1           0       -1.925684   -3.146256   -1.921844
     76          1           0       -0.857391   -4.094458   -0.949201
     77          1           0        0.034945   -1.562875   -2.335926
     78          1           0       -0.273509   -3.073628   -3.227812
     79          1           0       -0.439449    3.125866    2.313148
     80          1           0       -0.343448    4.948643    2.036224
     81          1           0        0.080958    3.994205    0.788095
     82          1           0       -2.414519    7.947912    1.357820
     83          1           0       -1.364890    6.787588    0.425029
     84          1           0       -1.522037    6.651298    2.253598
     85          1           0       -8.068400    4.270780   -1.029963
     86          1           0       -9.551358    2.292704    0.701088
     87          1           0       -8.394780    4.264631    2.057384
     88          1           0       -9.737980    4.718297    1.223600
     89          1           0       -8.265391    5.607115    0.820969
     90          1           0       -9.330804    1.297395   -2.003243
     91          1           0       -9.470129    3.030602   -2.116871
     92          1           0      -11.278627    1.182078   -0.274365
     93          1           0      -11.406326    1.148778   -1.940499
     94          1           0      -11.891495    2.661998   -1.203034
     95          1           0       -9.449622   -2.927733   -1.091149
     96          1           0       -9.511786   -2.815306    0.589259
     97          1           0       -8.865256   -4.361938   -0.098232
     98          1           0       -3.677915   -4.652812   -0.917420
     99          1           0       -1.507862   -7.630794    1.233705
    100          1           0       -2.163754   -6.767753    2.582465
    101          1           0       -0.854672   -5.977690    1.689155
    102          1           0        4.104796   -3.189272   -3.557677
    103          1           0        4.160458   -3.177374   -1.798837
    104          1           0        4.053246   -0.374981   -2.819148
    105          1           0        7.585306   -2.270269   -3.080236
    106          1           0        6.371346   -3.349082   -2.448003
    107          1           0        7.300636   -2.347191   -1.297596
    108          1           0        7.300929    0.229627   -1.804260
    109          1           0        5.841877    0.966991   -2.185766
    110          1           0        6.441565    1.430490   -4.146120
    111          1           0        6.957200   -0.121583   -4.734651
    112          1           0        8.994477    0.828869   -4.869419
    113          1           0        8.979031    0.189205   -3.179724
    114          1           0        8.009237    2.724627   -2.923656
    115          1           0        9.081994    4.333394   -4.456328
    116          1           0        7.772022    3.377139   -5.026892
    117          1           0        9.375709    2.806028   -5.515491
    118          1           0       10.733901    3.445777   -2.836702
    119          1           0       10.664810    1.614987   -2.951463
    120          1           0        8.849316    2.465728   -0.790659
    121          1           0       10.124163    3.579245   -0.670985
    122          1           0       11.638745    2.289971    0.208761
    123          1           0       11.550209    1.210678   -1.016558
    124          1           0        9.038567    0.788444    0.410089
    125          1           0       10.421998   -1.297654    1.099087
    126          1           0       11.621522   -0.588137   -0.141826
    127          1           0       10.092623   -0.956401   -0.702074
    128          1           0       10.732144    2.057783    2.124019
    129          1           0       11.272003    0.499239    2.554664
    130          1           0        8.617251   -0.231186    2.433136
    131          1           0        8.522165    1.547071    2.807380
    132          1           0        8.718469    1.030884    4.965494
    133          1           0       10.369522    1.328609    4.459789
    134          1           0       10.420085   -1.346560    4.049147
    135          1           0        8.798215   -2.523155    4.730217
    136          1           0        7.742298   -1.129796    4.688498
    137          1           0        8.610949   -1.600896    6.251964
    138          1           0       11.785262   -1.545176    5.707896
    139          1           0       10.705267   -1.226707    6.958741
    140          1           0       11.474204    0.141731    6.115501
 ---------------------------------------------------------------------

 SCF Done:  E(RPBE1PBE) =  -3005.31977993     A.U. after   15 cycles

 Excitation energies and oscillator strengths:

 Excited State   1:      Singlet-A      1.8577 eV  667.41 nm  f=0.3840  <S**2>=0.000
     245 -> 248        0.17512
     246 -> 247        0.69268
     246 <- 247       -0.10913
 This state for optimization and/or second-order correction.
 Total Energy, E(TD-HF/TD-DFT) =  -3005.25151086
 Copying the excited state density for this state as the 1-particle RhoCI density.

 Excited State   2:      Singlet-A      2.2423 eV  552.94 nm  f=0.0794  <S**2>=0.000
     245 -> 247        0.63919
     246 -> 248       -0.28918

 Excited State   3:      Singlet-A      2.7927 eV  443.96 nm  f=0.0004  <S**2>=0.000
     243 -> 247       -0.18844
     244 -> 247        0.64430
     244 -> 249        0.16299

 Excited State   4:      Singlet-A      3.0196 eV  410.60 nm  f=0.0001  <S**2>=0.000
     240 -> 247       -0.13316
     242 -> 247        0.66721
     242 -> 249       -0.12615

 Excited State   5:      Singlet-A      3.0779 eV  402.82 nm  f=0.0002  <S**2>=0.000
     240 -> 247       -0.15233
     243 -> 247        0.65106
     244 -> 247        0.19070

 The electronic state is 1-A.
 Alpha  occ. eigenvalues --  -46.91260 -19.27357 -19.23978 -19.21926 -19.19305
 Alpha  occ. eigenvalues --  -19.18880 -19.17855 -14.41995 -14.41936 -14.39037
 Alpha  occ. eigenvalues --  -14.38790 -10.38412 -10.35462 -10.31620 -10.30417
 Alpha  occ. eigenvalues --  -10.29685 -10.29405 -10.29263 -10.29083 -10.28463
 Alpha  occ. eigenvalues --  -10.28398 -10.27543 -10.27155 -10.27075 -10.26523
 Alpha  occ. eigenvalues --  -10.26370 -10.26345 -10.26214 -10.26062 -10.25866
 Alpha  occ. eigenvalues --  -10.25776 -10.25739 -10.25404 -10.25183 -10.25078
 Alpha  occ. eigenvalues --  -10.24982 -10.24920 -10.24725 -10.24412 -10.24356
 Alpha  occ. eigenvalues --  -10.24039 -10.24027 -10.23728 -10.23582 -10.23518
 Alpha  occ. eigenvalues --  -10.23488 -10.23452 -10.23430 -10.23333 -10.23329
 Alpha  occ. eigenvalues --  -10.23229 -10.23211 -10.23147 -10.23059 -10.22972
 Alpha  occ. eigenvalues --  -10.22898 -10.22567 -10.22389 -10.22371 -10.22312
 Alpha  occ. eigenvalues --  -10.22255 -10.22003 -10.21979 -10.21936 -10.21752
 Alpha  occ. eigenvalues --  -10.21683  -3.13606  -1.86444  -1.86006  -1.85824
 Alpha  occ. eigenvalues --   -1.12006  -1.09990  -1.05618  -1.03619  -1.02286
 Alpha  occ. eigenvalues --   -1.01485  -0.99708  -0.98655  -0.97140  -0.96266
 Alpha  occ. eigenvalues --   -0.87002  -0.85404  -0.84403  -0.84142  -0.83665
 Alpha  occ. eigenvalues --   -0.83216  -0.83029  -0.81670  -0.81441  -0.81315
 Alpha  occ. eigenvalues --   -0.80447  -0.79838  -0.78743  -0.78030  -0.77671
 Alpha  occ. eigenvalues --   -0.76847  -0.76596  -0.75607  -0.75314  -0.74649
 Alpha  occ. eigenvalues --   -0.74249  -0.72950  -0.72396  -0.71131  -0.70792
 Alpha  occ. eigenvalues --   -0.70173  -0.69710  -0.69610  -0.69002  -0.68316
 Alpha  occ. eigenvalues --   -0.68125  -0.67313  -0.66345  -0.65271  -0.63565
 Alpha  occ. eigenvalues --   -0.63312  -0.62810  -0.61777  -0.61373  -0.60353
 Alpha  occ. eigenvalues --   -0.60036  -0.59854  -0.59770  -0.58537  -0.58412
 Alpha  occ. eigenvalues --   -0.58275  -0.57146  -0.56676  -0.56027  -0.55171
 Alpha  occ. eigenvalues --   -0.54570  -0.54132  -0.53381  -0.53016  -0.52367
 Alpha  occ. eigenvalues --   -0.52047  -0.51568  -0.50793  -0.50635  -0.50188
 Alpha  occ. eigenvalues --   -0.49569  -0.49337  -0.49181  -0.48938  -0.48686
 Alpha  occ. eigenvalues --   -0.48505  -0.48090  -0.47894  -0.47814  -0.47424
 Alpha  occ. eigenvalues --   -0.47366  -0.47178  -0.47039  -0.46870  -0.46650
 Alpha  occ. eigenvalues --   -0.46231  -0.46131  -0.45656  -0.45558  -0.45219
 Alpha  occ. eigenvalues --   -0.45053  -0.44912  -0.44734  -0.44462  -0.44438
 Alpha  occ. eigenvalues --   -0.44276  -0.44051  -0.43880  -0.43456  -0.43311
 Alpha  occ. eigenvalues --   -0.43259  -0.42990  -0.42927  -0.42618  -0.42451
 Alpha  occ. eigenvalues --   -0.42014  -0.41997  -0.41864  -0.41413  -0.41253
 Alpha  occ. eigenvalues --   -0.41156  -0.41019  -0.40710  -0.40575  -0.40345
 Alpha  occ. eigenvalues --   -0.40302  -0.40154  -0.40032  -0.39848  -0.39656
 Alpha  occ. eigenvalues --   -0.39631  -0.39526  -0.39451  -0.39297  -0.39189
 Alpha  occ. eigenvalues --   -0.38944  -0.38610  -0.38477  -0.38288  -0.38090
 Alpha  occ. eigenvalues --   -0.37946  -0.37636  -0.37538  -0.37398  -0.37314
 Alpha  occ. eigenvalues --   -0.37109  -0.36827  -0.36721  -0.36432  -0.36112
 Alpha  occ. eigenvalues --   -0.36016  -0.35720  -0.35434  -0.35381  -0.35073
 Alpha  occ. eigenvalues --   -0.34869  -0.34509  -0.34179  -0.34020  -0.33709
 Alpha  occ. eigenvalues --   -0.33186  -0.32563  -0.32505  -0.32351  -0.32283
 Alpha  occ. eigenvalues --   -0.32093  -0.31989  -0.31874  -0.31620  -0.31373
 Alpha  occ. eigenvalues --   -0.30865  -0.30566  -0.30227  -0.29675  -0.29609
 Alpha  occ. eigenvalues --   -0.29236  -0.28282  -0.27911  -0.27037  -0.25844
 Alpha  occ. eigenvalues --   -0.25599  -0.25560  -0.25370  -0.24728  -0.21239
 Alpha  occ. eigenvalues --   -0.18744
 Alpha virt. eigenvalues --   -0.11166  -0.05527  -0.03938  -0.01818  -0.01427
 Alpha virt. eigenvalues --    0.00485   0.00958   0.01151   0.01356   0.03261
 Alpha virt. eigenvalues --    0.03905   0.04026   0.04580   0.05151   0.05499

 Mulliken charges:
               1
     1  Mg   0.989957
     2  C   -0.053311
     3  C   -0.120316
     4  C   -0.090976
     5  C   -0.065045
     6  N   -0.350623
     7  C   -0.041169
     8  C   -0.024747
     9  C   -0.164704
    10  C    0.117656
    11  C   -0.011979
    12  C    0.018134
    13  C   -0.057061
    14  C    0.273344
    15  O   -0.266901
    16  O   -0.352306
    17  N   -0.472485
    18  C    0.185059
    19  C   -0.181543
    20  C   -0.087776
    21  C    0.215872
    22  C    0.067404
    23  C    0.014774
    24  O   -0.232368
    25  C   -0.020440
    26  N   -0.486072
    27  C    0.066918
    28  C   -0.083002
    29  C   -0.145768
    30  C    0.150243
    31  C   -0.015216
    32  C   -0.003469
    33  C   -0.074278
    34  N   -0.492958
    35  C    0.093706
    36  C   -0.146908
    37  C   -0.018385
    38  C    0.205605
    39  C    0.075720
    40  C    0.088896
    41  O   -0.250099
    42  C   -0.093066
    43  C    0.269182
    44  O   -0.223167
    45  O   -0.396286
    46  C    0.123494
    47  C    0.244281
    48  C   -0.137755
    49  C   -0.197653
    50  C    0.006697
    51  C   -0.002786
    52  C   -0.039194
    53  C   -0.046298
    54  C   -0.249401
    55  C   -0.027256
    56  C    0.053063
    57  C   -0.037893
    58  C   -0.030332
    59  C   -0.252778
    60  C    0.019898
    61  C   -0.005774
    62  C   -0.071049
    63  C   -0.013505
    64  C   -0.241132
    65  C   -0.008061
    66  C   -0.016639
    67  H    0.009111
    68  H    0.028419
    69  H    0.001570
    70  H    0.063367
    71  H    0.044558
    72  H    0.051050
    73  H    0.044407
    74  H    0.045946
    75  H    0.042142
    76  H    0.055949
    77  H    0.067255
    78  H    0.080232
    79  H    0.071179
    80  H    0.027878
    81  H    0.057130
    82  H    0.057391
    83  H    0.063619
    84  H    0.075259
    85  H    0.055180
    86  H    0.056734
    87  H    0.047162
    88  H    0.044722
    89  H    0.060191
    90  H    0.045260
    91  H    0.033589
    92  H    0.045872
    93  H    0.026426
    94  H    0.058565
    95  H    0.049138
    96  H    0.044474
    97  H    0.073081
    98  H    0.075233
    99  H    0.066910
   100  H    0.063150
   101  H    0.058398
   102  H    0.054558
   103  H    0.074335
   104  H    0.021278
   105  H    0.056559
   106  H    0.035553
   107  H    0.059617
   108  H    0.024430
   109  H    0.028712
   110  H    0.027491
   111  H    0.036068
   112  H    0.027495
   113  H    0.033381
   114  H    0.025529
   115  H    0.039952
   116  H    0.028366
   117  H    0.038027
   118  H    0.030796
   119  H    0.039366
   120  H    0.032750
   121  H    0.026657
   122  H    0.015667
   123  H    0.011504
   124  H    0.045424
   125  H    0.035471
   126  H    0.033117
   127  H    0.026144
   128  H    0.028245
   129  H    0.028214
   130  H    0.046677
   131  H    0.034531
   132  H    0.024468
   133  H    0.019747
   134  H    0.034858
   135  H    0.027123
   136  H    0.041940
   137  H    0.040137
   138  H    0.028882
   139  H    0.032126
   140  H    0.034283
 Sum of Mulliken charges =  -0.00000

 Dipole moment (field-independent basis, Debye):
    X=              4.5669    Y=              4.7714    Z=             -2.5368  Tot=              7.0752
 Quadrupole moment (field-independent basis, Debye-Ang):
   XX=           -373.3358   YY=           -441.0721   ZZ=           -402.7088
   XY=            -24.9453   XZ=             12.4263   YZ=              7.9311

 Normal termination of Gaussian 16 at Fri Apr 29 13:09:48 2022.
