 Gaussian 16, Revision A.03,
 Gaussian 16:  ES64L-G16RevA.03 25-Dec-2016

 --------------------------------
 #p wB97XD/Def2SVP td=(nstates=5)
 --------------------------------

 ----------------------------------------------------
 step_301_chromophore_27 TDDFT with wB97XD functional
 ----------------------------------------------------
 Symbolic Z-matrix:
 Charge =  0 Multiplicity = 1

                         Standard orientation:
 ---------------------------------------------------------------------
 Center     Atomic      Atomic             Coordinates (Angstroms)
 Number     Number       Type             X           Y           Z
 ---------------------------------------------------------------------
      1         12           0       -4.868564    0.834869    0.016584
      2          6           0       -3.976269   -2.702286   -0.012771
      3          6           0       -1.533237    1.400038    0.592481
      4          6           0       -5.502845    4.069587    0.268424
      5          6           0       -8.158244   -0.082989   -0.044842
      6          7           0       -2.993296   -0.478986    0.076765
      7          6           0       -2.811001   -1.858030    0.012114
      8          6           0       -1.370412   -2.322704   -0.001095
      9          6           0       -0.675728   -0.982082    0.344949
     10          6           0       -1.814785    0.098322    0.253782
     11          6           0        0.131377   -0.942034    1.753131
     12          6           0       -1.013198   -3.085662   -1.328866
     13          6           0        0.117194   -2.649439   -2.302681
     14          6           0        1.584970   -3.158534   -2.043992
     15          8           0        1.896232   -4.183291   -1.405523
     16          8           0        2.411805   -2.363665   -2.830201
     17          7           0       -3.729134    2.536402    0.349153
     18          6           0       -2.402025    2.518101    0.648462
     19          6           0       -1.983669    3.765759    1.115893
     20          6           0       -3.096775    4.621695    0.872195
     21          6           0       -4.203179    3.767007    0.387551
     22          6           0       -0.600367    3.966660    1.639193
     23          6           0       -3.194579    6.122177    1.009544
     24          8           0       -4.243813    6.695574    0.825661
     25          6           0       -1.980654    6.949368    1.310643
     26          7           0       -6.523084    1.867544    0.172539
     27          6           0       -6.651820    3.223879    0.138333
     28          6           0       -8.111813    3.724680   -0.087498
     29          6           0       -8.924228    2.373372   -0.186093
     30          6           0       -7.759374    1.248150   -0.091624
     31          6           0       -8.664527    4.622509    1.062725
     32          6           0       -9.694391    2.178413   -1.475473
     33          6           0      -11.175135    1.844144   -1.133978
     34          7           0       -5.923296   -0.998771   -0.050566
     35          6           0       -7.315342   -1.257708   -0.010994
     36          6           0       -7.531958   -2.699747   -0.102545
     37          6           0       -6.264216   -3.254504   -0.095028
     38          6           0       -5.274553   -2.201662   -0.008549
     39          6           0       -8.923909   -3.278756   -0.203323
     40          6           0       -5.654959   -4.466025   -0.039141
     41          8           0       -6.150588   -5.588939    0.178840
     42          6           0       -4.104309   -4.210647   -0.017507
     43          6           0       -3.456274   -4.895922    1.157148
     44          8           0       -3.565440   -4.688299    2.331750
     45          8           0       -2.702963   -5.951883    0.682357
     46          6           0       -1.726101   -6.625852    1.594473
     47          6           0        3.798073   -2.634532   -2.671905
     48          6           0        4.562271   -1.321070   -2.633407
     49          6           0        5.862028   -1.204180   -2.389056
     50          6           0        6.844978   -2.380414   -2.287874
     51          6           0        6.469429    0.134117   -2.502325
     52          6           0        7.049937    0.562169   -3.891451
     53          6           0        8.567504    0.924666   -3.871247
     54          6           0        8.916478    2.386381   -3.423370
     55          6           0        8.817817    3.310642   -4.726134
     56          6           0       10.190030    2.531485   -2.601013
     57          6           0        9.880626    2.611533   -1.110587
     58          6           0       10.877798    1.726467   -0.330769
     59          6           0       10.102948    0.691890    0.625876
     60          6           0       10.597831   -0.674706    0.223024
     61          6           0       10.425452    1.012403    2.097906
     62          6           0        9.120255    0.636274    2.860201
     63          6           0        9.537665    0.630823    4.368802
     64          6           0        9.938735   -0.774377    4.841784
     65          6           0        8.635392   -1.536298    5.163957
     66          6           0       11.007043   -0.835289    5.987705
     67          1           0       -0.474978    1.605659    0.765814
     68          1           0       -5.835041    5.097408    0.427799
     69          1           0       -9.207089   -0.363871   -0.155435
     70          1           0       -1.293759   -2.962223    0.878330
     71          1           0        0.082369   -0.730689   -0.396823
     72          1           0        0.046557   -1.888962    2.285178
     73          1           0       -0.355019   -0.194000    2.379319
     74          1           0        1.181467   -0.654349    1.715258
     75          1           0       -1.925684   -3.146256   -1.921844
     76          1           0       -0.857391   -4.094458   -0.949201
     77          1           0        0.034945   -1.562875   -2.335926
     78          1           0       -0.273509   -3.073628   -3.227812
     79          1           0       -0.439449    3.125866    2.313148
     80          1           0       -0.343448    4.948643    2.036224
     81          1           0        0.080958    3.994205    0.788095
     82          1           0       -2.414519    7.947912    1.357820
     83          1           0       -1.364890    6.787588    0.425029
     84          1           0       -1.522037    6.651298    2.253598
     85          1           0       -8.068400    4.270780   -1.029963
     86          1           0       -9.551358    2.292704    0.701088
     87          1           0       -8.394780    4.264631    2.057384
     88          1           0       -9.737980    4.718297    1.223600
     89          1           0       -8.265391    5.607115    0.820969
     90          1           0       -9.330804    1.297395   -2.003243
     91          1           0       -9.470129    3.030602   -2.116871
     92          1           0      -11.278627    1.182078   -0.274365
     93          1           0      -11.406326    1.148778   -1.940499
     94          1           0      -11.891495    2.661998   -1.203034
     95          1           0       -9.449622   -2.927733   -1.091149
     96          1           0       -9.511786   -2.815306    0.589259
     97          1           0       -8.865256   -4.361938   -0.098232
     98          1           0       -3.677915   -4.652812   -0.917420
     99          1           0       -1.507862   -7.630794    1.233705
    100          1           0       -2.163754   -6.767753    2.582465
    101          1           0       -0.854672   -5.977690    1.689155
    102          1           0        4.104796   -3.189272   -3.557677
    103          1           0        4.160458   -3.177374   -1.798837
    104          1           0        4.053246   -0.374981   -2.819148
    105          1           0        7.585306   -2.270269   -3.080236
    106          1           0        6.371346   -3.349082   -2.448003
    107          1           0        7.300636   -2.347191   -1.297596
    108          1           0        7.300929    0.229627   -1.804260
    109          1           0        5.841877    0.966991   -2.185766
    110          1           0        6.441565    1.430490   -4.146120
    111          1           0        6.957200   -0.121583   -4.734651
    112          1           0        8.994477    0.828869   -4.869419
    113          1           0        8.979031    0.189205   -3.179724
    114          1           0        8.009237    2.724627   -2.923656
    115          1           0        9.081994    4.333394   -4.456328
    116          1           0        7.772022    3.377139   -5.026892
    117          1           0        9.375709    2.806028   -5.515491
    118          1           0       10.733901    3.445777   -2.836702
    119          1           0       10.664810    1.614987   -2.951463
    120          1           0        8.849316    2.465728   -0.790659
    121          1           0       10.124163    3.579245   -0.670985
    122          1           0       11.638745    2.289971    0.208761
    123          1           0       11.550209    1.210678   -1.016558
    124          1           0        9.038567    0.788444    0.410089
    125          1           0       10.421998   -1.297654    1.099087
    126          1           0       11.621522   -0.588137   -0.141826
    127          1           0       10.092623   -0.956401   -0.702074
    128          1           0       10.732144    2.057783    2.124019
    129          1           0       11.272003    0.499239    2.554664
    130          1           0        8.617251   -0.231186    2.433136
    131          1           0        8.522165    1.547071    2.807380
    132          1           0        8.718469    1.030884    4.965494
    133          1           0       10.369522    1.328609    4.459789
    134          1           0       10.420085   -1.346560    4.049147
    135          1           0        8.798215   -2.523155    4.730217
    136          1           0        7.742298   -1.129796    4.688498
    137          1           0        8.610949   -1.600896    6.251964
    138          1           0       11.785262   -1.545176    5.707896
    139          1           0       10.705267   -1.226707    6.958741
    140          1           0       11.474204    0.141731    6.115501
 ---------------------------------------------------------------------

 SCF Done:  E(RwB97XD) =  -3007.82878249     A.U. after   19 cycles

 Excitation energies and oscillator strengths:

 Excited State   1:      Singlet-A      1.6628 eV  745.62 nm  f=0.3937  <S**2>=0.000
     245 -> 248        0.18295
     246 -> 247        0.68362
     245 <- 248        0.11518
 This state for optimization and/or second-order correction.
 Total Energy, E(TD-HF/TD-DFT) =  -3007.76767435
 Copying the excited state density for this state as the 1-particle RhoCI density.

 Excited State   2:      Singlet-A      2.1896 eV  566.24 nm  f=0.0783  <S**2>=0.000
     245 -> 247        0.62392
     246 -> 248       -0.31846

 Excited State   3:      Singlet-A      3.3452 eV  370.63 nm  f=0.0058  <S**2>=0.000
     243 -> 247       -0.27995
     243 -> 249       -0.25488
     243 -> 250       -0.15643
     244 -> 247        0.49351
     244 -> 249        0.20811

 Excited State   4:      Singlet-A      3.4306 eV  361.41 nm  f=0.2553  <S**2>=0.000
     241 -> 247        0.47255
     243 -> 247       -0.19156
     244 -> 247       -0.14069
     245 -> 247        0.17154
     246 -> 248        0.41039

 Excited State   5:      Singlet-A      3.4805 eV  356.22 nm  f=0.2212  <S**2>=0.000
     243 -> 247        0.43613
     243 -> 249        0.17116
     244 -> 247        0.27889
     245 -> 247        0.18092
     246 -> 248        0.37386

 The electronic state is 1-A.
 Alpha  occ. eigenvalues --  -46.94224 -19.31898 -19.28456 -19.26579 -19.23948
 Alpha  occ. eigenvalues --  -19.23911 -19.22403 -14.47113 -14.47019 -14.43876
 Alpha  occ. eigenvalues --  -14.43842 -10.45190 -10.42215 -10.38668 -10.37100
 Alpha  occ. eigenvalues --  -10.36166 -10.35937 -10.35347 -10.35129 -10.34918
 Alpha  occ. eigenvalues --  -10.34903 -10.33859 -10.33755 -10.33467 -10.32773
 Alpha  occ. eigenvalues --  -10.32636 -10.32618 -10.32596 -10.32494 -10.32275
 Alpha  occ. eigenvalues --  -10.32105 -10.31897 -10.31715 -10.31648 -10.31417
 Alpha  occ. eigenvalues --  -10.31373 -10.31339 -10.31291 -10.30883 -10.30754
 Alpha  occ. eigenvalues --  -10.30492 -10.30459 -10.30096 -10.30019 -10.29975
 Alpha  occ. eigenvalues --  -10.29883 -10.29877 -10.29708 -10.29704 -10.29694
 Alpha  occ. eigenvalues --  -10.29622 -10.29598 -10.29509 -10.29395 -10.29264
 Alpha  occ. eigenvalues --  -10.29238 -10.28953 -10.28811 -10.28760 -10.28675
 Alpha  occ. eigenvalues --  -10.28626 -10.28403 -10.28263 -10.28198 -10.28120
 Alpha  occ. eigenvalues --  -10.28031  -3.20404  -1.93996  -1.93554  -1.93377
 Alpha  occ. eigenvalues --   -1.19373  -1.17304  -1.13307  -1.10958  -1.09559
 Alpha  occ. eigenvalues --   -1.08764  -1.07278  -1.06074  -1.04509  -1.03498
 Alpha  occ. eigenvalues --   -0.94476  -0.93077  -0.92074  -0.91931  -0.91282
 Alpha  occ. eigenvalues --   -0.90884  -0.90622  -0.89339  -0.89167  -0.88942
 Alpha  occ. eigenvalues --   -0.87953  -0.87484  -0.86412  -0.85689  -0.85219
 Alpha  occ. eigenvalues --   -0.84543  -0.84454  -0.83275  -0.82911  -0.82289
 Alpha  occ. eigenvalues --   -0.81903  -0.80781  -0.80009  -0.78692  -0.78467
 Alpha  occ. eigenvalues --   -0.77766  -0.77418  -0.77227  -0.76697  -0.75970
 Alpha  occ. eigenvalues --   -0.75745  -0.74769  -0.73919  -0.72889  -0.71123
 Alpha  occ. eigenvalues --   -0.70789  -0.70404  -0.69406  -0.69035  -0.67877
 Alpha  occ. eigenvalues --   -0.67579  -0.67453  -0.67261  -0.66076  -0.65945
 Alpha  occ. eigenvalues --   -0.65755  -0.64812  -0.64330  -0.63385  -0.62773
 Alpha  occ. eigenvalues --   -0.62066  -0.61497  -0.60813  -0.60358  -0.59868
 Alpha  occ. eigenvalues --   -0.59430  -0.58969  -0.58212  -0.58076  -0.57606
 Alpha  occ. eigenvalues --   -0.57018  -0.56723  -0.56510  -0.56413  -0.56022
 Alpha  occ. eigenvalues --   -0.55967  -0.55755  -0.55347  -0.55226  -0.54813
 Alpha  occ. eigenvalues --   -0.54706  -0.54585  -0.54487  -0.54286  -0.53939
 Alpha  occ. eigenvalues --   -0.53664  -0.53503  -0.53030  -0.52899  -0.52545
 Alpha  occ. eigenvalues --   -0.52339  -0.52242  -0.52076  -0.51872  -0.51794
 Alpha  occ. eigenvalues --   -0.51624  -0.51440  -0.51298  -0.50761  -0.50591
 Alpha  occ. eigenvalues --   -0.50560  -0.50373  -0.50198  -0.49837  -0.49799
 Alpha  occ. eigenvalues --   -0.49308  -0.49209  -0.49130  -0.48637  -0.48444
 Alpha  occ. eigenvalues --   -0.48371  -0.48126  -0.47947  -0.47723  -0.47538
 Alpha  occ. eigenvalues --   -0.47515  -0.47322  -0.47247  -0.47026  -0.46869
 Alpha  occ. eigenvalues --   -0.46792  -0.46655  -0.46606  -0.46520  -0.46285
 Alpha  occ. eigenvalues --   -0.46098  -0.45899  -0.45631  -0.45393  -0.45240
 Alpha  occ. eigenvalues --   -0.45212  -0.44816  -0.44595  -0.44466  -0.44457
 Alpha  occ. eigenvalues --   -0.44184  -0.43881  -0.43746  -0.43586  -0.43216
 Alpha  occ. eigenvalues --   -0.43041  -0.42772  -0.42480  -0.42410  -0.42012
 Alpha  occ. eigenvalues --   -0.41970  -0.41470  -0.41271  -0.40998  -0.40804
 Alpha  occ. eigenvalues --   -0.40227  -0.39571  -0.39415  -0.39387  -0.39319
 Alpha  occ. eigenvalues --   -0.39070  -0.38991  -0.38909  -0.38631  -0.38176
 Alpha  occ. eigenvalues --   -0.37842  -0.37595  -0.37299  -0.36679  -0.36370
 Alpha  occ. eigenvalues --   -0.36040  -0.35157  -0.34746  -0.33672  -0.32950
 Alpha  occ. eigenvalues --   -0.32544  -0.32335  -0.32005  -0.31369  -0.26308
 Alpha  occ. eigenvalues --   -0.22890
 Alpha virt. eigenvalues --   -0.07013  -0.00119   0.02342   0.04679   0.05469
 Alpha virt. eigenvalues --    0.06284   0.07488   0.07829   0.08240   0.09540
 Alpha virt. eigenvalues --    0.10474   0.10732   0.11360   0.11846   0.12194

 Mulliken charges:
               1
     1  Mg   0.977536
     2  C   -0.058936
     3  C   -0.140515
     4  C   -0.106052
     5  C   -0.077262
     6  N   -0.314466
     7  C   -0.069486
     8  C   -0.003669
     9  C   -0.140931
    10  C    0.103893
    11  C    0.001849
    12  C    0.025696
    13  C   -0.034885
    14  C    0.263069
    15  O   -0.264668
    16  O   -0.351516
    17  N   -0.436339
    18  C    0.181193
    19  C   -0.170987
    20  C   -0.080757
    21  C    0.207724
    22  C    0.082705
    23  C    0.010962
    24  O   -0.225901
    25  C   -0.009509
    26  N   -0.457243
    27  C    0.053835
    28  C   -0.056944
    29  C   -0.120761
    30  C    0.146865
    31  C   -0.007363
    32  C    0.008999
    33  C   -0.057716
    34  N   -0.456737
    35  C    0.077283
    36  C   -0.147370
    37  C   -0.006944
    38  C    0.186022
    39  C    0.083969
    40  C    0.069837
    41  O   -0.241663
    42  C   -0.052000
    43  C    0.241303
    44  O   -0.216549
    45  O   -0.394468
    46  C    0.139412
    47  C    0.256093
    48  C   -0.149126
    49  C   -0.183173
    50  C    0.020987
    51  C    0.026987
    52  C   -0.030067
    53  C   -0.020239
    54  C   -0.221467
    55  C   -0.012497
    56  C    0.071009
    57  C   -0.022617
    58  C   -0.016819
    59  C   -0.215257
    60  C    0.037781
    61  C    0.005125
    62  C   -0.055538
    63  C    0.010693
    64  C   -0.214430
    65  C    0.002976
    66  C   -0.005012
    67  H    0.001779
    68  H    0.022411
    69  H   -0.006547
    70  H    0.049014
    71  H    0.030519
    72  H    0.046668
    73  H    0.035332
    74  H    0.041414
    75  H    0.032983
    76  H    0.048903
    77  H    0.059624
    78  H    0.075777
    79  H    0.066340
    80  H    0.023373
    81  H    0.052942
    82  H    0.056832
    83  H    0.058819
    84  H    0.070507
    85  H    0.046028
    86  H    0.044447
    87  H    0.041688
    88  H    0.040140
    89  H    0.054816
    90  H    0.035322
    91  H    0.026380
    92  H    0.039241
    93  H    0.020111
    94  H    0.053567
    95  H    0.043341
    96  H    0.037776
    97  H    0.069900
    98  H    0.067805
    99  H    0.063626
   100  H    0.058966
   101  H    0.053925
   102  H    0.049592
   103  H    0.068548
   104  H    0.018657
   105  H    0.050133
   106  H    0.030598
   107  H    0.054351
   108  H    0.005000
   109  H    0.022150
   110  H    0.017802
   111  H    0.029476
   112  H    0.018387
   113  H    0.015937
   114  H    0.008888
   115  H    0.034213
   116  H    0.021332
   117  H    0.030837
   118  H    0.024812
   119  H    0.027433
   120  H    0.022369
   121  H    0.019534
   122  H    0.008087
   123  H   -0.000348
   124  H    0.027709
   125  H    0.027403
   126  H    0.025908
   127  H    0.017547
   128  H    0.018950
   129  H    0.017126
   130  H    0.037890
   131  H    0.025601
   132  H    0.016283
   133  H    0.008688
   134  H    0.020871
   135  H    0.021718
   136  H    0.035617
   137  H    0.033304
   138  H    0.023340
   139  H    0.026406
   140  H    0.028157
 Sum of Mulliken charges =  -0.00000

 Dipole moment (field-independent basis, Debye):
    X=              4.9336    Y=              5.3720    Z=             -2.4400  Tot=              7.6910
 Quadrupole moment (field-independent basis, Debye-Ang):
   XX=           -377.0705   YY=           -439.0510   ZZ=           -402.1614
   XY=            -26.9443   XZ=             12.3942   YZ=              8.5057

 Normal termination of Gaussian 16 at Fri Apr 29 13:40:31 2022.
