 Gaussian 16, Revision A.03,
 Gaussian 16:  ES64L-G16RevA.03 25-Dec-2016

 --------------------
 #p ZINDO=(nstates=5)
 --------------------

 -----------------------------
 step_301_chromophore_27 ZINDO
 -----------------------------
 Symbolic Z-matrix:
 Charge =  0 Multiplicity = 1

                         Standard orientation:
 ---------------------------------------------------------------------
 Center     Atomic      Atomic             Coordinates (Angstroms)
 Number     Number       Type             X           Y           Z
 ---------------------------------------------------------------------
      1         12           0       -4.868564    0.834869    0.016584
      2          6           0       -3.976269   -2.702286   -0.012771
      3          6           0       -1.533237    1.400038    0.592481
      4          6           0       -5.502845    4.069587    0.268424
      5          6           0       -8.158244   -0.082989   -0.044842
      6          7           0       -2.993296   -0.478986    0.076765
      7          6           0       -2.811001   -1.858030    0.012114
      8          6           0       -1.370412   -2.322704   -0.001095
      9          6           0       -0.675728   -0.982082    0.344949
     10          6           0       -1.814785    0.098322    0.253782
     11          6           0        0.131377   -0.942034    1.753131
     12          6           0       -1.013198   -3.085662   -1.328866
     13          6           0        0.117194   -2.649439   -2.302681
     14          6           0        1.584970   -3.158534   -2.043992
     15          8           0        1.896232   -4.183291   -1.405523
     16          8           0        2.411805   -2.363665   -2.830201
     17          7           0       -3.729134    2.536402    0.349153
     18          6           0       -2.402025    2.518101    0.648462
     19          6           0       -1.983669    3.765759    1.115893
     20          6           0       -3.096775    4.621695    0.872195
     21          6           0       -4.203179    3.767007    0.387551
     22          6           0       -0.600367    3.966660    1.639193
     23          6           0       -3.194579    6.122177    1.009544
     24          8           0       -4.243813    6.695574    0.825661
     25          6           0       -1.980654    6.949368    1.310643
     26          7           0       -6.523084    1.867544    0.172539
     27          6           0       -6.651820    3.223879    0.138333
     28          6           0       -8.111813    3.724680   -0.087498
     29          6           0       -8.924228    2.373372   -0.186093
     30          6           0       -7.759374    1.248150   -0.091624
     31          6           0       -8.664527    4.622509    1.062725
     32          6           0       -9.694391    2.178413   -1.475473
     33          6           0      -11.175135    1.844144   -1.133978
     34          7           0       -5.923296   -0.998771   -0.050566
     35          6           0       -7.315342   -1.257708   -0.010994
     36          6           0       -7.531958   -2.699747   -0.102545
     37          6           0       -6.264216   -3.254504   -0.095028
     38          6           0       -5.274553   -2.201662   -0.008549
     39          6           0       -8.923909   -3.278756   -0.203323
     40          6           0       -5.654959   -4.466025   -0.039141
     41          8           0       -6.150588   -5.588939    0.178840
     42          6           0       -4.104309   -4.210647   -0.017507
     43          6           0       -3.456274   -4.895922    1.157148
     44          8           0       -3.565440   -4.688299    2.331750
     45          8           0       -2.702963   -5.951883    0.682357
     46          6           0       -1.726101   -6.625852    1.594473
     47          6           0        3.798073   -2.634532   -2.671905
     48          6           0        4.562271   -1.321070   -2.633407
     49          6           0        5.862028   -1.204180   -2.389056
     50          6           0        6.844978   -2.380414   -2.287874
     51          6           0        6.469429    0.134117   -2.502325
     52          6           0        7.049937    0.562169   -3.891451
     53          6           0        8.567504    0.924666   -3.871247
     54          6           0        8.916478    2.386381   -3.423370
     55          6           0        8.817817    3.310642   -4.726134
     56          6           0       10.190030    2.531485   -2.601013
     57          6           0        9.880626    2.611533   -1.110587
     58          6           0       10.877798    1.726467   -0.330769
     59          6           0       10.102948    0.691890    0.625876
     60          6           0       10.597831   -0.674706    0.223024
     61          6           0       10.425452    1.012403    2.097906
     62          6           0        9.120255    0.636274    2.860201
     63          6           0        9.537665    0.630823    4.368802
     64          6           0        9.938735   -0.774377    4.841784
     65          6           0        8.635392   -1.536298    5.163957
     66          6           0       11.007043   -0.835289    5.987705
     67          1           0       -0.474978    1.605659    0.765814
     68          1           0       -5.835041    5.097408    0.427799
     69          1           0       -9.207089   -0.363871   -0.155435
     70          1           0       -1.293759   -2.962223    0.878330
     71          1           0        0.082369   -0.730689   -0.396823
     72          1           0        0.046557   -1.888962    2.285178
     73          1           0       -0.355019   -0.194000    2.379319
     74          1           0        1.181467   -0.654349    1.715258
     75          1           0       -1.925684   -3.146256   -1.921844
     76          1           0       -0.857391   -4.094458   -0.949201
     77          1           0        0.034945   -1.562875   -2.335926
     78          1           0       -0.273509   -3.073628   -3.227812
     79          1           0       -0.439449    3.125866    2.313148
     80          1           0       -0.343448    4.948643    2.036224
     81          1           0        0.080958    3.994205    0.788095
     82          1           0       -2.414519    7.947912    1.357820
     83          1           0       -1.364890    6.787588    0.425029
     84          1           0       -1.522037    6.651298    2.253598
     85          1           0       -8.068400    4.270780   -1.029963
     86          1           0       -9.551358    2.292704    0.701088
     87          1           0       -8.394780    4.264631    2.057384
     88          1           0       -9.737980    4.718297    1.223600
     89          1           0       -8.265391    5.607115    0.820969
     90          1           0       -9.330804    1.297395   -2.003243
     91          1           0       -9.470129    3.030602   -2.116871
     92          1           0      -11.278627    1.182078   -0.274365
     93          1           0      -11.406326    1.148778   -1.940499
     94          1           0      -11.891495    2.661998   -1.203034
     95          1           0       -9.449622   -2.927733   -1.091149
     96          1           0       -9.511786   -2.815306    0.589259
     97          1           0       -8.865256   -4.361938   -0.098232
     98          1           0       -3.677915   -4.652812   -0.917420
     99          1           0       -1.507862   -7.630794    1.233705
    100          1           0       -2.163754   -6.767753    2.582465
    101          1           0       -0.854672   -5.977690    1.689155
    102          1           0        4.104796   -3.189272   -3.557677
    103          1           0        4.160458   -3.177374   -1.798837
    104          1           0        4.053246   -0.374981   -2.819148
    105          1           0        7.585306   -2.270269   -3.080236
    106          1           0        6.371346   -3.349082   -2.448003
    107          1           0        7.300636   -2.347191   -1.297596
    108          1           0        7.300929    0.229627   -1.804260
    109          1           0        5.841877    0.966991   -2.185766
    110          1           0        6.441565    1.430490   -4.146120
    111          1           0        6.957200   -0.121583   -4.734651
    112          1           0        8.994477    0.828869   -4.869419
    113          1           0        8.979031    0.189205   -3.179724
    114          1           0        8.009237    2.724627   -2.923656
    115          1           0        9.081994    4.333394   -4.456328
    116          1           0        7.772022    3.377139   -5.026892
    117          1           0        9.375709    2.806028   -5.515491
    118          1           0       10.733901    3.445777   -2.836702
    119          1           0       10.664810    1.614987   -2.951463
    120          1           0        8.849316    2.465728   -0.790659
    121          1           0       10.124163    3.579245   -0.670985
    122          1           0       11.638745    2.289971    0.208761
    123          1           0       11.550209    1.210678   -1.016558
    124          1           0        9.038567    0.788444    0.410089
    125          1           0       10.421998   -1.297654    1.099087
    126          1           0       11.621522   -0.588137   -0.141826
    127          1           0       10.092623   -0.956401   -0.702074
    128          1           0       10.732144    2.057783    2.124019
    129          1           0       11.272003    0.499239    2.554664
    130          1           0        8.617251   -0.231186    2.433136
    131          1           0        8.522165    1.547071    2.807380
    132          1           0        8.718469    1.030884    4.965494
    133          1           0       10.369522    1.328609    4.459789
    134          1           0       10.420085   -1.346560    4.049147
    135          1           0        8.798215   -2.523155    4.730217
    136          1           0        7.742298   -1.129796    4.688498
    137          1           0        8.610949   -1.600896    6.251964
    138          1           0       11.785262   -1.545176    5.707896
    139          1           0       10.705267   -1.226707    6.958741
    140          1           0       11.474204    0.141731    6.115501
 ---------------------------------------------------------------------

 SCF Done:  E(RZINDO/S) =  -474.296719098     A.U. after   19 cycles

 Excitation energies and oscillator strengths:

 Excited State   1:      Singlet-A      1.2654 eV  979.82 nm  f=0.6028  <S**2>=0.000
     175 ->178        -0.18311
     176 ->177         0.66594
 This state for optimization and/or second-order correction.
 Total Energy, E(CIS/TDA) =  -474.250217537
 Copying the excited state density for this state as the 1-particle RhoCI density.

 Excited State   2:      Singlet-A      1.9242 eV  644.35 nm  f=0.0280  <S**2>=0.000
     175 ->177         0.52574
     176 ->178         0.44791

 Excited State   3:      Singlet-A      2.8520 eV  434.72 nm  f=0.0175  <S**2>=0.000
     170 ->177         0.30525
     170 ->178         0.13002
     170 ->179         0.33213
     170 ->181        -0.29501
     170 ->186         0.14236
     170 ->187         0.14493
     171 ->177         0.11771
     171 ->179         0.11863
     171 ->181        -0.10681
     174 ->177        -0.11939
     176 ->179        -0.10752

 Excited State   4:      Singlet-A      2.9173 eV  425.00 nm  f=0.0127  <S**2>=0.000
     168 ->177         0.32112
     168 ->179        -0.33063
     168 ->181        -0.28494
     168 ->186        -0.22410
     169 ->177         0.13785
     169 ->179        -0.11991
     169 ->181        -0.12075
     176 ->179         0.13003

 Excited State   5:      Singlet-A      2.9381 eV  421.99 nm  f=0.4022  <S**2>=0.000
     175 ->177        -0.25161
     176 ->178         0.31474
     176 ->179         0.47143
     176 ->181        -0.16879

 The electronic state is 1-A.
 Alpha  occ. eigenvalues --   -1.84954  -1.81967  -1.78612  -1.72781  -1.71197
 Alpha  occ. eigenvalues --   -1.69748  -1.66922  -1.62366  -1.61606  -1.57292
 Alpha  occ. eigenvalues --   -1.55829  -1.52147  -1.49676  -1.48622  -1.46166
 Alpha  occ. eigenvalues --   -1.43780  -1.43297  -1.42345  -1.39919  -1.38408
 Alpha  occ. eigenvalues --   -1.35440  -1.33322  -1.32060  -1.31666  -1.29072
 Alpha  occ. eigenvalues --   -1.28307  -1.25520  -1.23085  -1.20988  -1.18216
 Alpha  occ. eigenvalues --   -1.16752  -1.16340  -1.15954  -1.14778  -1.13350
 Alpha  occ. eigenvalues --   -1.12202  -1.11053  -1.10186  -1.04682  -1.03824
 Alpha  occ. eigenvalues --   -1.03298  -1.01500  -0.99605  -0.97692  -0.96957
 Alpha  occ. eigenvalues --   -0.95933  -0.95361  -0.93892  -0.93155  -0.92402
 Alpha  occ. eigenvalues --   -0.91001  -0.89729  -0.88949  -0.87868  -0.86688
 Alpha  occ. eigenvalues --   -0.86018  -0.84471  -0.83656  -0.82519  -0.80504
 Alpha  occ. eigenvalues --   -0.79464  -0.78482  -0.77843  -0.77723  -0.76380
 Alpha  occ. eigenvalues --   -0.75633  -0.74680  -0.74403  -0.73725  -0.73498
 Alpha  occ. eigenvalues --   -0.72926  -0.72038  -0.71436  -0.71167  -0.69647
 Alpha  occ. eigenvalues --   -0.69423  -0.69315  -0.69264  -0.68944  -0.68561
 Alpha  occ. eigenvalues --   -0.67551  -0.67246  -0.66753  -0.66458  -0.65698
 Alpha  occ. eigenvalues --   -0.65517  -0.65263  -0.65194  -0.65114  -0.64100
 Alpha  occ. eigenvalues --   -0.63218  -0.62768  -0.62459  -0.61817  -0.61523
 Alpha  occ. eigenvalues --   -0.61251  -0.60698  -0.60408  -0.60192  -0.59678
 Alpha  occ. eigenvalues --   -0.59611  -0.59176  -0.58707  -0.58268  -0.57932
 Alpha  occ. eigenvalues --   -0.57814  -0.56989  -0.56863  -0.56820  -0.56672
 Alpha  occ. eigenvalues --   -0.56283  -0.56054  -0.55693  -0.55505  -0.55225
 Alpha  occ. eigenvalues --   -0.55044  -0.54417  -0.54205  -0.53810  -0.53136
 Alpha  occ. eigenvalues --   -0.52777  -0.52546  -0.52439  -0.52225  -0.51719
 Alpha  occ. eigenvalues --   -0.51221  -0.51159  -0.51045  -0.50956  -0.50350
 Alpha  occ. eigenvalues --   -0.50097  -0.49897  -0.49574  -0.48965  -0.48644
 Alpha  occ. eigenvalues --   -0.48554  -0.48250  -0.48213  -0.47907  -0.47659
 Alpha  occ. eigenvalues --   -0.47465  -0.47301  -0.47031  -0.46675  -0.46659
 Alpha  occ. eigenvalues --   -0.46342  -0.45916  -0.45552  -0.45379  -0.45205
 Alpha  occ. eigenvalues --   -0.44977  -0.44875  -0.44577  -0.44500  -0.44124
 Alpha  occ. eigenvalues --   -0.43697  -0.43306  -0.42507  -0.42182  -0.42093
 Alpha  occ. eigenvalues --   -0.41231  -0.40970  -0.40402  -0.40219  -0.39073
 Alpha  occ. eigenvalues --   -0.37751  -0.37090  -0.35267  -0.34713  -0.33746
 Alpha  occ. eigenvalues --   -0.33603  -0.32858  -0.32455  -0.32029  -0.26861
 Alpha  occ. eigenvalues --   -0.21712
 Alpha virt. eigenvalues --   -0.08401  -0.02222  -0.00541   0.00104   0.01533
 Alpha virt. eigenvalues --    0.02728   0.03122   0.03841   0.04478   0.04993
 Alpha virt. eigenvalues --    0.06220   0.06677   0.07354   0.07490   0.08122

 Mulliken charges:
               1
     1  Mg   0.424147
     2  C   -0.039953
     3  C   -0.092217
     4  C   -0.059707
     5  C   -0.046164
     6  N   -0.278515
     7  C    0.107399
     8  C    0.008441
     9  C   -0.006189
    10  C    0.151107
    11  C   -0.058323
    12  C   -0.026685
    13  C    0.003439
    14  C    0.463124
    15  O   -0.503742
    16  O   -0.256885
    17  N   -0.322864
    18  C    0.127926
    19  C    0.020671
    20  C   -0.050218
    21  C    0.162001
    22  C   -0.043305
    23  C    0.323055
    24  O   -0.522216
    25  C   -0.035767
    26  N   -0.254103
    27  C    0.155314
    28  C    0.007557
    29  C   -0.011778
    30  C    0.075573
    31  C   -0.053100
    32  C   -0.028263
    33  C   -0.063858
    34  N   -0.327758
    35  C    0.048870
    36  C    0.037109
    37  C   -0.041494
    38  C    0.105429
    39  C   -0.037831
    40  C    0.326773
    41  O   -0.550620
    42  C    0.059112
    43  C    0.492878
    44  O   -0.506677
    45  O   -0.291059
    46  C    0.073935
    47  C    0.106364
    48  C   -0.090592
    49  C   -0.009913
    50  C   -0.043998
    51  C   -0.016068
    52  C   -0.034235
    53  C   -0.039437
    54  C   -0.026805
    55  C   -0.068162
    56  C   -0.024109
    57  C   -0.037549
    58  C   -0.054843
    59  C   -0.022267
    60  C   -0.060218
    61  C   -0.036964
    62  C   -0.044789
    63  C   -0.030516
    64  C   -0.012349
    65  C   -0.060688
    66  C   -0.062298
    67  H    0.024545
    68  H    0.040041
    69  H    0.028687
    70  H    0.043834
    71  H    0.022243
    72  H    0.027535
    73  H    0.019021
    74  H    0.025260
    75  H    0.021265
    76  H    0.030399
    77  H    0.041805
    78  H    0.049665
    79  H    0.041368
    80  H    0.025234
    81  H    0.030606
    82  H    0.042817
    83  H    0.042821
    84  H    0.042328
    85  H    0.039830
    86  H    0.036064
    87  H    0.025217
    88  H    0.022902
    89  H    0.022163
    90  H    0.021783
    91  H    0.026385
    92  H    0.030410
    93  H    0.004527
    94  H    0.031133
    95  H    0.030844
    96  H    0.025922
    97  H    0.041457
    98  H    0.050372
    99  H    0.040159
   100  H    0.046292
   101  H    0.040303
   102  H    0.042198
   103  H    0.061908
   104  H    0.033533
   105  H    0.029523
   106  H    0.021920
   107  H    0.030812
   108  H    0.011632
   109  H    0.017369
   110  H    0.014595
   111  H    0.021838
   112  H    0.019111
   113  H    0.017304
   114  H    0.012459
   115  H    0.020602
   116  H    0.012609
   117  H    0.026946
   118  H    0.025261
   119  H    0.032766
   120  H    0.028829
   121  H    0.011499
   122  H    0.015788
   123  H    0.012704
   124  H    0.027823
   125  H    0.024874
   126  H    0.024068
   127  H    0.012268
   128  H    0.020280
   129  H    0.023566
   130  H    0.041243
   131  H    0.012399
   132  H    0.014096
   133  H    0.014736
   134  H    0.017581
   135  H    0.011380
   136  H    0.025315
   137  H    0.026106
   138  H    0.011754
   139  H    0.022411
   140  H    0.018525
 Sum of Mulliken charges =  -0.00000

 Dipole moment (field-independent basis, Debye):
    X=              7.5616    Y=              7.9491    Z=             -3.9107  Tot=             11.6473
 N-N= 4.364437922958D+03 E-N= 0.000000000000D+00  KE=-9.402952077635D+03
 Leave Link  601 at Fri Apr 29 13:54:22 2022, MaxMem=  6710886400 cpu:               1.5 elap:               0.1
 (Enter /sw/apps/gaussian-16.0/g16/l9999.exe)
 1\1\GINC-BP1-COMPUTE150\SP\RZINDO CIS\STO-3G\C55H74Mg1N4O6\OF15641\29-
 Apr-2022\0\\#p ZINDO=(nstates=5)\\step_301_chromophore_27 ZINDO\\0,1\M
 g,0,-5.394,24.699,26.546\C,0,-3.712,26.462,29.261\C,0,-6.22,22.368,28.
 925\C,0,-6.809,22.859,24.192\C,0,-3.984,26.907,24.354\N,0,-5.159,24.55
 7,28.82\C,0,-4.497,25.358,29.747\C,0,-4.665,24.95,31.195\C,0,-5.339,23
 .571,30.986\C,0,-5.681,23.517,29.452\C,0,-4.495,22.282,31.498\C,0,-5.3
 81,26.067,32.039\C,0,-6.709,25.849,32.817\C,0,-6.648,25.287,34.287\O,0

 Normal termination of Gaussian 16 at Fri Apr 29 13:54:22 2022.
