 Gaussian 16, Revision A.03,
 Gaussian 16:  ES64L-G16RevA.03 25-Dec-2016

 ------------------------------
 #p blyp/Def2SVP td=(nstates=5)
 ------------------------------

 -------------------------------------------------
 step_351_chromophore_5 TDDFT with blyp functional
 -------------------------------------------------
 Symbolic Z-matrix:
 Charge =  0 Multiplicity = 1

                         Standard orientation:
 ---------------------------------------------------------------------
 Center     Atomic      Atomic             Coordinates (Angstroms)
 Number     Number       Type             X           Y           Z
 ---------------------------------------------------------------------
      1         12           0        5.178158    0.427281   -0.379363
      2          6           0        3.538345   -2.694404   -0.362406
      3          6           0        3.046859    1.355963   -2.972591
      4          6           0        6.255550    3.553720    0.072874
      5          6           0        6.797205   -0.624881    2.533447
      6          7           0        3.297965   -0.499595   -1.353674
      7          6           0        2.895705   -1.768066   -1.194174
      8          6           0        1.735573   -2.038709   -2.228576
      9          6           0        1.785462   -0.829846   -3.237744
     10          6           0        2.766905    0.071187   -2.512264
     11          6           0        2.262477   -1.244466   -4.642559
     12          6           0        0.402176   -2.166060   -1.410524
     13          6           0       -0.608778   -3.181879   -1.799108
     14          6           0       -2.122569   -2.757269   -1.725115
     15          8           0       -2.885258   -2.857816   -2.695584
     16          8           0       -2.502262   -2.234879   -0.534656
     17          7           0        4.782717    2.225114   -1.357204
     18          6           0        3.881316    2.388494   -2.410044
     19          6           0        4.066518    3.746859   -2.895264
     20          6           0        4.991562    4.404657   -2.060778
     21          6           0        5.424900    3.397169   -1.079284
     22          6           0        3.213378    4.298190   -3.988112
     23          6           0        5.412666    5.813324   -2.268312
     24          8           0        4.909627    6.494284   -3.190891
     25          6           0        6.416635    6.363093   -1.479539
     26          7           0        6.376698    1.421256    1.117991
     27          6           0        6.724728    2.668824    1.058202
     28          6           0        7.645385    2.964190    2.243382
     29          6           0        8.082471    1.547200    2.790611
     30          6           0        6.961187    0.708399    2.108670
     31          6           0        8.763554    3.941023    2.018624
     32          6           0        8.122970    1.490152    4.367231
     33          6           0        9.513197    0.976936    4.885082
     34          7           0        5.214637   -1.327169    0.860642
     35          6           0        5.989002   -1.607595    1.952597
     36          6           0        5.663514   -2.853316    2.452109
     37          6           0        4.726390   -3.400814    1.566742
     38          6           0        4.489053   -2.368748    0.614540
     39          6           0        6.288458   -3.572810    3.612250
     40          6           0        3.919399   -4.580550    1.180989
     41          8           0        3.760941   -5.640422    1.745178
     42          6           0        3.090103   -4.164063   -0.071437
     43          6           0        3.358085   -5.103116   -1.132180
     44          8           0        2.502832   -5.857447   -1.582486
     45          8           0        4.580262   -4.918118   -1.618636
     46          6           0        4.926215   -5.648186   -2.844327
     47          6           0       -3.884485   -1.764714   -0.437244
     48          6           0       -3.794831   -0.567636    0.479603
     49          6           0       -4.466180   -0.264865    1.571064
     50          6           0       -5.021684   -1.359928    2.504770
     51          6           0       -4.423921    1.142996    2.308551
     52          6           0       -4.960351    2.462664    1.629723
     53          6           0       -6.176528    3.078893    2.217133
     54          6           0       -7.395446    2.817205    1.261832
     55          6           0       -8.372162    3.990653    1.423326
     56          6           0       -8.013977    1.436063    1.645085
     57          6           0       -8.258081    0.469341    0.418316
     58          6           0       -9.191548   -0.752867    0.822845
     59          6           0      -10.624218   -0.781655    0.148045
     60          6           0      -10.598284   -1.809823   -0.978438
     61          6           0      -11.680547   -1.125168    1.255983
     62          6           0      -12.654528    0.045115    1.519715
     63          6           0      -13.777819    0.065117    0.452713
     64          6           0      -14.076235    1.445935   -0.145024
     65          6           0      -15.491294    2.015061    0.346549
     66          6           0      -13.992458    1.404547   -1.675373
     67          1           0        2.432753    1.697469   -3.808329
     68          1           0        6.512387    4.577847    0.354391
     69          1           0        7.339414   -1.017893    3.396588
     70          1           0        1.961458   -2.975496   -2.738139
     71          1           0        0.775206   -0.432027   -3.340780
     72          1           0        3.275829   -0.843431   -4.663112
     73          1           0        1.709206   -0.578727   -5.305770
     74          1           0        2.327106   -2.298508   -4.914714
     75          1           0       -0.134106   -1.229994   -1.568430
     76          1           0        0.578030   -2.123205   -0.335950
     77          1           0       -0.434566   -4.081330   -1.209206
     78          1           0       -0.393626   -3.434468   -2.837237
     79          1           0        2.217754    4.515051   -3.601402
     80          1           0        3.032856    3.486976   -4.693885
     81          1           0        3.689241    5.097025   -4.556733
     82          1           0        7.131387    5.543998   -1.394208
     83          1           0        6.021705    6.558477   -0.483081
     84          1           0        6.832719    7.256149   -1.944924
     85          1           0        7.005411    3.352142    3.036740
     86          1           0        9.069061    1.353425    2.369910
     87          1           0        8.771893    4.442095    1.050808
     88          1           0        9.681562    3.352696    2.019675
     89          1           0        8.707979    4.734985    2.763249
     90          1           0        7.254789    0.951060    4.746088
     91          1           0        7.998103    2.507678    4.736828
     92          1           0       10.074389    1.638572    5.544869
     93          1           0       10.202512    0.657029    4.103699
     94          1           0        9.418512    0.140967    5.578031
     95          1           0        5.921477   -3.250759    4.587341
     96          1           0        7.343678   -3.309369    3.534635
     97          1           0        6.211238   -4.658123    3.547074
     98          1           0        2.027164   -4.119182    0.163438
     99          1           0        5.846766   -5.324788   -3.330843
    100          1           0        4.140431   -5.457866   -3.573841
    101          1           0        4.919195   -6.710278   -2.597196
    102          1           0       -4.507146   -2.535904    0.016155
    103          1           0       -4.371722   -1.526786   -1.382871
    104          1           0       -3.411692    0.310736   -0.040334
    105          1           0       -6.049185   -1.520539    2.178684
    106          1           0       -4.902027   -1.180214    3.573199
    107          1           0       -4.711591   -2.399020    2.393701
    108          1           0       -3.363001    1.273086    2.526066
    109          1           0       -4.898241    0.941450    3.268437
    110          1           0       -5.157606    2.318440    0.567129
    111          1           0       -4.200401    3.242781    1.650816
    112          1           0       -5.981712    4.144812    2.329523
    113          1           0       -6.403842    2.737284    3.226534
    114          1           0       -7.159043    2.888680    0.199880
    115          1           0       -8.687069    4.429399    0.476910
    116          1           0       -8.080046    4.700363    2.197456
    117          1           0       -9.286159    3.550599    1.821195
    118          1           0       -8.945747    1.569910    2.194119
    119          1           0       -7.347507    0.958352    2.362605
    120          1           0       -7.318338   -0.042163    0.210468
    121          1           0       -8.624803    0.958318   -0.483952
    122          1           0       -9.031146   -0.827965    1.898465
    123          1           0       -8.671449   -1.663922    0.528896
    124          1           0      -10.960518    0.097878   -0.400862
    125          1           0       -9.744384   -1.508810   -1.585707
    126          1           0      -11.585320   -1.845390   -1.439551
    127          1           0      -10.312399   -2.793735   -0.608227
    128          1           0      -11.297989   -1.349931    2.251640
    129          1           0      -12.363589   -1.933881    0.998335
    130          1           0      -12.078876    0.971082    1.508858
    131          1           0      -13.123953    0.081349    2.502226
    132          1           0      -14.653844   -0.158675    1.060588
    133          1           0      -13.682518   -0.750073   -0.265169
    134          1           0      -13.269381    2.132592    0.111970
    135          1           0      -15.438262    3.090927    0.514791
    136          1           0      -15.990099    1.475196    1.152189
    137          1           0      -16.145723    1.972295   -0.524165
    138          1           0      -13.296780    2.147137   -2.065871
    139          1           0      -14.965999    1.573318   -2.137477
    140          1           0      -13.647069    0.514167   -2.200653
 ---------------------------------------------------------------------

 SCF Done:  E(RB-LYP) =  -3007.33653539     A.U. after   21 cycles

 Excitation energies and oscillator strengths:

 Excited State   1:      Singlet-A      1.6499 eV  751.44 nm  f=0.0005  <S**2>=0.000
     244 -> 247        0.68667
     245 -> 247       -0.16671
 This state for optimization and/or second-order correction.
 Total Energy, E(TD-HF/TD-DFT) =  -3007.27590106
 Copying the excited state density for this state as the 1-particle RhoCI density.

 Excited State   2:      Singlet-A      1.8454 eV  671.86 nm  f=0.1984  <S**2>=0.000
     243 -> 247       -0.27271
     245 -> 247       -0.23908
     245 -> 248        0.16536
     246 -> 247        0.58360
     246 <- 247       -0.11783

 Excited State   3:      Singlet-A      1.9001 eV  652.52 nm  f=0.1253  <S**2>=0.000
     243 -> 247        0.45718
     244 -> 247        0.10014
     245 -> 247        0.36376
     245 -> 248        0.10859
     246 -> 247        0.35764

 Excited State   4:      Singlet-A      2.0726 eV  598.20 nm  f=0.0578  <S**2>=0.000
     243 -> 247       -0.45650
     244 -> 247        0.10635
     245 -> 247        0.46454
     246 -> 248       -0.21234

 Excited State   5:      Singlet-A      2.2202 eV  558.44 nm  f=0.0027  <S**2>=0.000
     242 -> 247        0.70102

 The electronic state is 1-A.
 Alpha  occ. eigenvalues --  -46.28707 -18.82985 -18.82470 -18.76197 -18.76189
 Alpha  occ. eigenvalues --  -18.76122 -18.74510 -14.03667 -14.03520 -14.01675
 Alpha  occ. eigenvalues --  -14.00936 -10.04001 -10.03613 -10.00116  -9.98779
 Alpha  occ. eigenvalues --   -9.98651  -9.98048  -9.97042  -9.96981  -9.96947
 Alpha  occ. eigenvalues --   -9.96851  -9.96814  -9.96084  -9.94863  -9.94385
 Alpha  occ. eigenvalues --   -9.94329  -9.94298  -9.94260  -9.93907  -9.93878
 Alpha  occ. eigenvalues --   -9.93741  -9.93664  -9.93617  -9.93555  -9.93489
 Alpha  occ. eigenvalues --   -9.93395  -9.93300  -9.93235  -9.93067  -9.92692
 Alpha  occ. eigenvalues --   -9.92646  -9.92610  -9.92573  -9.92510  -9.92490
 Alpha  occ. eigenvalues --   -9.92344  -9.92318  -9.92133  -9.92019  -9.91678
 Alpha  occ. eigenvalues --   -9.91639  -9.91443  -9.91438  -9.91332  -9.91280
 Alpha  occ. eigenvalues --   -9.91252  -9.91239  -9.91132  -9.90969  -9.90942
 Alpha  occ. eigenvalues --   -9.90680  -9.90563  -9.90439  -9.90332  -9.90244
 Alpha  occ. eigenvalues --   -9.90181  -2.93133  -1.73549  -1.73023  -1.72844
 Alpha  occ. eigenvalues --   -0.99331  -0.97977  -0.92289  -0.89874  -0.89830
 Alpha  occ. eigenvalues --   -0.88940  -0.88394  -0.87793  -0.85939  -0.85007
 Alpha  occ. eigenvalues --   -0.75690  -0.73389  -0.72918  -0.72789  -0.72438
 Alpha  occ. eigenvalues --   -0.72226  -0.71886  -0.71473  -0.71049  -0.70497
 Alpha  occ. eigenvalues --   -0.70158  -0.69684  -0.68326  -0.68126  -0.67720
 Alpha  occ. eigenvalues --   -0.67110  -0.66418  -0.65863  -0.65450  -0.64839
 Alpha  occ. eigenvalues --   -0.64196  -0.62784  -0.62297  -0.62000  -0.61275
 Alpha  occ. eigenvalues --   -0.60448  -0.60339  -0.59776  -0.59102  -0.58657
 Alpha  occ. eigenvalues --   -0.58441  -0.58175  -0.57605  -0.55687  -0.55190
 Alpha  occ. eigenvalues --   -0.54087  -0.53445  -0.52861  -0.52316  -0.52169
 Alpha  occ. eigenvalues --   -0.51697  -0.51402  -0.51124  -0.50740  -0.50229
 Alpha  occ. eigenvalues --   -0.50167  -0.49885  -0.49475  -0.49145  -0.47014
 Alpha  occ. eigenvalues --   -0.46374  -0.46325  -0.46180  -0.45843  -0.45006
 Alpha  occ. eigenvalues --   -0.44259  -0.43789  -0.43648  -0.43511  -0.42679
 Alpha  occ. eigenvalues --   -0.42398  -0.42331  -0.41577  -0.41314  -0.41158
 Alpha  occ. eigenvalues --   -0.41116  -0.40698  -0.40453  -0.40386  -0.40081
 Alpha  occ. eigenvalues --   -0.39776  -0.39624  -0.39543  -0.39329  -0.39256
 Alpha  occ. eigenvalues --   -0.38940  -0.38865  -0.38747  -0.38639  -0.38435
 Alpha  occ. eigenvalues --   -0.38145  -0.37963  -0.37955  -0.37807  -0.37479
 Alpha  occ. eigenvalues --   -0.37406  -0.37340  -0.37184  -0.36929  -0.36792
 Alpha  occ. eigenvalues --   -0.36667  -0.36351  -0.35971  -0.35614  -0.35563
 Alpha  occ. eigenvalues --   -0.35186  -0.35094  -0.34945  -0.34729  -0.34599
 Alpha  occ. eigenvalues --   -0.34460  -0.34387  -0.34093  -0.34025  -0.33949
 Alpha  occ. eigenvalues --   -0.33871  -0.33635  -0.33568  -0.33487  -0.33138
 Alpha  occ. eigenvalues --   -0.33027  -0.32705  -0.32647  -0.32289  -0.32088
 Alpha  occ. eigenvalues --   -0.31944  -0.31818  -0.31656  -0.31600  -0.31496
 Alpha  occ. eigenvalues --   -0.31296  -0.31194  -0.30992  -0.30561  -0.30390
 Alpha  occ. eigenvalues --   -0.30323  -0.30014  -0.29947  -0.29816  -0.29720
 Alpha  occ. eigenvalues --   -0.29600  -0.29520  -0.29415  -0.29217  -0.29045
 Alpha  occ. eigenvalues --   -0.29027  -0.28601  -0.28442  -0.28218  -0.27802
 Alpha  occ. eigenvalues --   -0.27645  -0.27521  -0.27049  -0.26814  -0.26761
 Alpha  occ. eigenvalues --   -0.26392  -0.25767  -0.25693  -0.25527  -0.25400
 Alpha  occ. eigenvalues --   -0.24933  -0.24553  -0.24398  -0.23924  -0.23544
 Alpha  occ. eigenvalues --   -0.23535  -0.22541  -0.21923  -0.21520  -0.21180
 Alpha  occ. eigenvalues --   -0.20619  -0.20166  -0.19069  -0.18041  -0.17621
 Alpha  occ. eigenvalues --   -0.16534
 Alpha virt. eigenvalues --   -0.12031  -0.07357  -0.06097  -0.04801  -0.03951
 Alpha virt. eigenvalues --   -0.02845  -0.02423  -0.02143  -0.01615  -0.00077
 Alpha virt. eigenvalues --    0.01079   0.01637   0.01859   0.02375   0.02782

 Mulliken charges:
               1
     1  Mg   0.685655
     2  C   -0.022787
     3  C   -0.033832
     4  C   -0.066157
     5  C   -0.084076
     6  N   -0.188249
     7  C   -0.087063
     8  C   -0.004492
     9  C    0.005462
    10  C    0.015988
    11  C    0.138281
    12  C    0.097335
    13  C    0.170228
    14  C    0.061899
    15  O   -0.208063
    16  O   -0.252287
    17  N   -0.305945
    18  C    0.108915
    19  C   -0.141373
    20  C    0.045140
    21  C    0.131227
    22  C    0.189427
    23  C   -0.111887
    24  O   -0.195552
    25  C    0.183182
    26  N   -0.168317
    27  C   -0.039174
    28  C    0.027049
    29  C   -0.034891
    30  C    0.059314
    31  C    0.153280
    32  C    0.123667
    33  C    0.045917
    34  N   -0.186344
    35  C    0.089779
    36  C   -0.191355
    37  C    0.089399
    38  C    0.037108
    39  C    0.170272
    40  C   -0.055713
    41  O   -0.111598
    42  C    0.091866
    43  C    0.089849
    44  O   -0.186377
    45  O   -0.253276
    46  C    0.229762
    47  C    0.308751
    48  C   -0.060141
    49  C   -0.137537
    50  C    0.092892
    51  C    0.123610
    52  C    0.122935
    53  C    0.082940
    54  C   -0.100184
    55  C    0.130788
    56  C    0.106831
    57  C    0.048049
    58  C    0.080535
    59  C   -0.017178
    60  C    0.095072
    61  C    0.120679
    62  C    0.016491
    63  C    0.110589
    64  C   -0.070369
    65  C    0.097849
    66  C    0.074966
    67  H   -0.058341
    68  H   -0.069742
    69  H   -0.061221
    70  H   -0.018654
    71  H   -0.012811
    72  H   -0.023173
    73  H   -0.004329
    74  H    0.012604
    75  H   -0.036303
    76  H   -0.009566
    77  H    0.013449
    78  H   -0.017717
    79  H    0.005018
    80  H   -0.029460
    81  H    0.015754
    82  H    0.003059
    83  H    0.020812
    84  H   -0.003291
    85  H   -0.025012
    86  H   -0.013156
    87  H   -0.013258
    88  H   -0.019504
    89  H   -0.008485
    90  H   -0.012170
    91  H   -0.020550
    92  H   -0.013334
    93  H   -0.004770
    94  H   -0.016304
    95  H    0.002249
    96  H   -0.007010
    97  H    0.007215
    98  H   -0.000721
    99  H    0.019526
   100  H    0.005580
   101  H    0.023162
   102  H   -0.018132
   103  H    0.016499
   104  H   -0.039626
   105  H   -0.004406
   106  H    0.005987
   107  H   -0.015417
   108  H   -0.007423
   109  H   -0.037559
   110  H   -0.027543
   111  H   -0.040189
   112  H   -0.043338
   113  H   -0.030852
   114  H   -0.030323
   115  H   -0.015101
   116  H   -0.018017
   117  H   -0.046235
   118  H   -0.025165
   119  H   -0.032419
   120  H   -0.026510
   121  H   -0.021922
   122  H   -0.036771
   123  H   -0.048801
   124  H   -0.024244
   125  H   -0.017797
   126  H   -0.005173
   127  H   -0.020235
   128  H   -0.037829
   129  H   -0.041091
   130  H   -0.032332
   131  H   -0.040228
   132  H   -0.045769
   133  H   -0.023427
   134  H   -0.025557
   135  H   -0.015261
   136  H   -0.001416
   137  H   -0.026592
   138  H   -0.021690
   139  H   -0.024362
   140  H   -0.022036
 Sum of Mulliken charges =  -0.00000

 Dipole moment (field-independent basis, Debye):
    X=              4.1811    Y=              2.7749    Z=              2.5197  Tot=              5.6152
 Quadrupole moment (field-independent basis, Debye-Ang):
   XX=           -352.3720   YY=           -458.2632   ZZ=           -398.6263
   XY=             -4.7616   XZ=              1.5207   YZ=             26.6267

 Normal termination of Gaussian 16 at Fri Apr 29 16:12:22 2022.
