 Gaussian 16, Revision A.03,
 Gaussian 16:  ES64L-G16RevA.03 25-Dec-2016

 -----------------------------------
 #p cam-b3lyp/Def2SVP td=(nstates=5)
 -----------------------------------

 ------------------------------------------------------
 step_351_chromophore_5 TDDFT with cam-b3lyp functional
 ------------------------------------------------------
 Symbolic Z-matrix:
 Charge =  0 Multiplicity = 1

                         Standard orientation:
 ---------------------------------------------------------------------
 Center     Atomic      Atomic             Coordinates (Angstroms)
 Number     Number       Type             X           Y           Z
 ---------------------------------------------------------------------
      1         12           0        5.178158    0.427281   -0.379363
      2          6           0        3.538345   -2.694404   -0.362406
      3          6           0        3.046859    1.355963   -2.972591
      4          6           0        6.255550    3.553720    0.072874
      5          6           0        6.797205   -0.624881    2.533447
      6          7           0        3.297965   -0.499595   -1.353674
      7          6           0        2.895705   -1.768066   -1.194174
      8          6           0        1.735573   -2.038709   -2.228576
      9          6           0        1.785462   -0.829846   -3.237744
     10          6           0        2.766905    0.071187   -2.512264
     11          6           0        2.262477   -1.244466   -4.642559
     12          6           0        0.402176   -2.166060   -1.410524
     13          6           0       -0.608778   -3.181879   -1.799108
     14          6           0       -2.122569   -2.757269   -1.725115
     15          8           0       -2.885258   -2.857816   -2.695584
     16          8           0       -2.502262   -2.234879   -0.534656
     17          7           0        4.782717    2.225114   -1.357204
     18          6           0        3.881316    2.388494   -2.410044
     19          6           0        4.066518    3.746859   -2.895264
     20          6           0        4.991562    4.404657   -2.060778
     21          6           0        5.424900    3.397169   -1.079284
     22          6           0        3.213378    4.298190   -3.988112
     23          6           0        5.412666    5.813324   -2.268312
     24          8           0        4.909627    6.494284   -3.190891
     25          6           0        6.416635    6.363093   -1.479539
     26          7           0        6.376698    1.421256    1.117991
     27          6           0        6.724728    2.668824    1.058202
     28          6           0        7.645385    2.964190    2.243382
     29          6           0        8.082471    1.547200    2.790611
     30          6           0        6.961187    0.708399    2.108670
     31          6           0        8.763554    3.941023    2.018624
     32          6           0        8.122970    1.490152    4.367231
     33          6           0        9.513197    0.976936    4.885082
     34          7           0        5.214637   -1.327169    0.860642
     35          6           0        5.989002   -1.607595    1.952597
     36          6           0        5.663514   -2.853316    2.452109
     37          6           0        4.726390   -3.400814    1.566742
     38          6           0        4.489053   -2.368748    0.614540
     39          6           0        6.288458   -3.572810    3.612250
     40          6           0        3.919399   -4.580550    1.180989
     41          8           0        3.760941   -5.640422    1.745178
     42          6           0        3.090103   -4.164063   -0.071437
     43          6           0        3.358085   -5.103116   -1.132180
     44          8           0        2.502832   -5.857447   -1.582486
     45          8           0        4.580262   -4.918118   -1.618636
     46          6           0        4.926215   -5.648186   -2.844327
     47          6           0       -3.884485   -1.764714   -0.437244
     48          6           0       -3.794831   -0.567636    0.479603
     49          6           0       -4.466180   -0.264865    1.571064
     50          6           0       -5.021684   -1.359928    2.504770
     51          6           0       -4.423921    1.142996    2.308551
     52          6           0       -4.960351    2.462664    1.629723
     53          6           0       -6.176528    3.078893    2.217133
     54          6           0       -7.395446    2.817205    1.261832
     55          6           0       -8.372162    3.990653    1.423326
     56          6           0       -8.013977    1.436063    1.645085
     57          6           0       -8.258081    0.469341    0.418316
     58          6           0       -9.191548   -0.752867    0.822845
     59          6           0      -10.624218   -0.781655    0.148045
     60          6           0      -10.598284   -1.809823   -0.978438
     61          6           0      -11.680547   -1.125168    1.255983
     62          6           0      -12.654528    0.045115    1.519715
     63          6           0      -13.777819    0.065117    0.452713
     64          6           0      -14.076235    1.445935   -0.145024
     65          6           0      -15.491294    2.015061    0.346549
     66          6           0      -13.992458    1.404547   -1.675373
     67          1           0        2.432753    1.697469   -3.808329
     68          1           0        6.512387    4.577847    0.354391
     69          1           0        7.339414   -1.017893    3.396588
     70          1           0        1.961458   -2.975496   -2.738139
     71          1           0        0.775206   -0.432027   -3.340780
     72          1           0        3.275829   -0.843431   -4.663112
     73          1           0        1.709206   -0.578727   -5.305770
     74          1           0        2.327106   -2.298508   -4.914714
     75          1           0       -0.134106   -1.229994   -1.568430
     76          1           0        0.578030   -2.123205   -0.335950
     77          1           0       -0.434566   -4.081330   -1.209206
     78          1           0       -0.393626   -3.434468   -2.837237
     79          1           0        2.217754    4.515051   -3.601402
     80          1           0        3.032856    3.486976   -4.693885
     81          1           0        3.689241    5.097025   -4.556733
     82          1           0        7.131387    5.543998   -1.394208
     83          1           0        6.021705    6.558477   -0.483081
     84          1           0        6.832719    7.256149   -1.944924
     85          1           0        7.005411    3.352142    3.036740
     86          1           0        9.069061    1.353425    2.369910
     87          1           0        8.771893    4.442095    1.050808
     88          1           0        9.681562    3.352696    2.019675
     89          1           0        8.707979    4.734985    2.763249
     90          1           0        7.254789    0.951060    4.746088
     91          1           0        7.998103    2.507678    4.736828
     92          1           0       10.074389    1.638572    5.544869
     93          1           0       10.202512    0.657029    4.103699
     94          1           0        9.418512    0.140967    5.578031
     95          1           0        5.921477   -3.250759    4.587341
     96          1           0        7.343678   -3.309369    3.534635
     97          1           0        6.211238   -4.658123    3.547074
     98          1           0        2.027164   -4.119182    0.163438
     99          1           0        5.846766   -5.324788   -3.330843
    100          1           0        4.140431   -5.457866   -3.573841
    101          1           0        4.919195   -6.710278   -2.597196
    102          1           0       -4.507146   -2.535904    0.016155
    103          1           0       -4.371722   -1.526786   -1.382871
    104          1           0       -3.411692    0.310736   -0.040334
    105          1           0       -6.049185   -1.520539    2.178684
    106          1           0       -4.902027   -1.180214    3.573199
    107          1           0       -4.711591   -2.399020    2.393701
    108          1           0       -3.363001    1.273086    2.526066
    109          1           0       -4.898241    0.941450    3.268437
    110          1           0       -5.157606    2.318440    0.567129
    111          1           0       -4.200401    3.242781    1.650816
    112          1           0       -5.981712    4.144812    2.329523
    113          1           0       -6.403842    2.737284    3.226534
    114          1           0       -7.159043    2.888680    0.199880
    115          1           0       -8.687069    4.429399    0.476910
    116          1           0       -8.080046    4.700363    2.197456
    117          1           0       -9.286159    3.550599    1.821195
    118          1           0       -8.945747    1.569910    2.194119
    119          1           0       -7.347507    0.958352    2.362605
    120          1           0       -7.318338   -0.042163    0.210468
    121          1           0       -8.624803    0.958318   -0.483952
    122          1           0       -9.031146   -0.827965    1.898465
    123          1           0       -8.671449   -1.663922    0.528896
    124          1           0      -10.960518    0.097878   -0.400862
    125          1           0       -9.744384   -1.508810   -1.585707
    126          1           0      -11.585320   -1.845390   -1.439551
    127          1           0      -10.312399   -2.793735   -0.608227
    128          1           0      -11.297989   -1.349931    2.251640
    129          1           0      -12.363589   -1.933881    0.998335
    130          1           0      -12.078876    0.971082    1.508858
    131          1           0      -13.123953    0.081349    2.502226
    132          1           0      -14.653844   -0.158675    1.060588
    133          1           0      -13.682518   -0.750073   -0.265169
    134          1           0      -13.269381    2.132592    0.111970
    135          1           0      -15.438262    3.090927    0.514791
    136          1           0      -15.990099    1.475196    1.152189
    137          1           0      -16.145723    1.972295   -0.524165
    138          1           0      -13.296780    2.147137   -2.065871
    139          1           0      -14.965999    1.573318   -2.137477
    140          1           0      -13.647069    0.514167   -2.200653
 ---------------------------------------------------------------------

 SCF Done:  E(RCAM-B3LYP) =  -3007.13752549     A.U. after   19 cycles

 Excitation energies and oscillator strengths:

 Excited State   1:      Singlet-A      1.7560 eV  706.07 nm  f=0.3683  <S**2>=0.000
     245 -> 248        0.18617
     246 -> 247        0.68233
     245 <- 248        0.10746
 This state for optimization and/or second-order correction.
 Total Energy, E(TD-HF/TD-DFT) =  -3007.07299454
 Copying the excited state density for this state as the 1-particle RhoCI density.

 Excited State   2:      Singlet-A      2.2120 eV  560.52 nm  f=0.1248  <S**2>=0.000
     245 -> 247        0.64395
     246 -> 248       -0.27629

 Excited State   3:      Singlet-A      3.3372 eV  371.52 nm  f=0.0024  <S**2>=0.000
     244 -> 247        0.66993

 Excited State   4:      Singlet-A      3.4356 eV  360.88 nm  f=0.0236  <S**2>=0.000
     240 -> 247        0.16910
     240 -> 251       -0.10120
     241 -> 247       -0.24832
     241 -> 249        0.15692
     241 -> 251        0.11214
     242 -> 247        0.44631
     243 -> 247       -0.20599
     244 -> 247        0.11094
     246 -> 248        0.21573

 Excited State   5:      Singlet-A      3.4678 eV  357.53 nm  f=0.0200  <S**2>=0.000
     240 -> 247        0.13703
     241 -> 247        0.49025
     241 -> 248       -0.11399
     241 -> 249       -0.19777
     241 -> 250        0.11600
     241 -> 251       -0.17457
     242 -> 247        0.20998
     246 -> 248        0.18828

 The electronic state is 1-A.
 Alpha  occ. eigenvalues --  -46.90424 -19.25925 -19.25295 -19.19344 -19.19189
 Alpha  occ. eigenvalues --  -19.19072 -19.17735 -14.42556 -14.42404 -14.40293
 Alpha  occ. eigenvalues --  -14.39269 -10.39266 -10.38925 -10.35376 -10.33965
 Alpha  occ. eigenvalues --  -10.32659 -10.32102 -10.31646 -10.31499 -10.31420
 Alpha  occ. eigenvalues --  -10.31338 -10.31312 -10.30644 -10.28863 -10.28579
 Alpha  occ. eigenvalues --  -10.28419 -10.28352 -10.28248 -10.28209 -10.28126
 Alpha  occ. eigenvalues --  -10.27947 -10.27825 -10.27825 -10.27701 -10.27620
 Alpha  occ. eigenvalues --  -10.27536 -10.27508 -10.27468 -10.27022 -10.26786
 Alpha  occ. eigenvalues --  -10.26494 -10.26450 -10.26349 -10.26322 -10.26171
 Alpha  occ. eigenvalues --  -10.26163 -10.26048 -10.25766 -10.25729 -10.25626
 Alpha  occ. eigenvalues --  -10.25379 -10.25147 -10.25143 -10.25111 -10.25096
 Alpha  occ. eigenvalues --  -10.25059 -10.25034 -10.25004 -10.24593 -10.24546
 Alpha  occ. eigenvalues --  -10.24253 -10.24215 -10.24077 -10.23913 -10.23874
 Alpha  occ. eigenvalues --  -10.23744  -3.18740  -1.93635  -1.93189  -1.93035
 Alpha  occ. eigenvalues --   -1.17875  -1.16346  -1.10678  -1.08267  -1.07815
 Alpha  occ. eigenvalues --   -1.06742  -1.06141  -1.05473  -1.03647  -1.02669
 Alpha  occ. eigenvalues --   -0.92793  -0.90211  -0.89689  -0.89524  -0.89191
 Alpha  occ. eigenvalues --   -0.88954  -0.88543  -0.88113  -0.87606  -0.87039
 Alpha  occ. eigenvalues --   -0.86965  -0.86175  -0.84640  -0.84335  -0.83962
 Alpha  occ. eigenvalues --   -0.83225  -0.82439  -0.81682  -0.81338  -0.80728
 Alpha  occ. eigenvalues --   -0.79980  -0.78385  -0.77898  -0.77653  -0.76770
 Alpha  occ. eigenvalues --   -0.75774  -0.75659  -0.75103  -0.74366  -0.73853
 Alpha  occ. eigenvalues --   -0.73492  -0.73167  -0.72559  -0.70370  -0.70009
 Alpha  occ. eigenvalues --   -0.68661  -0.67994  -0.67466  -0.66520  -0.66450
 Alpha  occ. eigenvalues --   -0.65656  -0.65606  -0.65260  -0.64909  -0.64002
 Alpha  occ. eigenvalues --   -0.63937  -0.63840  -0.63468  -0.63086  -0.60652
 Alpha  occ. eigenvalues --   -0.59970  -0.59921  -0.59718  -0.59240  -0.58608
 Alpha  occ. eigenvalues --   -0.57775  -0.57169  -0.56908  -0.56886  -0.55805
 Alpha  occ. eigenvalues --   -0.55567  -0.55419  -0.54551  -0.54130  -0.54106
 Alpha  occ. eigenvalues --   -0.53774  -0.53449  -0.53324  -0.53158  -0.53097
 Alpha  occ. eigenvalues --   -0.52511  -0.52342  -0.52181  -0.51938  -0.51795
 Alpha  occ. eigenvalues --   -0.51699  -0.51325  -0.51285  -0.50982  -0.50741
 Alpha  occ. eigenvalues --   -0.50493  -0.50283  -0.50192  -0.50139  -0.49878
 Alpha  occ. eigenvalues --   -0.49811  -0.49558  -0.49488  -0.49296  -0.49161
 Alpha  occ. eigenvalues --   -0.48931  -0.48821  -0.48588  -0.47806  -0.47506
 Alpha  occ. eigenvalues --   -0.47239  -0.47051  -0.46944  -0.46833  -0.46607
 Alpha  occ. eigenvalues --   -0.46361  -0.46285  -0.46191  -0.46003  -0.45808
 Alpha  occ. eigenvalues --   -0.45566  -0.45443  -0.45343  -0.45120  -0.45032
 Alpha  occ. eigenvalues --   -0.44555  -0.44356  -0.44229  -0.43947  -0.43640
 Alpha  occ. eigenvalues --   -0.43458  -0.43340  -0.43130  -0.43102  -0.43066
 Alpha  occ. eigenvalues --   -0.42972  -0.42896  -0.42552  -0.42313  -0.42122
 Alpha  occ. eigenvalues --   -0.41698  -0.41635  -0.41184  -0.41036  -0.40912
 Alpha  occ. eigenvalues --   -0.40879  -0.40705  -0.40656  -0.40616  -0.40413
 Alpha  occ. eigenvalues --   -0.40041  -0.39588  -0.39375  -0.39253  -0.38671
 Alpha  occ. eigenvalues --   -0.38549  -0.38513  -0.37877  -0.37857  -0.37582
 Alpha  occ. eigenvalues --   -0.37427  -0.37135  -0.36527  -0.36439  -0.36229
 Alpha  occ. eigenvalues --   -0.35960  -0.35134  -0.34651  -0.34375  -0.34022
 Alpha  occ. eigenvalues --   -0.33933  -0.33797  -0.33529  -0.31688  -0.31019
 Alpha  occ. eigenvalues --   -0.30693  -0.30394  -0.30288  -0.30062  -0.24415
 Alpha  occ. eigenvalues --   -0.21931
 Alpha virt. eigenvalues --   -0.09215  -0.02286   0.00330   0.01012   0.02283
 Alpha virt. eigenvalues --    0.04715   0.05320   0.05428   0.05870   0.06344
 Alpha virt. eigenvalues --    0.07916   0.07977   0.08412   0.08632   0.08905

 Mulliken charges:
               1
     1  Mg   0.815817
     2  C   -0.038509
     3  C   -0.049698
     4  C   -0.090677
     5  C   -0.085048
     6  N   -0.256411
     7  C   -0.040383
     8  C   -0.053057
     9  C   -0.045137
    10  C    0.030767
    11  C    0.078167
    12  C    0.045133
    13  C    0.102774
    14  C    0.142587
    15  O   -0.252357
    16  O   -0.315522
    17  N   -0.393376
    18  C    0.118929
    19  C   -0.143618
    20  C   -0.030486
    21  C    0.166287
    22  C    0.130088
    23  C   -0.020461
    24  O   -0.238358
    25  C    0.084587
    26  N   -0.246280
    27  C   -0.006102
    28  C   -0.030272
    29  C   -0.083402
    30  C    0.075992
    31  C    0.090749
    32  C    0.060930
    33  C   -0.015109
    34  N   -0.278979
    35  C    0.091131
    36  C   -0.184610
    37  C    0.009219
    38  C    0.073326
    39  C    0.115582
    40  C    0.046216
    41  O   -0.150168
    42  C    0.006354
    43  C    0.180464
    44  O   -0.226022
    45  O   -0.314610
    46  C    0.188241
    47  C    0.272212
    48  C   -0.074265
    49  C   -0.158460
    50  C    0.027071
    51  C    0.068223
    52  C    0.064168
    53  C    0.026277
    54  C   -0.159507
    55  C    0.072380
    56  C    0.060989
    57  C    0.002356
    58  C    0.028247
    59  C   -0.075882
    60  C    0.044220
    61  C    0.061834
    62  C   -0.026673
    63  C    0.050964
    64  C   -0.131803
    65  C    0.041513
    66  C    0.018728
    67  H   -0.022938
    68  H   -0.034342
    69  H   -0.025398
    70  H    0.012009
    71  H    0.022264
    72  H    0.004457
    73  H    0.019980
    74  H    0.036865
    75  H   -0.005300
    76  H    0.022808
    77  H    0.043349
    78  H    0.016578
    79  H    0.033019
    80  H   -0.003909
    81  H    0.048351
    82  H    0.030189
    83  H    0.049514
    84  H    0.034320
    85  H    0.010494
    86  H    0.017825
    87  H    0.011344
    88  H    0.005757
    89  H    0.017156
    90  H    0.018190
    91  H    0.008658
    92  H    0.011623
    93  H    0.017826
    94  H    0.007772
    95  H    0.028605
    96  H    0.015528
    97  H    0.035404
    98  H    0.039944
    99  H    0.043802
   100  H    0.028346
   101  H    0.047283
   102  H    0.009516
   103  H    0.049290
   104  H   -0.010023
   105  H    0.015094
   106  H    0.031100
   107  H    0.012044
   108  H    0.023059
   109  H   -0.008849
   110  H   -0.000206
   111  H   -0.008054
   112  H   -0.011277
   113  H   -0.002239
   114  H    0.002097
   115  H    0.009476
   116  H    0.006733
   117  H   -0.021371
   118  H    0.001256
   119  H   -0.008816
   120  H   -0.002950
   121  H    0.003612
   122  H   -0.008594
   123  H   -0.019339
   124  H    0.003745
   125  H    0.006142
   126  H    0.015772
   127  H    0.003291
   128  H   -0.007277
   129  H   -0.011866
   130  H   -0.008439
   131  H   -0.010012
   132  H   -0.015309
   133  H    0.002160
   134  H    0.005460
   135  H    0.009229
   136  H    0.021068
   137  H   -0.003394
   138  H    0.002435
   139  H   -0.000471
   140  H    0.001253
 Sum of Mulliken charges =  -0.00000

 Dipole moment (field-independent basis, Debye):
    X=              4.4742    Y=              3.2225    Z=              2.3979  Tot=              6.0127
 Quadrupole moment (field-independent basis, Debye-Ang):
   XX=           -348.1748   YY=           -456.9976   ZZ=           -396.7431
   XY=             -2.5801   XZ=              1.3329   YZ=             27.1787

 Normal termination of Gaussian 16 at Fri Apr 29 15:14:45 2022.
