 Gaussian 16, Revision A.03,
 Gaussian 16:  ES64L-G16RevA.03 25-Dec-2016

 ---------------------------------
 #p PBE1PBE/Def2SVP td=(nstates=5)
 ---------------------------------

 ----------------------------------------------------
 step_351_chromophore_5 TDDFT with PBE1PBE functional
 ----------------------------------------------------
 Symbolic Z-matrix:
 Charge =  0 Multiplicity = 1

                         Standard orientation:
 ---------------------------------------------------------------------
 Center     Atomic      Atomic             Coordinates (Angstroms)
 Number     Number       Type             X           Y           Z
 ---------------------------------------------------------------------
      1         12           0        5.178158    0.427281   -0.379363
      2          6           0        3.538345   -2.694404   -0.362406
      3          6           0        3.046859    1.355963   -2.972591
      4          6           0        6.255550    3.553720    0.072874
      5          6           0        6.797205   -0.624881    2.533447
      6          7           0        3.297965   -0.499595   -1.353674
      7          6           0        2.895705   -1.768066   -1.194174
      8          6           0        1.735573   -2.038709   -2.228576
      9          6           0        1.785462   -0.829846   -3.237744
     10          6           0        2.766905    0.071187   -2.512264
     11          6           0        2.262477   -1.244466   -4.642559
     12          6           0        0.402176   -2.166060   -1.410524
     13          6           0       -0.608778   -3.181879   -1.799108
     14          6           0       -2.122569   -2.757269   -1.725115
     15          8           0       -2.885258   -2.857816   -2.695584
     16          8           0       -2.502262   -2.234879   -0.534656
     17          7           0        4.782717    2.225114   -1.357204
     18          6           0        3.881316    2.388494   -2.410044
     19          6           0        4.066518    3.746859   -2.895264
     20          6           0        4.991562    4.404657   -2.060778
     21          6           0        5.424900    3.397169   -1.079284
     22          6           0        3.213378    4.298190   -3.988112
     23          6           0        5.412666    5.813324   -2.268312
     24          8           0        4.909627    6.494284   -3.190891
     25          6           0        6.416635    6.363093   -1.479539
     26          7           0        6.376698    1.421256    1.117991
     27          6           0        6.724728    2.668824    1.058202
     28          6           0        7.645385    2.964190    2.243382
     29          6           0        8.082471    1.547200    2.790611
     30          6           0        6.961187    0.708399    2.108670
     31          6           0        8.763554    3.941023    2.018624
     32          6           0        8.122970    1.490152    4.367231
     33          6           0        9.513197    0.976936    4.885082
     34          7           0        5.214637   -1.327169    0.860642
     35          6           0        5.989002   -1.607595    1.952597
     36          6           0        5.663514   -2.853316    2.452109
     37          6           0        4.726390   -3.400814    1.566742
     38          6           0        4.489053   -2.368748    0.614540
     39          6           0        6.288458   -3.572810    3.612250
     40          6           0        3.919399   -4.580550    1.180989
     41          8           0        3.760941   -5.640422    1.745178
     42          6           0        3.090103   -4.164063   -0.071437
     43          6           0        3.358085   -5.103116   -1.132180
     44          8           0        2.502832   -5.857447   -1.582486
     45          8           0        4.580262   -4.918118   -1.618636
     46          6           0        4.926215   -5.648186   -2.844327
     47          6           0       -3.884485   -1.764714   -0.437244
     48          6           0       -3.794831   -0.567636    0.479603
     49          6           0       -4.466180   -0.264865    1.571064
     50          6           0       -5.021684   -1.359928    2.504770
     51          6           0       -4.423921    1.142996    2.308551
     52          6           0       -4.960351    2.462664    1.629723
     53          6           0       -6.176528    3.078893    2.217133
     54          6           0       -7.395446    2.817205    1.261832
     55          6           0       -8.372162    3.990653    1.423326
     56          6           0       -8.013977    1.436063    1.645085
     57          6           0       -8.258081    0.469341    0.418316
     58          6           0       -9.191548   -0.752867    0.822845
     59          6           0      -10.624218   -0.781655    0.148045
     60          6           0      -10.598284   -1.809823   -0.978438
     61          6           0      -11.680547   -1.125168    1.255983
     62          6           0      -12.654528    0.045115    1.519715
     63          6           0      -13.777819    0.065117    0.452713
     64          6           0      -14.076235    1.445935   -0.145024
     65          6           0      -15.491294    2.015061    0.346549
     66          6           0      -13.992458    1.404547   -1.675373
     67          1           0        2.432753    1.697469   -3.808329
     68          1           0        6.512387    4.577847    0.354391
     69          1           0        7.339414   -1.017893    3.396588
     70          1           0        1.961458   -2.975496   -2.738139
     71          1           0        0.775206   -0.432027   -3.340780
     72          1           0        3.275829   -0.843431   -4.663112
     73          1           0        1.709206   -0.578727   -5.305770
     74          1           0        2.327106   -2.298508   -4.914714
     75          1           0       -0.134106   -1.229994   -1.568430
     76          1           0        0.578030   -2.123205   -0.335950
     77          1           0       -0.434566   -4.081330   -1.209206
     78          1           0       -0.393626   -3.434468   -2.837237
     79          1           0        2.217754    4.515051   -3.601402
     80          1           0        3.032856    3.486976   -4.693885
     81          1           0        3.689241    5.097025   -4.556733
     82          1           0        7.131387    5.543998   -1.394208
     83          1           0        6.021705    6.558477   -0.483081
     84          1           0        6.832719    7.256149   -1.944924
     85          1           0        7.005411    3.352142    3.036740
     86          1           0        9.069061    1.353425    2.369910
     87          1           0        8.771893    4.442095    1.050808
     88          1           0        9.681562    3.352696    2.019675
     89          1           0        8.707979    4.734985    2.763249
     90          1           0        7.254789    0.951060    4.746088
     91          1           0        7.998103    2.507678    4.736828
     92          1           0       10.074389    1.638572    5.544869
     93          1           0       10.202512    0.657029    4.103699
     94          1           0        9.418512    0.140967    5.578031
     95          1           0        5.921477   -3.250759    4.587341
     96          1           0        7.343678   -3.309369    3.534635
     97          1           0        6.211238   -4.658123    3.547074
     98          1           0        2.027164   -4.119182    0.163438
     99          1           0        5.846766   -5.324788   -3.330843
    100          1           0        4.140431   -5.457866   -3.573841
    101          1           0        4.919195   -6.710278   -2.597196
    102          1           0       -4.507146   -2.535904    0.016155
    103          1           0       -4.371722   -1.526786   -1.382871
    104          1           0       -3.411692    0.310736   -0.040334
    105          1           0       -6.049185   -1.520539    2.178684
    106          1           0       -4.902027   -1.180214    3.573199
    107          1           0       -4.711591   -2.399020    2.393701
    108          1           0       -3.363001    1.273086    2.526066
    109          1           0       -4.898241    0.941450    3.268437
    110          1           0       -5.157606    2.318440    0.567129
    111          1           0       -4.200401    3.242781    1.650816
    112          1           0       -5.981712    4.144812    2.329523
    113          1           0       -6.403842    2.737284    3.226534
    114          1           0       -7.159043    2.888680    0.199880
    115          1           0       -8.687069    4.429399    0.476910
    116          1           0       -8.080046    4.700363    2.197456
    117          1           0       -9.286159    3.550599    1.821195
    118          1           0       -8.945747    1.569910    2.194119
    119          1           0       -7.347507    0.958352    2.362605
    120          1           0       -7.318338   -0.042163    0.210468
    121          1           0       -8.624803    0.958318   -0.483952
    122          1           0       -9.031146   -0.827965    1.898465
    123          1           0       -8.671449   -1.663922    0.528896
    124          1           0      -10.960518    0.097878   -0.400862
    125          1           0       -9.744384   -1.508810   -1.585707
    126          1           0      -11.585320   -1.845390   -1.439551
    127          1           0      -10.312399   -2.793735   -0.608227
    128          1           0      -11.297989   -1.349931    2.251640
    129          1           0      -12.363589   -1.933881    0.998335
    130          1           0      -12.078876    0.971082    1.508858
    131          1           0      -13.123953    0.081349    2.502226
    132          1           0      -14.653844   -0.158675    1.060588
    133          1           0      -13.682518   -0.750073   -0.265169
    134          1           0      -13.269381    2.132592    0.111970
    135          1           0      -15.438262    3.090927    0.514791
    136          1           0      -15.990099    1.475196    1.152189
    137          1           0      -16.145723    1.972295   -0.524165
    138          1           0      -13.296780    2.147137   -2.065871
    139          1           0      -14.965999    1.573318   -2.137477
    140          1           0      -13.647069    0.514167   -2.200653
 ---------------------------------------------------------------------

 SCF Done:  E(RPBE1PBE) =  -3005.32650353     A.U. after   15 cycles

 Excitation energies and oscillator strengths:

 Excited State   1:      Singlet-A      1.9116 eV  648.59 nm  f=0.3546  <S**2>=0.000
     245 -> 248        0.18054
     246 -> 247        0.68786
     246 <- 247       -0.10032
 This state for optimization and/or second-order correction.
 Total Energy, E(TD-HF/TD-DFT) =  -3005.25625380
 Copying the excited state density for this state as the 1-particle RhoCI density.

 Excited State   2:      Singlet-A      2.2273 eV  556.65 nm  f=0.1199  <S**2>=0.000
     245 -> 247        0.65368
     246 -> 248       -0.24986

 Excited State   3:      Singlet-A      2.8531 eV  434.56 nm  f=0.0004  <S**2>=0.000
     244 -> 247        0.67489
     244 -> 249        0.13531

 Excited State   4:      Singlet-A      2.9513 eV  420.10 nm  f=0.0007  <S**2>=0.000
     240 -> 247       -0.13026
     241 -> 247       -0.44432
     241 -> 249        0.10129
     242 -> 247        0.45154
     243 -> 247        0.20885

 Excited State   5:      Singlet-A      3.0322 eV  408.90 nm  f=0.0038  <S**2>=0.000
     240 -> 247        0.10709
     241 -> 247        0.47720
     242 -> 247        0.47226
     243 -> 247        0.12963

 The electronic state is 1-A.
 Alpha  occ. eigenvalues --  -46.93778 -19.26529 -19.26002 -19.19621 -19.19453
 Alpha  occ. eigenvalues --  -19.19431 -19.17937 -14.42071 -14.41853 -14.39890
 Alpha  occ. eigenvalues --  -14.38916 -10.36359 -10.35916 -10.32595 -10.30991
 Alpha  occ. eigenvalues --  -10.29848 -10.29496 -10.29303 -10.29196 -10.29144
 Alpha  occ. eigenvalues --  -10.29081 -10.28952 -10.28247 -10.26652 -10.26277
 Alpha  occ. eigenvalues --  -10.26254 -10.26141 -10.26122 -10.26006 -10.25772
 Alpha  occ. eigenvalues --  -10.25619 -10.25605 -10.25456 -10.25392 -10.25250
 Alpha  occ. eigenvalues --  -10.25236 -10.25211 -10.25085 -10.24494 -10.24412
 Alpha  occ. eigenvalues --  -10.24099 -10.24038 -10.23818 -10.23762 -10.23735
 Alpha  occ. eigenvalues --  -10.23642 -10.23632 -10.23412 -10.23186 -10.23105
 Alpha  occ. eigenvalues --  -10.22988 -10.22865 -10.22675 -10.22618 -10.22604
 Alpha  occ. eigenvalues --  -10.22599 -10.22585 -10.22508 -10.22127 -10.22011
 Alpha  occ. eigenvalues --  -10.21781 -10.21630 -10.21608 -10.21438 -10.21308
 Alpha  occ. eigenvalues --  -10.21144  -3.15680  -1.88513  -1.88047  -1.87896
 Alpha  occ. eigenvalues --   -1.12644  -1.11204  -1.05490  -1.02910  -1.02641
 Alpha  occ. eigenvalues --   -1.01643  -1.00843  -1.00188  -0.98230  -0.97262
 Alpha  occ. eigenvalues --   -0.87161  -0.84329  -0.83928  -0.83784  -0.83305
 Alpha  occ. eigenvalues --   -0.83208  -0.82717  -0.82402  -0.81985  -0.81185
 Alpha  occ. eigenvalues --   -0.81140  -0.80421  -0.78855  -0.78637  -0.78111
 Alpha  occ. eigenvalues --   -0.77482  -0.76604  -0.76015  -0.75591  -0.75027
 Alpha  occ. eigenvalues --   -0.74140  -0.72727  -0.72193  -0.71916  -0.71073
 Alpha  occ. eigenvalues --   -0.70091  -0.69855  -0.69193  -0.68497  -0.68031
 Alpha  occ. eigenvalues --   -0.67916  -0.67519  -0.67018  -0.64706  -0.64329
 Alpha  occ. eigenvalues --   -0.63165  -0.62195  -0.61860  -0.60824  -0.60741
 Alpha  occ. eigenvalues --   -0.60241  -0.60029  -0.59785  -0.59114  -0.58506
 Alpha  occ. eigenvalues --   -0.58444  -0.58043  -0.57589  -0.57265  -0.55223
 Alpha  occ. eigenvalues --   -0.54550  -0.54414  -0.54138  -0.53843  -0.53152
 Alpha  occ. eigenvalues --   -0.52249  -0.51611  -0.51426  -0.51346  -0.50370
 Alpha  occ. eigenvalues --   -0.50109  -0.49875  -0.49194  -0.48741  -0.48501
 Alpha  occ. eigenvalues --   -0.48190  -0.48106  -0.47860  -0.47674  -0.47511
 Alpha  occ. eigenvalues --   -0.47088  -0.46904  -0.46719  -0.46487  -0.46374
 Alpha  occ. eigenvalues --   -0.46283  -0.45890  -0.45783  -0.45553  -0.45254
 Alpha  occ. eigenvalues --   -0.45045  -0.44939  -0.44702  -0.44677  -0.44512
 Alpha  occ. eigenvalues --   -0.44346  -0.44097  -0.44082  -0.43940  -0.43770
 Alpha  occ. eigenvalues --   -0.43517  -0.43391  -0.43204  -0.42425  -0.42210
 Alpha  occ. eigenvalues --   -0.41955  -0.41790  -0.41631  -0.41453  -0.41263
 Alpha  occ. eigenvalues --   -0.41076  -0.40985  -0.40800  -0.40727  -0.40530
 Alpha  occ. eigenvalues --   -0.40275  -0.40178  -0.40043  -0.39753  -0.39702
 Alpha  occ. eigenvalues --   -0.39266  -0.39118  -0.38980  -0.38682  -0.38416
 Alpha  occ. eigenvalues --   -0.38309  -0.38090  -0.37972  -0.37871  -0.37795
 Alpha  occ. eigenvalues --   -0.37738  -0.37631  -0.37439  -0.37078  -0.36973
 Alpha  occ. eigenvalues --   -0.36553  -0.36328  -0.35906  -0.35860  -0.35808
 Alpha  occ. eigenvalues --   -0.35713  -0.35531  -0.35468  -0.35392  -0.35231
 Alpha  occ. eigenvalues --   -0.34816  -0.34340  -0.34219  -0.34114  -0.33473
 Alpha  occ. eigenvalues --   -0.33414  -0.33287  -0.32840  -0.32660  -0.32516
 Alpha  occ. eigenvalues --   -0.32437  -0.32093  -0.31498  -0.31311  -0.31171
 Alpha  occ. eigenvalues --   -0.30910  -0.29986  -0.29802  -0.29411  -0.29284
 Alpha  occ. eigenvalues --   -0.28864  -0.28812  -0.28430  -0.27319  -0.26281
 Alpha  occ. eigenvalues --   -0.25788  -0.25668  -0.25540  -0.25222  -0.21378
 Alpha  occ. eigenvalues --   -0.19540
 Alpha virt. eigenvalues --   -0.11668  -0.05753  -0.03819  -0.02226  -0.01700
 Alpha virt. eigenvalues --    0.00242   0.00711   0.00942   0.01355   0.02794
 Alpha virt. eigenvalues --    0.03926   0.04520   0.04712   0.05154   0.05633

 Mulliken charges:
               1
     1  Mg   0.951272
     2  C   -0.026244
     3  C   -0.043780
     4  C   -0.096403
     5  C   -0.070924
     6  N   -0.353204
     7  C    0.036550
     8  C   -0.128337
     9  C   -0.117313
    10  C    0.054460
    11  C    0.021695
    12  C    0.000983
    13  C    0.026822
    14  C    0.206527
    15  O   -0.284849
    16  O   -0.343654
    17  N   -0.506701
    18  C    0.149193
    19  C   -0.169145
    20  C   -0.086741
    21  C    0.205659
    22  C    0.070276
    23  C    0.035731
    24  O   -0.276021
    25  C    0.005242
    26  N   -0.361359
    27  C    0.048934
    28  C   -0.116600
    29  C   -0.158034
    30  C    0.115050
    31  C    0.034221
    32  C   -0.001285
    33  C   -0.083552
    34  N   -0.412856
    35  C    0.112699
    36  C   -0.203897
    37  C   -0.036411
    38  C    0.119222
    39  C    0.061290
    40  C    0.147989
    41  O   -0.196156
    42  C   -0.118811
    43  C    0.279632
    44  O   -0.264894
    45  O   -0.345725
    46  C    0.132633
    47  C    0.228185
    48  C   -0.086558
    49  C   -0.200245
    50  C   -0.038806
    51  C    0.007671
    52  C    0.003402
    53  C   -0.032072
    54  C   -0.248462
    55  C    0.016433
    56  C    0.009579
    57  C   -0.062911
    58  C   -0.022225
    59  C   -0.162479
    60  C   -0.019818
    61  C    0.005707
    62  C   -0.086469
    63  C   -0.005431
    64  C   -0.223790
    65  C   -0.019869
    66  C   -0.036008
    67  H    0.007182
    68  H    0.000654
    69  H    0.006916
    70  H    0.052345
    71  H    0.056890
    72  H    0.034380
    73  H    0.047506
    74  H    0.062217
    75  H    0.029462
    76  H    0.054418
    77  H    0.075180
    78  H    0.049625
    79  H    0.061524
    80  H    0.024141
    81  H    0.074902
    82  H    0.058909
    83  H    0.076287
    84  H    0.061446
    85  H    0.049948
    86  H    0.054822
    87  H    0.038904
    88  H    0.033119
    89  H    0.043951
    90  H    0.049057
    91  H    0.042079
    92  H    0.039096
    93  H    0.044046
    94  H    0.035269
    95  H    0.056690
    96  H    0.042815
    97  H    0.062812
    98  H    0.080170
    99  H    0.065273
   100  H    0.049616
   101  H    0.069001
   102  H    0.036655
   103  H    0.074778
   104  H    0.020804
   105  H    0.045313
   106  H    0.056889
   107  H    0.039194
   108  H    0.056150
   109  H    0.021089
   110  H    0.032153
   111  H    0.025058
   112  H    0.021992
   113  H    0.030046
   114  H    0.038160
   115  H    0.036712
   116  H    0.033273
   117  H    0.006681
   118  H    0.033655
   119  H    0.026855
   120  H    0.034061
   121  H    0.034565
   122  H    0.021707
   123  H    0.012656
   124  H    0.041270
   125  H    0.036158
   126  H    0.043965
   127  H    0.031542
   128  H    0.025032
   129  H    0.021514
   130  H    0.024907
   131  H    0.022039
   132  H    0.019717
   133  H    0.033009
   134  H    0.041920
   135  H    0.037079
   136  H    0.046771
   137  H    0.023814
   138  H    0.029595
   139  H    0.026060
   140  H    0.027486
 Sum of Mulliken charges =  -0.00000

 Dipole moment (field-independent basis, Debye):
    X=              4.4880    Y=              3.1340    Z=              2.5383  Tot=              6.0338
 Quadrupole moment (field-independent basis, Debye-Ang):
   XX=           -344.1685   YY=           -454.4938   ZZ=           -392.7259
   XY=             -2.9558   XZ=              3.1384   YZ=             27.3999

 Normal termination of Gaussian 16 at Fri Apr 29 15:31:17 2022.
