 Gaussian 16, Revision A.03,
 Gaussian 16:  ES64L-G16RevA.03 25-Dec-2016

 --------------------------------
 #p wB97XD/Def2SVP td=(nstates=5)
 --------------------------------

 ---------------------------------------------------
 step_351_chromophore_5 TDDFT with wB97XD functional
 ---------------------------------------------------
 Symbolic Z-matrix:
 Charge =  0 Multiplicity = 1

                         Standard orientation:
 ---------------------------------------------------------------------
 Center     Atomic      Atomic             Coordinates (Angstroms)
 Number     Number       Type             X           Y           Z
 ---------------------------------------------------------------------
      1         12           0        5.178158    0.427281   -0.379363
      2          6           0        3.538345   -2.694404   -0.362406
      3          6           0        3.046859    1.355963   -2.972591
      4          6           0        6.255550    3.553720    0.072874
      5          6           0        6.797205   -0.624881    2.533447
      6          7           0        3.297965   -0.499595   -1.353674
      7          6           0        2.895705   -1.768066   -1.194174
      8          6           0        1.735573   -2.038709   -2.228576
      9          6           0        1.785462   -0.829846   -3.237744
     10          6           0        2.766905    0.071187   -2.512264
     11          6           0        2.262477   -1.244466   -4.642559
     12          6           0        0.402176   -2.166060   -1.410524
     13          6           0       -0.608778   -3.181879   -1.799108
     14          6           0       -2.122569   -2.757269   -1.725115
     15          8           0       -2.885258   -2.857816   -2.695584
     16          8           0       -2.502262   -2.234879   -0.534656
     17          7           0        4.782717    2.225114   -1.357204
     18          6           0        3.881316    2.388494   -2.410044
     19          6           0        4.066518    3.746859   -2.895264
     20          6           0        4.991562    4.404657   -2.060778
     21          6           0        5.424900    3.397169   -1.079284
     22          6           0        3.213378    4.298190   -3.988112
     23          6           0        5.412666    5.813324   -2.268312
     24          8           0        4.909627    6.494284   -3.190891
     25          6           0        6.416635    6.363093   -1.479539
     26          7           0        6.376698    1.421256    1.117991
     27          6           0        6.724728    2.668824    1.058202
     28          6           0        7.645385    2.964190    2.243382
     29          6           0        8.082471    1.547200    2.790611
     30          6           0        6.961187    0.708399    2.108670
     31          6           0        8.763554    3.941023    2.018624
     32          6           0        8.122970    1.490152    4.367231
     33          6           0        9.513197    0.976936    4.885082
     34          7           0        5.214637   -1.327169    0.860642
     35          6           0        5.989002   -1.607595    1.952597
     36          6           0        5.663514   -2.853316    2.452109
     37          6           0        4.726390   -3.400814    1.566742
     38          6           0        4.489053   -2.368748    0.614540
     39          6           0        6.288458   -3.572810    3.612250
     40          6           0        3.919399   -4.580550    1.180989
     41          8           0        3.760941   -5.640422    1.745178
     42          6           0        3.090103   -4.164063   -0.071437
     43          6           0        3.358085   -5.103116   -1.132180
     44          8           0        2.502832   -5.857447   -1.582486
     45          8           0        4.580262   -4.918118   -1.618636
     46          6           0        4.926215   -5.648186   -2.844327
     47          6           0       -3.884485   -1.764714   -0.437244
     48          6           0       -3.794831   -0.567636    0.479603
     49          6           0       -4.466180   -0.264865    1.571064
     50          6           0       -5.021684   -1.359928    2.504770
     51          6           0       -4.423921    1.142996    2.308551
     52          6           0       -4.960351    2.462664    1.629723
     53          6           0       -6.176528    3.078893    2.217133
     54          6           0       -7.395446    2.817205    1.261832
     55          6           0       -8.372162    3.990653    1.423326
     56          6           0       -8.013977    1.436063    1.645085
     57          6           0       -8.258081    0.469341    0.418316
     58          6           0       -9.191548   -0.752867    0.822845
     59          6           0      -10.624218   -0.781655    0.148045
     60          6           0      -10.598284   -1.809823   -0.978438
     61          6           0      -11.680547   -1.125168    1.255983
     62          6           0      -12.654528    0.045115    1.519715
     63          6           0      -13.777819    0.065117    0.452713
     64          6           0      -14.076235    1.445935   -0.145024
     65          6           0      -15.491294    2.015061    0.346549
     66          6           0      -13.992458    1.404547   -1.675373
     67          1           0        2.432753    1.697469   -3.808329
     68          1           0        6.512387    4.577847    0.354391
     69          1           0        7.339414   -1.017893    3.396588
     70          1           0        1.961458   -2.975496   -2.738139
     71          1           0        0.775206   -0.432027   -3.340780
     72          1           0        3.275829   -0.843431   -4.663112
     73          1           0        1.709206   -0.578727   -5.305770
     74          1           0        2.327106   -2.298508   -4.914714
     75          1           0       -0.134106   -1.229994   -1.568430
     76          1           0        0.578030   -2.123205   -0.335950
     77          1           0       -0.434566   -4.081330   -1.209206
     78          1           0       -0.393626   -3.434468   -2.837237
     79          1           0        2.217754    4.515051   -3.601402
     80          1           0        3.032856    3.486976   -4.693885
     81          1           0        3.689241    5.097025   -4.556733
     82          1           0        7.131387    5.543998   -1.394208
     83          1           0        6.021705    6.558477   -0.483081
     84          1           0        6.832719    7.256149   -1.944924
     85          1           0        7.005411    3.352142    3.036740
     86          1           0        9.069061    1.353425    2.369910
     87          1           0        8.771893    4.442095    1.050808
     88          1           0        9.681562    3.352696    2.019675
     89          1           0        8.707979    4.734985    2.763249
     90          1           0        7.254789    0.951060    4.746088
     91          1           0        7.998103    2.507678    4.736828
     92          1           0       10.074389    1.638572    5.544869
     93          1           0       10.202512    0.657029    4.103699
     94          1           0        9.418512    0.140967    5.578031
     95          1           0        5.921477   -3.250759    4.587341
     96          1           0        7.343678   -3.309369    3.534635
     97          1           0        6.211238   -4.658123    3.547074
     98          1           0        2.027164   -4.119182    0.163438
     99          1           0        5.846766   -5.324788   -3.330843
    100          1           0        4.140431   -5.457866   -3.573841
    101          1           0        4.919195   -6.710278   -2.597196
    102          1           0       -4.507146   -2.535904    0.016155
    103          1           0       -4.371722   -1.526786   -1.382871
    104          1           0       -3.411692    0.310736   -0.040334
    105          1           0       -6.049185   -1.520539    2.178684
    106          1           0       -4.902027   -1.180214    3.573199
    107          1           0       -4.711591   -2.399020    2.393701
    108          1           0       -3.363001    1.273086    2.526066
    109          1           0       -4.898241    0.941450    3.268437
    110          1           0       -5.157606    2.318440    0.567129
    111          1           0       -4.200401    3.242781    1.650816
    112          1           0       -5.981712    4.144812    2.329523
    113          1           0       -6.403842    2.737284    3.226534
    114          1           0       -7.159043    2.888680    0.199880
    115          1           0       -8.687069    4.429399    0.476910
    116          1           0       -8.080046    4.700363    2.197456
    117          1           0       -9.286159    3.550599    1.821195
    118          1           0       -8.945747    1.569910    2.194119
    119          1           0       -7.347507    0.958352    2.362605
    120          1           0       -7.318338   -0.042163    0.210468
    121          1           0       -8.624803    0.958318   -0.483952
    122          1           0       -9.031146   -0.827965    1.898465
    123          1           0       -8.671449   -1.663922    0.528896
    124          1           0      -10.960518    0.097878   -0.400862
    125          1           0       -9.744384   -1.508810   -1.585707
    126          1           0      -11.585320   -1.845390   -1.439551
    127          1           0      -10.312399   -2.793735   -0.608227
    128          1           0      -11.297989   -1.349931    2.251640
    129          1           0      -12.363589   -1.933881    0.998335
    130          1           0      -12.078876    0.971082    1.508858
    131          1           0      -13.123953    0.081349    2.502226
    132          1           0      -14.653844   -0.158675    1.060588
    133          1           0      -13.682518   -0.750073   -0.265169
    134          1           0      -13.269381    2.132592    0.111970
    135          1           0      -15.438262    3.090927    0.514791
    136          1           0      -15.990099    1.475196    1.152189
    137          1           0      -16.145723    1.972295   -0.524165
    138          1           0      -13.296780    2.147137   -2.065871
    139          1           0      -14.965999    1.573318   -2.137477
    140          1           0      -13.647069    0.514167   -2.200653
 ---------------------------------------------------------------------

 SCF Done:  E(RwB97XD) =  -3007.83623209     A.U. after   20 cycles

 Excitation energies and oscillator strengths:

 Excited State   1:      Singlet-A      1.6994 eV  729.58 nm  f=0.3673  <S**2>=0.000
     245 -> 248        0.19185
     246 -> 247        0.68039
     245 <- 248        0.11711
 This state for optimization and/or second-order correction.
 Total Energy, E(TD-HF/TD-DFT) =  -3007.77378098
 Copying the excited state density for this state as the 1-particle RhoCI density.

 Excited State   2:      Singlet-A      2.1574 eV  574.70 nm  f=0.1218  <S**2>=0.000
     245 -> 247        0.64190
     246 -> 248       -0.27931

 Excited State   3:      Singlet-A      3.3606 eV  368.94 nm  f=0.0034  <S**2>=0.000
     243 -> 247        0.29317
     244 -> 247        0.59057
     246 -> 248       -0.10130

 Excited State   4:      Singlet-A      3.4575 eV  358.60 nm  f=0.0149  <S**2>=0.000
     241 -> 247       -0.27339
     241 -> 248        0.10607
     241 -> 249       -0.23098
     241 -> 250       -0.10175
     241 -> 251        0.10007
     242 -> 247        0.47133
     244 -> 247        0.14852
     246 -> 248        0.15873

 Excited State   5:      Singlet-A      3.4906 eV  355.19 nm  f=0.0510  <S**2>=0.000
     240 -> 249       -0.10770
     241 -> 247        0.46686
     241 -> 249        0.14032
     241 -> 251       -0.11072
     242 -> 247        0.26241
     242 -> 249       -0.15534
     246 -> 248        0.27551

 The electronic state is 1-A.
 Alpha  occ. eigenvalues --  -46.96771 -19.31117 -19.30537 -19.24377 -19.24143
 Alpha  occ. eigenvalues --  -19.24044 -19.22795 -14.47157 -14.46975 -14.44911
 Alpha  occ. eigenvalues --  -14.43825 -10.43099 -10.42747 -10.39388 -10.37898
 Alpha  occ. eigenvalues --  -10.36372 -10.35987 -10.35712 -10.35590 -10.35439
 Alpha  occ. eigenvalues --  -10.35356 -10.35319 -10.34746 -10.32822 -10.32533
 Alpha  occ. eigenvalues --  -10.32494 -10.32400 -10.32369 -10.32314 -10.32252
 Alpha  occ. eigenvalues --  -10.31977 -10.31897 -10.31854 -10.31717 -10.31712
 Alpha  occ. eigenvalues --  -10.31581 -10.31502 -10.31496 -10.30908 -10.30897
 Alpha  occ. eigenvalues --  -10.30441 -10.30405 -10.30230 -10.30188 -10.30032
 Alpha  occ. eigenvalues --  -10.30028 -10.30005 -10.29685 -10.29604 -10.29475
 Alpha  occ. eigenvalues --  -10.29364 -10.29181 -10.29060 -10.29058 -10.28990
 Alpha  occ. eigenvalues --  -10.28974 -10.28969 -10.28949 -10.28465 -10.28421
 Alpha  occ. eigenvalues --  -10.28135 -10.28075 -10.27961 -10.27789 -10.27718
 Alpha  occ. eigenvalues --  -10.27556  -3.22557  -1.96134  -1.95668  -1.95515
 Alpha  occ. eigenvalues --   -1.20044  -1.18549  -1.12907  -1.10479  -1.10003
 Alpha  occ. eigenvalues --   -1.08949  -1.08150  -1.07499  -1.05659  -1.04737
 Alpha  occ. eigenvalues --   -0.94750  -0.91992  -0.91544  -0.91384  -0.90961
 Alpha  occ. eigenvalues --   -0.90850  -0.90356  -0.90023  -0.89540  -0.88962
 Alpha  occ. eigenvalues --   -0.88801  -0.88086  -0.86550  -0.86252  -0.85784
 Alpha  occ. eigenvalues --   -0.85127  -0.84261  -0.83626  -0.83228  -0.82646
 Alpha  occ. eigenvalues --   -0.81800  -0.80322  -0.79821  -0.79588  -0.78697
 Alpha  occ. eigenvalues --   -0.77694  -0.77511  -0.76885  -0.76176  -0.75681
 Alpha  occ. eigenvalues --   -0.75462  -0.75100  -0.74549  -0.72274  -0.71942
 Alpha  occ. eigenvalues --   -0.70656  -0.69844  -0.69471  -0.68374  -0.68348
 Alpha  occ. eigenvalues --   -0.67665  -0.67556  -0.67265  -0.66751  -0.65944
 Alpha  occ. eigenvalues --   -0.65887  -0.65700  -0.65257  -0.64908  -0.62641
 Alpha  occ. eigenvalues --   -0.61987  -0.61858  -0.61620  -0.61224  -0.60564
 Alpha  occ. eigenvalues --   -0.59723  -0.59080  -0.58841  -0.58802  -0.57745
 Alpha  occ. eigenvalues --   -0.57518  -0.57316  -0.56520  -0.56101  -0.55973
 Alpha  occ. eigenvalues --   -0.55630  -0.55386  -0.55289  -0.55104  -0.55040
 Alpha  occ. eigenvalues --   -0.54473  -0.54279  -0.54092  -0.53837  -0.53691
 Alpha  occ. eigenvalues --   -0.53607  -0.53199  -0.53164  -0.52873  -0.52603
 Alpha  occ. eigenvalues --   -0.52395  -0.52194  -0.52082  -0.52031  -0.51829
 Alpha  occ. eigenvalues --   -0.51729  -0.51427  -0.51414  -0.51253  -0.51045
 Alpha  occ. eigenvalues --   -0.50821  -0.50693  -0.50522  -0.49705  -0.49453
 Alpha  occ. eigenvalues --   -0.49170  -0.48988  -0.48873  -0.48730  -0.48551
 Alpha  occ. eigenvalues --   -0.48274  -0.48214  -0.48051  -0.47919  -0.47754
 Alpha  occ. eigenvalues --   -0.47445  -0.47400  -0.47249  -0.46967  -0.46914
 Alpha  occ. eigenvalues --   -0.46428  -0.46273  -0.46148  -0.45879  -0.45552
 Alpha  occ. eigenvalues --   -0.45390  -0.45262  -0.45030  -0.45017  -0.44967
 Alpha  occ. eigenvalues --   -0.44840  -0.44835  -0.44485  -0.44254  -0.44055
 Alpha  occ. eigenvalues --   -0.43603  -0.43470  -0.43014  -0.42931  -0.42816
 Alpha  occ. eigenvalues --   -0.42792  -0.42644  -0.42538  -0.42489  -0.42370
 Alpha  occ. eigenvalues --   -0.41881  -0.41429  -0.41205  -0.41177  -0.40510
 Alpha  occ. eigenvalues --   -0.40441  -0.40350  -0.39833  -0.39691  -0.39556
 Alpha  occ. eigenvalues --   -0.39428  -0.39172  -0.38383  -0.38369  -0.38147
 Alpha  occ. eigenvalues --   -0.37851  -0.36958  -0.36656  -0.36213  -0.36123
 Alpha  occ. eigenvalues --   -0.35888  -0.35786  -0.35450  -0.33909  -0.33028
 Alpha  occ. eigenvalues --   -0.32655  -0.32495  -0.32300  -0.32229  -0.26336
 Alpha  occ. eigenvalues --   -0.23745
 Alpha virt. eigenvalues --   -0.07571  -0.00374   0.02454   0.04074   0.04456
 Alpha virt. eigenvalues --    0.06963   0.07520   0.07732   0.08210   0.09165
 Alpha virt. eigenvalues --    0.10487   0.11281   0.11369   0.11856   0.12372

 Mulliken charges:
               1
     1  Mg   0.946569
     2  C   -0.040274
     3  C   -0.062073
     4  C   -0.106189
     5  C   -0.086242
     6  N   -0.321713
     7  C    0.005813
     8  C   -0.099551
     9  C   -0.095954
    10  C    0.049763
    11  C    0.031629
    12  C    0.008825
    13  C    0.042546
    14  C    0.198374
    15  O   -0.283567
    16  O   -0.343524
    17  N   -0.475894
    18  C    0.139181
    19  C   -0.159617
    20  C   -0.078433
    21  C    0.196119
    22  C    0.083253
    23  C    0.031226
    24  O   -0.270013
    25  C    0.019395
    26  N   -0.322527
    27  C    0.030090
    28  C   -0.085660
    29  C   -0.128768
    30  C    0.097822
    31  C    0.044303
    32  C    0.011782
    33  C   -0.067931
    34  N   -0.370971
    35  C    0.103431
    36  C   -0.197802
    37  C   -0.035470
    38  C    0.103824
    39  C    0.070417
    40  C    0.125691
    41  O   -0.187337
    42  C   -0.069196
    43  C    0.251491
    44  O   -0.258096
    45  O   -0.345303
    46  C    0.147904
    47  C    0.241106
    48  C   -0.093069
    49  C   -0.188057
    50  C   -0.024238
    51  C    0.026777
    52  C    0.018106
    53  C   -0.013672
    54  C   -0.220428
    55  C    0.028027
    56  C    0.030546
    57  C   -0.040764
    58  C   -0.006601
    59  C   -0.134592
    60  C   -0.002853
    61  C    0.019949
    62  C   -0.066382
    63  C    0.009978
    64  C   -0.196143
    65  C   -0.004622
    66  C   -0.024394
    67  H    0.001459
    68  H   -0.011927
    69  H   -0.001523
    70  H    0.036730
    71  H    0.048711
    72  H    0.025729
    73  H    0.042481
    74  H    0.058820
    75  H    0.018543
    76  H    0.047586
    77  H    0.070523
    78  H    0.043462
    79  H    0.057323
    80  H    0.017318
    81  H    0.072524
    82  H    0.049023
    83  H    0.071985
    84  H    0.061341
    85  H    0.037740
    86  H    0.040350
    87  H    0.031519
    88  H    0.026915
    89  H    0.039772
    90  H    0.042011
    91  H    0.033243
    92  H    0.033698
    93  H    0.037694
    94  H    0.029274
    95  H    0.052270
    96  H    0.035674
    97  H    0.060050
    98  H    0.071083
    99  H    0.062584
   100  H    0.044807
   101  H    0.065334
   102  H    0.031356
   103  H    0.071552
   104  H    0.016036
   105  H    0.035826
   106  H    0.052890
   107  H    0.034347
   108  H    0.049292
   109  H    0.011353
   110  H    0.019957
   111  H    0.019365
   112  H    0.013863
   113  H    0.020692
   114  H    0.026831
   115  H    0.032166
   116  H    0.027426
   117  H   -0.001275
   118  H    0.022289
   119  H    0.007919
   120  H    0.018253
   121  H    0.026744
   122  H    0.012163
   123  H    0.003408
   124  H    0.026840
   125  H    0.028326
   126  H    0.037387
   127  H    0.024341
   128  H    0.017842
   129  H    0.011591
   130  H    0.011524
   131  H    0.016097
   132  H    0.009243
   133  H    0.020970
   134  H    0.030340
   135  H    0.031676
   136  H    0.041226
   137  H    0.015748
   138  H    0.024150
   139  H    0.018974
   140  H    0.021133
 Sum of Mulliken charges =  -0.00000

 Dipole moment (field-independent basis, Debye):
    X=              4.5439    Y=              3.3464    Z=              2.3552  Tot=              6.1149
 Quadrupole moment (field-independent basis, Debye-Ang):
   XX=           -343.4833   YY=           -453.3123   ZZ=           -392.6007
   XY=             -2.1673   XZ=              1.7500   YZ=             27.0948

 Normal termination of Gaussian 16 at Fri Apr 29 15:58:21 2022.
