 Gaussian 16, Revision A.03,
 Gaussian 16:  ES64L-G16RevA.03 25-Dec-2016

 --------------------
 #p ZINDO=(nstates=5)
 --------------------

 ----------------------------
 step_351_chromophore_5 ZINDO
 ----------------------------
 Symbolic Z-matrix:
 Charge =  0 Multiplicity = 1

                         Standard orientation:
 ---------------------------------------------------------------------
 Center     Atomic      Atomic             Coordinates (Angstroms)
 Number     Number       Type             X           Y           Z
 ---------------------------------------------------------------------
      1         12           0        5.178158    0.427281   -0.379363
      2          6           0        3.538345   -2.694404   -0.362406
      3          6           0        3.046859    1.355963   -2.972591
      4          6           0        6.255550    3.553720    0.072874
      5          6           0        6.797205   -0.624881    2.533447
      6          7           0        3.297965   -0.499595   -1.353674
      7          6           0        2.895705   -1.768066   -1.194174
      8          6           0        1.735573   -2.038709   -2.228576
      9          6           0        1.785462   -0.829846   -3.237744
     10          6           0        2.766905    0.071187   -2.512264
     11          6           0        2.262477   -1.244466   -4.642559
     12          6           0        0.402176   -2.166060   -1.410524
     13          6           0       -0.608778   -3.181879   -1.799108
     14          6           0       -2.122569   -2.757269   -1.725115
     15          8           0       -2.885258   -2.857816   -2.695584
     16          8           0       -2.502262   -2.234879   -0.534656
     17          7           0        4.782717    2.225114   -1.357204
     18          6           0        3.881316    2.388494   -2.410044
     19          6           0        4.066518    3.746859   -2.895264
     20          6           0        4.991562    4.404657   -2.060778
     21          6           0        5.424900    3.397169   -1.079284
     22          6           0        3.213378    4.298190   -3.988112
     23          6           0        5.412666    5.813324   -2.268312
     24          8           0        4.909627    6.494284   -3.190891
     25          6           0        6.416635    6.363093   -1.479539
     26          7           0        6.376698    1.421256    1.117991
     27          6           0        6.724728    2.668824    1.058202
     28          6           0        7.645385    2.964190    2.243382
     29          6           0        8.082471    1.547200    2.790611
     30          6           0        6.961187    0.708399    2.108670
     31          6           0        8.763554    3.941023    2.018624
     32          6           0        8.122970    1.490152    4.367231
     33          6           0        9.513197    0.976936    4.885082
     34          7           0        5.214637   -1.327169    0.860642
     35          6           0        5.989002   -1.607595    1.952597
     36          6           0        5.663514   -2.853316    2.452109
     37          6           0        4.726390   -3.400814    1.566742
     38          6           0        4.489053   -2.368748    0.614540
     39          6           0        6.288458   -3.572810    3.612250
     40          6           0        3.919399   -4.580550    1.180989
     41          8           0        3.760941   -5.640422    1.745178
     42          6           0        3.090103   -4.164063   -0.071437
     43          6           0        3.358085   -5.103116   -1.132180
     44          8           0        2.502832   -5.857447   -1.582486
     45          8           0        4.580262   -4.918118   -1.618636
     46          6           0        4.926215   -5.648186   -2.844327
     47          6           0       -3.884485   -1.764714   -0.437244
     48          6           0       -3.794831   -0.567636    0.479603
     49          6           0       -4.466180   -0.264865    1.571064
     50          6           0       -5.021684   -1.359928    2.504770
     51          6           0       -4.423921    1.142996    2.308551
     52          6           0       -4.960351    2.462664    1.629723
     53          6           0       -6.176528    3.078893    2.217133
     54          6           0       -7.395446    2.817205    1.261832
     55          6           0       -8.372162    3.990653    1.423326
     56          6           0       -8.013977    1.436063    1.645085
     57          6           0       -8.258081    0.469341    0.418316
     58          6           0       -9.191548   -0.752867    0.822845
     59          6           0      -10.624218   -0.781655    0.148045
     60          6           0      -10.598284   -1.809823   -0.978438
     61          6           0      -11.680547   -1.125168    1.255983
     62          6           0      -12.654528    0.045115    1.519715
     63          6           0      -13.777819    0.065117    0.452713
     64          6           0      -14.076235    1.445935   -0.145024
     65          6           0      -15.491294    2.015061    0.346549
     66          6           0      -13.992458    1.404547   -1.675373
     67          1           0        2.432753    1.697469   -3.808329
     68          1           0        6.512387    4.577847    0.354391
     69          1           0        7.339414   -1.017893    3.396588
     70          1           0        1.961458   -2.975496   -2.738139
     71          1           0        0.775206   -0.432027   -3.340780
     72          1           0        3.275829   -0.843431   -4.663112
     73          1           0        1.709206   -0.578727   -5.305770
     74          1           0        2.327106   -2.298508   -4.914714
     75          1           0       -0.134106   -1.229994   -1.568430
     76          1           0        0.578030   -2.123205   -0.335950
     77          1           0       -0.434566   -4.081330   -1.209206
     78          1           0       -0.393626   -3.434468   -2.837237
     79          1           0        2.217754    4.515051   -3.601402
     80          1           0        3.032856    3.486976   -4.693885
     81          1           0        3.689241    5.097025   -4.556733
     82          1           0        7.131387    5.543998   -1.394208
     83          1           0        6.021705    6.558477   -0.483081
     84          1           0        6.832719    7.256149   -1.944924
     85          1           0        7.005411    3.352142    3.036740
     86          1           0        9.069061    1.353425    2.369910
     87          1           0        8.771893    4.442095    1.050808
     88          1           0        9.681562    3.352696    2.019675
     89          1           0        8.707979    4.734985    2.763249
     90          1           0        7.254789    0.951060    4.746088
     91          1           0        7.998103    2.507678    4.736828
     92          1           0       10.074389    1.638572    5.544869
     93          1           0       10.202512    0.657029    4.103699
     94          1           0        9.418512    0.140967    5.578031
     95          1           0        5.921477   -3.250759    4.587341
     96          1           0        7.343678   -3.309369    3.534635
     97          1           0        6.211238   -4.658123    3.547074
     98          1           0        2.027164   -4.119182    0.163438
     99          1           0        5.846766   -5.324788   -3.330843
    100          1           0        4.140431   -5.457866   -3.573841
    101          1           0        4.919195   -6.710278   -2.597196
    102          1           0       -4.507146   -2.535904    0.016155
    103          1           0       -4.371722   -1.526786   -1.382871
    104          1           0       -3.411692    0.310736   -0.040334
    105          1           0       -6.049185   -1.520539    2.178684
    106          1           0       -4.902027   -1.180214    3.573199
    107          1           0       -4.711591   -2.399020    2.393701
    108          1           0       -3.363001    1.273086    2.526066
    109          1           0       -4.898241    0.941450    3.268437
    110          1           0       -5.157606    2.318440    0.567129
    111          1           0       -4.200401    3.242781    1.650816
    112          1           0       -5.981712    4.144812    2.329523
    113          1           0       -6.403842    2.737284    3.226534
    114          1           0       -7.159043    2.888680    0.199880
    115          1           0       -8.687069    4.429399    0.476910
    116          1           0       -8.080046    4.700363    2.197456
    117          1           0       -9.286159    3.550599    1.821195
    118          1           0       -8.945747    1.569910    2.194119
    119          1           0       -7.347507    0.958352    2.362605
    120          1           0       -7.318338   -0.042163    0.210468
    121          1           0       -8.624803    0.958318   -0.483952
    122          1           0       -9.031146   -0.827965    1.898465
    123          1           0       -8.671449   -1.663922    0.528896
    124          1           0      -10.960518    0.097878   -0.400862
    125          1           0       -9.744384   -1.508810   -1.585707
    126          1           0      -11.585320   -1.845390   -1.439551
    127          1           0      -10.312399   -2.793735   -0.608227
    128          1           0      -11.297989   -1.349931    2.251640
    129          1           0      -12.363589   -1.933881    0.998335
    130          1           0      -12.078876    0.971082    1.508858
    131          1           0      -13.123953    0.081349    2.502226
    132          1           0      -14.653844   -0.158675    1.060588
    133          1           0      -13.682518   -0.750073   -0.265169
    134          1           0      -13.269381    2.132592    0.111970
    135          1           0      -15.438262    3.090927    0.514791
    136          1           0      -15.990099    1.475196    1.152189
    137          1           0      -16.145723    1.972295   -0.524165
    138          1           0      -13.296780    2.147137   -2.065871
    139          1           0      -14.965999    1.573318   -2.137477
    140          1           0      -13.647069    0.514167   -2.200653
 ---------------------------------------------------------------------

 SCF Done:  E(RZINDO/S) =  -474.495817384     A.U. after   19 cycles

 Excitation energies and oscillator strengths:

 Excited State   1:      Singlet-A      1.2911 eV  960.29 nm  f=0.5976  <S**2>=0.000
     175 ->178         0.19090
     176 ->177         0.66219
 This state for optimization and/or second-order correction.
 Total Energy, E(CIS/TDA) =  -474.448369988
 Copying the excited state density for this state as the 1-particle RhoCI density.

 Excited State   2:      Singlet-A      1.9143 eV  647.67 nm  f=0.0706  <S**2>=0.000
     175 ->177         0.56549
     176 ->178        -0.39480

 Excited State   3:      Singlet-A      2.8511 eV  434.86 nm  f=0.0007  <S**2>=0.000
     169 ->177         0.32543
     169 ->178        -0.17556
     169 ->179        -0.37632
     169 ->181         0.33437
     169 ->185         0.19809
     169 ->194         0.11129

 Excited State   4:      Singlet-A      3.0225 eV  410.21 nm  f=0.1591  <S**2>=0.000
     168 ->179         0.10441
     168 ->181         0.11908
     170 ->177         0.26891
     170 ->179         0.28865
     170 ->181         0.27731
     170 ->185        -0.17271
     170 ->187         0.12982
     170 ->201        -0.10105
     174 ->177         0.11382
     175 ->177         0.14109
     176 ->178         0.22329

 Excited State   5:      Singlet-A      3.0546 eV  405.89 nm  f=0.5951  <S**2>=0.000
     170 ->177        -0.11600
     170 ->179        -0.11769
     170 ->181        -0.13479
     175 ->177         0.24637
     176 ->178         0.37994
     176 ->179         0.16489
     176 ->180         0.40505

 The electronic state is 1-A.
 Alpha  occ. eigenvalues --   -1.87221  -1.82820  -1.80142  -1.75420  -1.73453
 Alpha  occ. eigenvalues --   -1.71874  -1.64411  -1.61329  -1.61243  -1.58705
 Alpha  occ. eigenvalues --   -1.52409  -1.50614  -1.48360  -1.47674  -1.46788
 Alpha  occ. eigenvalues --   -1.45952  -1.43789  -1.41430  -1.39996  -1.39165
 Alpha  occ. eigenvalues --   -1.37353  -1.35058  -1.33511  -1.31518  -1.29487
 Alpha  occ. eigenvalues --   -1.28820  -1.28457  -1.25009  -1.20912  -1.18649
 Alpha  occ. eigenvalues --   -1.16523  -1.14781  -1.14758  -1.13687  -1.12393
 Alpha  occ. eigenvalues --   -1.12303  -1.09922  -1.09835  -1.05870  -1.04401
 Alpha  occ. eigenvalues --   -1.01714  -1.00706  -0.98590  -0.97790  -0.97687
 Alpha  occ. eigenvalues --   -0.96537  -0.94266  -0.94207  -0.93644  -0.92867
 Alpha  occ. eigenvalues --   -0.91900  -0.91095  -0.90117  -0.89607  -0.87546
 Alpha  occ. eigenvalues --   -0.87181  -0.84889  -0.84468  -0.83694  -0.81349
 Alpha  occ. eigenvalues --   -0.80327  -0.79407  -0.78053  -0.77474  -0.77104
 Alpha  occ. eigenvalues --   -0.75726  -0.75395  -0.74664  -0.74219  -0.74084
 Alpha  occ. eigenvalues --   -0.72363  -0.72131  -0.72048  -0.71288  -0.70960
 Alpha  occ. eigenvalues --   -0.70464  -0.69424  -0.69313  -0.68532  -0.68188
 Alpha  occ. eigenvalues --   -0.67533  -0.67034  -0.66567  -0.66189  -0.65947
 Alpha  occ. eigenvalues --   -0.65794  -0.65196  -0.64646  -0.64111  -0.63897
 Alpha  occ. eigenvalues --   -0.63806  -0.63390  -0.63022  -0.62825  -0.62478
 Alpha  occ. eigenvalues --   -0.62066  -0.61873  -0.60953  -0.60654  -0.60252
 Alpha  occ. eigenvalues --   -0.59836  -0.58454  -0.58343  -0.58155  -0.58034
 Alpha  occ. eigenvalues --   -0.57931  -0.57786  -0.57343  -0.56628  -0.56143
 Alpha  occ. eigenvalues --   -0.55890  -0.55633  -0.55441  -0.55149  -0.54562
 Alpha  occ. eigenvalues --   -0.54309  -0.54038  -0.53599  -0.53410  -0.52993
 Alpha  occ. eigenvalues --   -0.52663  -0.52245  -0.51855  -0.51626  -0.51037
 Alpha  occ. eigenvalues --   -0.50813  -0.50562  -0.50378  -0.50193  -0.49913
 Alpha  occ. eigenvalues --   -0.49674  -0.49637  -0.49439  -0.49071  -0.48876
 Alpha  occ. eigenvalues --   -0.48720  -0.48449  -0.48340  -0.48180  -0.47735
 Alpha  occ. eigenvalues --   -0.47470  -0.47306  -0.47125  -0.46926  -0.46640
 Alpha  occ. eigenvalues --   -0.46524  -0.46165  -0.46013  -0.45583  -0.45230
 Alpha  occ. eigenvalues --   -0.44967  -0.44899  -0.44502  -0.44401  -0.44126
 Alpha  occ. eigenvalues --   -0.43966  -0.43088  -0.42825  -0.42116  -0.41786
 Alpha  occ. eigenvalues --   -0.41714  -0.41575  -0.41447  -0.39413  -0.38661
 Alpha  occ. eigenvalues --   -0.38177  -0.37031  -0.35752  -0.35302  -0.34795
 Alpha  occ. eigenvalues --   -0.33955  -0.33306  -0.33087  -0.32858  -0.27119
 Alpha  occ. eigenvalues --   -0.22603
 Alpha virt. eigenvalues --   -0.09141  -0.02583  -0.00640   0.00319   0.00984
 Alpha virt. eigenvalues --    0.01952   0.02459   0.02773   0.04483   0.04578
 Alpha virt. eigenvalues --    0.06127   0.06751   0.06978   0.07486   0.07953

 Mulliken charges:
               1
     1  Mg   0.432169
     2  C   -0.064106
     3  C   -0.078576
     4  C   -0.092098
     5  C   -0.053130
     6  N   -0.297954
     7  C    0.124671
     8  C   -0.001224
     9  C    0.008420
    10  C    0.153074
    11  C   -0.055993
    12  C   -0.022260
    13  C    0.013537
    14  C    0.462361
    15  O   -0.526417
    16  O   -0.252887
    17  N   -0.325297
    18  C    0.112237
    19  C    0.055511
    20  C   -0.047879
    21  C    0.133488
    22  C   -0.037175
    23  C    0.342804
    24  O   -0.555091
    25  C   -0.020474
    26  N   -0.244155
    27  C    0.153620
    28  C    0.004198
    29  C   -0.013700
    30  C    0.083314
    31  C   -0.053155
    32  C   -0.028055
    33  C   -0.063057
    34  N   -0.314214
    35  C    0.073049
    36  C    0.035376
    37  C   -0.082533
    38  C    0.129009
    39  C   -0.042173
    40  C    0.334895
    41  O   -0.509866
    42  C    0.053120
    43  C    0.504373
    44  O   -0.540224
    45  O   -0.259523
    46  C    0.074196
    47  C    0.114125
    48  C   -0.074895
    49  C    0.000786
    50  C   -0.055669
    51  C   -0.029506
    52  C   -0.026627
    53  C   -0.026252
    54  C   -0.015961
    55  C   -0.068338
    56  C   -0.033887
    57  C   -0.046783
    58  C   -0.046699
    59  C   -0.002774
    60  C   -0.057625
    61  C   -0.038239
    62  C   -0.042230
    63  C   -0.037984
    64  C   -0.005123
    65  C   -0.063820
    66  C   -0.061344
    67  H    0.029462
    68  H    0.018761
    69  H    0.032377
    70  H    0.033162
    71  H    0.039167
    72  H    0.014780
    73  H    0.023793
    74  H    0.041454
    75  H    0.013358
    76  H    0.027850
    77  H    0.046543
    78  H    0.036742
    79  H    0.040804
    80  H    0.013120
    81  H    0.051192
    82  H    0.034676
    83  H    0.048086
    84  H    0.043025
    85  H    0.030446
    86  H    0.038653
    87  H    0.017105
    88  H    0.022482
    89  H    0.022617
    90  H    0.032496
    91  H    0.016765
    92  H    0.019573
    93  H    0.023056
    94  H    0.014013
    95  H    0.032819
    96  H    0.018589
    97  H    0.033943
    98  H    0.055987
    99  H    0.038362
   100  H    0.036270
   101  H    0.050404
   102  H    0.038414
   103  H    0.061665
   104  H    0.013495
   105  H    0.025979
   106  H    0.028401
   107  H    0.019951
   108  H    0.023429
   109  H    0.022762
   110  H    0.021940
   111  H    0.012889
   112  H    0.010722
   113  H    0.022349
   114  H    0.028789
   115  H    0.021532
   116  H    0.023970
   117  H    0.006616
   118  H    0.021503
   119  H    0.019339
   120  H    0.016182
   121  H    0.029131
   122  H    0.025109
   123  H    0.010504
   124  H    0.033036
   125  H    0.019645
   126  H    0.023378
   127  H    0.015863
   128  H    0.017522
   129  H    0.017676
   130  H    0.010943
   131  H    0.015904
   132  H    0.009340
   133  H    0.028785
   134  H    0.023470
   135  H    0.018305
   136  H    0.030517
   137  H    0.014446
   138  H    0.010430
   139  H    0.014291
   140  H    0.016493
 Sum of Mulliken charges =  -0.00000

 Dipole moment (field-independent basis, Debye):
    X=              5.3493    Y=              5.7556    Z=              2.3512  Tot=              8.2018
 N-N= 4.364041758860D+03 E-N= 0.000000000000D+00  KE=-9.401938606811D+03
 Leave Link  601 at Fri Apr 29 16:12:28 2022, MaxMem=  6710886400 cpu:               0.8 elap:               0.0
 (Enter /sw/apps/gaussian-16.0/g16/l9999.exe)
 1\1\GINC-BP1-COMPUTE103\SP\RZINDO CIS\STO-3G\C55H74Mg1N4O6\OF15641\29-
 Apr-2022\0\\#p ZINDO=(nstates=5)\\step_351_chromophore_5 ZINDO\\0,1\Mg
 ,0,23.887,-6.763,45.575\C,0,26.199,-4.435,44.283\C,0,21.441,-5.134,43.
 706\C,0,21.882,-9.344,46.252\C,0,26.635,-8.459,46.911\N,0,23.905,-5.12
 7,43.942\C,0,24.949,-4.336,43.658\C,0,24.446,-3.21,42.674\C,0,22.873,-
 3.283,42.725\C,0,22.7,-4.572,43.506\C,0,22.241,-2.061,43.418\C,0,25.07
 9,-3.503,41.268\C,0,25.563,-2.379,40.427\C,0,25.286,-2.465,38.88\O,0,2

 Normal termination of Gaussian 16 at Fri Apr 29 16:12:28 2022.
