 Gaussian 16, Revision A.03,
 Gaussian 16:  ES64L-G16RevA.03 25-Dec-2016

 ------------------------------
 #p blyp/Def2SVP td=(nstates=5)
 ------------------------------

 --------------------------------------------------
 step_1451_chromophore_5 TDDFT with blyp functional
 --------------------------------------------------
 Symbolic Z-matrix:
 Charge =  0 Multiplicity = 1

                         Standard orientation:
 ---------------------------------------------------------------------
 Center     Atomic      Atomic             Coordinates (Angstroms)
 Number     Number       Type             X           Y           Z
 ---------------------------------------------------------------------
      1         12           0        5.400538    0.619886   -0.426417
      2          6           0        4.259810   -2.752488   -0.196156
      3          6           0        2.903184    1.236875   -2.540090
      4          6           0        6.065647    3.902871   -0.125456
      5          6           0        7.563569   -0.094702    2.331277
      6          7           0        3.709525   -0.647005   -1.177796
      7          6           0        3.414144   -1.978132   -1.031814
      8          6           0        2.133636   -2.388463   -1.781845
      9          6           0        2.002016   -1.154073   -2.791345
     10          6           0        2.924972   -0.085125   -2.122175
     11          6           0        2.425541   -1.456604   -4.251407
     12          6           0        1.000975   -2.569405   -0.691261
     13          6           0       -0.142148   -3.584762   -1.091077
     14          6           0       -1.508934   -2.952494   -1.415723
     15          8           0       -1.713343   -2.295623   -2.455745
     16          8           0       -2.448825   -3.275634   -0.428519
     17          7           0        4.666679    2.399336   -1.213167
     18          6           0        3.591103    2.366574   -2.072474
     19          6           0        3.191219    3.695881   -2.299663
     20          6           0        4.277682    4.598211   -1.766514
     21          6           0        5.078556    3.654936   -0.997257
     22          6           0        2.023316    4.062453   -3.276732
     23          6           0        4.318701    6.134708   -1.872879
     24          8           0        3.587360    6.743388   -2.663644
     25          6           0        5.428234    6.937221   -1.145238
     26          7           0        6.605768    1.717994    0.960813
     27          6           0        6.771808    3.079857    0.747897
     28          6           0        7.905604    3.652013    1.639513
     29          6           0        8.158557    2.374547    2.595043
     30          6           0        7.435255    1.235178    1.872179
     31          6           0        9.173658    3.925113    0.822102
     32          6           0        7.600939    2.490080    4.034924
     33          6           0        8.548274    2.089916    5.107506
     34          7           0        5.897627   -1.085141    0.865991
     35          6           0        6.814982   -1.207158    1.863943
     36          6           0        6.852408   -2.588738    2.310574
     37          6           0        5.895147   -3.214298    1.518015
     38          6           0        5.255624   -2.284113    0.665249
     39          6           0        7.783269   -3.178838    3.325320
     40          6           0        5.288760   -4.516049    1.178725
     41          8           0        5.610051   -5.607817    1.629261
     42          6           0        3.994085   -4.204084    0.207296
     43          6           0        3.880896   -5.261408   -0.837212
     44          8           0        3.132366   -6.254547   -0.746818
     45          8           0        4.842623   -5.060897   -1.805465
     46          6           0        4.754901   -6.034997   -2.917695
     47          6           0       -3.781012   -2.610086   -0.621157
     48          6           0       -3.857091   -1.457297    0.289688
     49          6           0       -4.834574   -1.083218    1.116824
     50          6           0       -6.189440   -1.767594    1.146000
     51          6           0       -4.676875    0.178954    1.994248
     52          6           0       -4.620729    1.516718    1.250407
     53          6           0       -5.893428    2.302419    1.459819
     54          6           0       -6.884757    2.256080    0.231688
     55          6           0       -7.183887    3.626807   -0.342330
     56          6           0       -8.064996    1.456980    0.692458
     57          6           0       -8.957827    1.028965   -0.514070
     58          6           0       -9.841047   -0.187562   -0.158507
     59          6           0      -11.362177    0.178275    0.033609
     60          6           0      -12.044082    0.752586   -1.315608
     61          6           0      -12.176129   -1.070348    0.633404
     62          6           0      -13.229565   -0.581906    1.595673
     63          6           0      -14.688217   -0.593839    1.093251
     64          6           0      -15.351344    0.760863    1.348278
     65          6           0      -16.729938    0.718105    1.881097
     66          6           0      -15.201112    1.719999    0.120740
     67          1           0        2.242482    1.503734   -3.367677
     68          1           0        6.378140    4.947005   -0.197221
     69          1           0        8.124440   -0.241693    3.256508
     70          1           0        2.323699   -3.291524   -2.362203
     71          1           0        1.012144   -0.697952   -2.814491
     72          1           0        1.949674   -0.747515   -4.929541
     73          1           0        2.042329   -2.467475   -4.389009
     74          1           0        3.502864   -1.403337   -4.406381
     75          1           0        0.436246   -1.653863   -0.517060
     76          1           0        1.401628   -2.843592    0.284501
     77          1           0       -0.312100   -4.188904   -0.199859
     78          1           0        0.118580   -4.271320   -1.895930
     79          1           0        1.032167    3.831003   -2.885474
     80          1           0        2.287491    3.781687   -4.295248
     81          1           0        1.947342    5.149672   -3.257407
     82          1           0        6.402344    6.660843   -1.547294
     83          1           0        5.343854    6.562491   -0.124155
     84          1           0        5.330411    8.013815   -1.283360
     85          1           0        7.375470    4.420207    2.202793
     86          1           0        9.192649    2.041424    2.688454
     87          1           0        9.035541    4.815445    0.208732
     88          1           0        9.434474    3.026888    0.263115
     89          1           0        9.954439    4.115437    1.558885
     90          1           0        6.647574    1.977608    4.163468
     91          1           0        7.434296    3.560713    4.154773
     92          1           0        7.989010    1.608328    5.909919
     93          1           0        9.046007    2.873233    5.680411
     94          1           0        9.352281    1.458633    4.730545
     95          1           0        7.937895   -4.200015    2.975205
     96          1           0        7.297016   -3.311232    4.291589
     97          1           0        8.757526   -2.690769    3.325497
     98          1           0        3.107980   -4.231155    0.842187
     99          1           0        3.892582   -5.952400   -3.579406
    100          1           0        4.752365   -7.043109   -2.503892
    101          1           0        5.638378   -5.971286   -3.553348
    102          1           0       -4.439613   -3.400032   -0.260499
    103          1           0       -4.028259   -2.373394   -1.655905
    104          1           0       -2.880922   -0.978172    0.223184
    105          1           0       -6.748936   -1.411167    2.011123
    106          1           0       -6.162492   -2.856171    1.201605
    107          1           0       -6.766829   -1.499659    0.261240
    108          1           0       -3.698737    0.122679    2.473522
    109          1           0       -5.403105    0.292130    2.799385
    110          1           0       -4.453606    1.293079    0.196625
    111          1           0       -3.811634    2.127192    1.649715
    112          1           0       -5.682945    3.359301    1.620698
    113          1           0       -6.406557    2.005323    2.374662
    114          1           0       -6.513818    1.622203   -0.573608
    115          1           0       -8.245204    3.870982   -0.389213
    116          1           0       -6.816523    3.521419   -1.363793
    117          1           0       -6.584111    4.429875    0.085502
    118          1           0       -8.781602    2.007938    1.302194
    119          1           0       -7.765257    0.530794    1.183196
    120          1           0       -8.355579    0.935447   -1.417615
    121          1           0       -9.656029    1.804384   -0.827683
    122          1           0       -9.447383   -0.725117    0.704905
    123          1           0       -9.822335   -0.874010   -1.004132
    124          1           0      -11.315404    0.993145    0.756252
    125          1           0      -12.971892    0.244608   -1.581710
    126          1           0      -11.359128    0.612238   -2.151126
    127          1           0      -12.184884    1.794772   -1.027947
    128          1           0      -11.533474   -1.878522    0.982226
    129          1           0      -12.803673   -1.515654   -0.137860
    130          1           0      -12.855834    0.376935    1.957197
    131          1           0      -13.326992   -1.370483    2.341998
    132          1           0      -15.241728   -1.392321    1.588014
    133          1           0      -14.709729   -0.786150    0.020470
    134          1           0      -14.789344    1.336160    2.084298
    135          1           0      -16.827479    1.515526    2.616700
    136          1           0      -16.952858   -0.269684    2.285330
    137          1           0      -17.458989    0.885599    1.088665
    138          1           0      -16.179788    2.096730   -0.178595
    139          1           0      -14.854146    1.238660   -0.793512
    140          1           0      -14.600899    2.594089    0.374063
 ---------------------------------------------------------------------

 SCF Done:  E(RB-LYP) =  -3007.36484711     A.U. after   21 cycles

 Excitation energies and oscillator strengths:

 Excited State   1:      Singlet-A      1.7939 eV  691.14 nm  f=0.0004  <S**2>=0.000
     244 -> 247        0.70623
 This state for optimization and/or second-order correction.
 Total Energy, E(TD-HF/TD-DFT) =  -3007.29892204
 Copying the excited state density for this state as the 1-particle RhoCI density.

 Excited State   2:      Singlet-A      1.8532 eV  669.04 nm  f=0.3097  <S**2>=0.000
     245 -> 248        0.19607
     246 -> 247        0.68501
     246 <- 247       -0.14502

 Excited State   3:      Singlet-A      1.9948 eV  621.54 nm  f=0.0118  <S**2>=0.000
     243 -> 247        0.65663
     245 -> 247       -0.23500

 Excited State   4:      Singlet-A      2.0079 eV  617.47 nm  f=0.0657  <S**2>=0.000
     243 -> 247        0.25442
     245 -> 247        0.60953
     246 -> 248       -0.20647

 Excited State   5:      Singlet-A      2.3456 eV  528.58 nm  f=0.0010  <S**2>=0.000
     241 -> 247        0.67720
     242 -> 247       -0.19591

 The electronic state is 1-A.
 Alpha  occ. eigenvalues --  -46.28152 -18.82845 -18.82669 -18.77323 -18.76754
 Alpha  occ. eigenvalues --  -18.76617 -18.75445 -14.03748 -14.03306 -14.00758
 Alpha  occ. eigenvalues --  -14.00608 -10.04511 -10.04084 -10.00516 -10.00266
 Alpha  occ. eigenvalues --   -9.97866  -9.97759  -9.97250  -9.96668  -9.96541
 Alpha  occ. eigenvalues --   -9.96488  -9.95607  -9.95341  -9.95208  -9.94879
 Alpha  occ. eigenvalues --   -9.94742  -9.94592  -9.94529  -9.94519  -9.94245
 Alpha  occ. eigenvalues --   -9.94207  -9.93770  -9.93659  -9.93631  -9.93618
 Alpha  occ. eigenvalues --   -9.93450  -9.93266  -9.93136  -9.93068  -9.92783
 Alpha  occ. eigenvalues --   -9.92739  -9.92602  -9.92539  -9.92497  -9.92393
 Alpha  occ. eigenvalues --   -9.92336  -9.92199  -9.91903  -9.91900  -9.91586
 Alpha  occ. eigenvalues --   -9.91448  -9.91344  -9.91257  -9.91229  -9.91192
 Alpha  occ. eigenvalues --   -9.91039  -9.90911  -9.90780  -9.90726  -9.90676
 Alpha  occ. eigenvalues --   -9.90647  -9.90629  -9.90582  -9.90477  -9.90471
 Alpha  occ. eigenvalues --   -9.90197  -2.92607  -1.73026  -1.72486  -1.72320
 Alpha  occ. eigenvalues --   -0.97132  -0.96427  -0.91697  -0.90517  -0.89266
 Alpha  occ. eigenvalues --   -0.88890  -0.86787  -0.86264  -0.85785  -0.85141
 Alpha  occ. eigenvalues --   -0.75436  -0.74047  -0.72955  -0.72872  -0.72573
 Alpha  occ. eigenvalues --   -0.72455  -0.72170  -0.71111  -0.70575  -0.70007
 Alpha  occ. eigenvalues --   -0.69333  -0.68695  -0.68172  -0.67985  -0.67653
 Alpha  occ. eigenvalues --   -0.66901  -0.66016  -0.65316  -0.65087  -0.64541
 Alpha  occ. eigenvalues --   -0.63737  -0.62594  -0.62229  -0.61503  -0.60871
 Alpha  occ. eigenvalues --   -0.60615  -0.60102  -0.59930  -0.59356  -0.59150
 Alpha  occ. eigenvalues --   -0.58257  -0.57822  -0.57276  -0.55789  -0.54467
 Alpha  occ. eigenvalues --   -0.54152  -0.53811  -0.52821  -0.52166  -0.51727
 Alpha  occ. eigenvalues --   -0.51702  -0.51024  -0.50591  -0.50303  -0.49739
 Alpha  occ. eigenvalues --   -0.49557  -0.49319  -0.49083  -0.48459  -0.47273
 Alpha  occ. eigenvalues --   -0.46632  -0.46028  -0.45626  -0.45250  -0.44139
 Alpha  occ. eigenvalues --   -0.43932  -0.43205  -0.42862  -0.42609  -0.42294
 Alpha  occ. eigenvalues --   -0.41902  -0.41791  -0.41690  -0.41383  -0.41195
 Alpha  occ. eigenvalues --   -0.40975  -0.40531  -0.40293  -0.40145  -0.39924
 Alpha  occ. eigenvalues --   -0.39873  -0.39747  -0.39543  -0.39306  -0.39089
 Alpha  occ. eigenvalues --   -0.38943  -0.38876  -0.38604  -0.38428  -0.38193
 Alpha  occ. eigenvalues --   -0.37934  -0.37774  -0.37718  -0.37624  -0.37413
 Alpha  occ. eigenvalues --   -0.37292  -0.37013  -0.36902  -0.36833  -0.36488
 Alpha  occ. eigenvalues --   -0.36384  -0.36010  -0.35777  -0.35749  -0.35501
 Alpha  occ. eigenvalues --   -0.35440  -0.35128  -0.35018  -0.34774  -0.34621
 Alpha  occ. eigenvalues --   -0.34527  -0.34511  -0.34435  -0.34315  -0.34193
 Alpha  occ. eigenvalues --   -0.34169  -0.33981  -0.33666  -0.33519  -0.33118
 Alpha  occ. eigenvalues --   -0.33021  -0.32936  -0.32819  -0.32790  -0.32750
 Alpha  occ. eigenvalues --   -0.32522  -0.32275  -0.31791  -0.31618  -0.31508
 Alpha  occ. eigenvalues --   -0.31448  -0.31205  -0.31101  -0.30923  -0.30731
 Alpha  occ. eigenvalues --   -0.30533  -0.30372  -0.30234  -0.30139  -0.29691
 Alpha  occ. eigenvalues --   -0.29663  -0.29541  -0.29295  -0.29107  -0.29069
 Alpha  occ. eigenvalues --   -0.28914  -0.28810  -0.28717  -0.28108  -0.27803
 Alpha  occ. eigenvalues --   -0.27497  -0.27439  -0.27015  -0.26876  -0.26500
 Alpha  occ. eigenvalues --   -0.25811  -0.25649  -0.25597  -0.25536  -0.25337
 Alpha  occ. eigenvalues --   -0.25331  -0.24774  -0.24424  -0.23863  -0.23359
 Alpha  occ. eigenvalues --   -0.22847  -0.22537  -0.21954  -0.21624  -0.20584
 Alpha  occ. eigenvalues --   -0.20493  -0.19886  -0.19095  -0.18394  -0.17562
 Alpha  occ. eigenvalues --   -0.16305
 Alpha virt. eigenvalues --   -0.11874  -0.07258  -0.06381  -0.04613  -0.04058
 Alpha virt. eigenvalues --   -0.03613  -0.03561  -0.02301  -0.01104  -0.00120
 Alpha virt. eigenvalues --    0.01039   0.02052   0.02347   0.02458   0.02890

 Mulliken charges:
               1
     1  Mg   0.672423
     2  C    0.038159
     3  C   -0.060157
     4  C   -0.057310
     5  C   -0.081305
     6  N   -0.201918
     7  C   -0.104952
     8  C    0.063612
     9  C   -0.014704
    10  C    0.042562
    11  C    0.131930
    12  C    0.117546
    13  C    0.149593
    14  C    0.074589
    15  O   -0.219818
    16  O   -0.289773
    17  N   -0.288091
    18  C    0.138954
    19  C   -0.165936
    20  C    0.002755
    21  C    0.128965
    22  C    0.168505
    23  C   -0.062460
    24  O   -0.171660
    25  C    0.130982
    26  N   -0.198452
    27  C   -0.012349
    28  C    0.059572
    29  C   -0.045222
    30  C    0.025702
    31  C    0.158508
    32  C    0.124067
    33  C    0.059429
    34  N   -0.232813
    35  C    0.089317
    36  C   -0.191361
    37  C    0.110971
    38  C    0.058259
    39  C    0.183116
    40  C   -0.037637
    41  O   -0.123447
    42  C    0.009475
    43  C    0.122785
    44  O   -0.196182
    45  O   -0.279589
    46  C    0.220354
    47  C    0.335094
    48  C   -0.103470
    49  C   -0.132252
    50  C    0.129627
    51  C    0.141883
    52  C    0.103959
    53  C    0.117864
    54  C   -0.084747
    55  C    0.138107
    56  C    0.081971
    57  C    0.049167
    58  C    0.098865
    59  C   -0.126843
    60  C    0.103314
    61  C    0.110731
    62  C    0.085655
    63  C    0.126016
    64  C   -0.119003
    65  C    0.135704
    66  C    0.091101
    67  H   -0.055009
    68  H   -0.102636
    69  H   -0.055786
    70  H   -0.019201
    71  H   -0.017212
    72  H    0.003912
    73  H   -0.001681
    74  H   -0.003002
    75  H   -0.011500
    76  H   -0.003348
    77  H   -0.014705
    78  H    0.009182
    79  H   -0.010530
    80  H    0.016550
    81  H   -0.012943
    82  H    0.021659
    83  H    0.013591
    84  H   -0.004744
    85  H   -0.025301
    86  H   -0.034657
    87  H   -0.000804
    88  H   -0.000740
    89  H   -0.007867
    90  H   -0.003940
    91  H   -0.031137
    92  H   -0.015977
    93  H   -0.015777
    94  H   -0.004732
    95  H    0.000516
    96  H    0.008227
    97  H   -0.001099
    98  H    0.016684
    99  H    0.010852
   100  H    0.019879
   101  H    0.008819
   102  H   -0.023572
   103  H    0.017694
   104  H   -0.041452
   105  H   -0.001622
   106  H   -0.001363
   107  H    0.018598
   108  H   -0.027993
   109  H   -0.041286
   110  H   -0.020507
   111  H   -0.037312
   112  H   -0.055138
   113  H   -0.038676
   114  H   -0.034354
   115  H   -0.010531
   116  H   -0.023447
   117  H   -0.014671
   118  H   -0.033352
   119  H   -0.044287
   120  H   -0.047815
   121  H   -0.045309
   122  H   -0.031073
   123  H   -0.040666
   124  H   -0.028536
   125  H   -0.000263
   126  H   -0.011121
   127  H    0.002687
   128  H   -0.037237
   129  H   -0.049869
   130  H   -0.020335
   131  H   -0.039519
   132  H   -0.040855
   133  H   -0.034904
   134  H   -0.034969
   135  H   -0.015666
   136  H   -0.025361
   137  H   -0.025517
   138  H   -0.035557
   139  H   -0.019289
   140  H   -0.010834
 Sum of Mulliken charges =  -0.00000

 Dipole moment (field-independent basis, Debye):
    X=              1.5176    Y=              2.1672    Z=              1.2870  Tot=              2.9421
 Quadrupole moment (field-independent basis, Debye-Ang):
   XX=           -354.8954   YY=           -454.6694   ZZ=           -397.4422
   XY=             25.7364   XZ=              0.1665   YZ=             33.0691

 Normal termination of Gaussian 16 at Wed May  4 07:57:05 2022.
