 Gaussian 16, Revision A.03,
 Gaussian 16:  ES64L-G16RevA.03 25-Dec-2016

 -----------------------------------
 #p cam-b3lyp/Def2SVP td=(nstates=5)
 -----------------------------------

 -------------------------------------------------------
 step_1451_chromophore_5 TDDFT with cam-b3lyp functional
 -------------------------------------------------------
 Symbolic Z-matrix:
 Charge =  0 Multiplicity = 1

                         Standard orientation:
 ---------------------------------------------------------------------
 Center     Atomic      Atomic             Coordinates (Angstroms)
 Number     Number       Type             X           Y           Z
 ---------------------------------------------------------------------
      1         12           0        5.400538    0.619886   -0.426417
      2          6           0        4.259810   -2.752488   -0.196156
      3          6           0        2.903184    1.236875   -2.540090
      4          6           0        6.065647    3.902871   -0.125456
      5          6           0        7.563569   -0.094702    2.331277
      6          7           0        3.709525   -0.647005   -1.177796
      7          6           0        3.414144   -1.978132   -1.031814
      8          6           0        2.133636   -2.388463   -1.781845
      9          6           0        2.002016   -1.154073   -2.791345
     10          6           0        2.924972   -0.085125   -2.122175
     11          6           0        2.425541   -1.456604   -4.251407
     12          6           0        1.000975   -2.569405   -0.691261
     13          6           0       -0.142148   -3.584762   -1.091077
     14          6           0       -1.508934   -2.952494   -1.415723
     15          8           0       -1.713343   -2.295623   -2.455745
     16          8           0       -2.448825   -3.275634   -0.428519
     17          7           0        4.666679    2.399336   -1.213167
     18          6           0        3.591103    2.366574   -2.072474
     19          6           0        3.191219    3.695881   -2.299663
     20          6           0        4.277682    4.598211   -1.766514
     21          6           0        5.078556    3.654936   -0.997257
     22          6           0        2.023316    4.062453   -3.276732
     23          6           0        4.318701    6.134708   -1.872879
     24          8           0        3.587360    6.743388   -2.663644
     25          6           0        5.428234    6.937221   -1.145238
     26          7           0        6.605768    1.717994    0.960813
     27          6           0        6.771808    3.079857    0.747897
     28          6           0        7.905604    3.652013    1.639513
     29          6           0        8.158557    2.374547    2.595043
     30          6           0        7.435255    1.235178    1.872179
     31          6           0        9.173658    3.925113    0.822102
     32          6           0        7.600939    2.490080    4.034924
     33          6           0        8.548274    2.089916    5.107506
     34          7           0        5.897627   -1.085141    0.865991
     35          6           0        6.814982   -1.207158    1.863943
     36          6           0        6.852408   -2.588738    2.310574
     37          6           0        5.895147   -3.214298    1.518015
     38          6           0        5.255624   -2.284113    0.665249
     39          6           0        7.783269   -3.178838    3.325320
     40          6           0        5.288760   -4.516049    1.178725
     41          8           0        5.610051   -5.607817    1.629261
     42          6           0        3.994085   -4.204084    0.207296
     43          6           0        3.880896   -5.261408   -0.837212
     44          8           0        3.132366   -6.254547   -0.746818
     45          8           0        4.842623   -5.060897   -1.805465
     46          6           0        4.754901   -6.034997   -2.917695
     47          6           0       -3.781012   -2.610086   -0.621157
     48          6           0       -3.857091   -1.457297    0.289688
     49          6           0       -4.834574   -1.083218    1.116824
     50          6           0       -6.189440   -1.767594    1.146000
     51          6           0       -4.676875    0.178954    1.994248
     52          6           0       -4.620729    1.516718    1.250407
     53          6           0       -5.893428    2.302419    1.459819
     54          6           0       -6.884757    2.256080    0.231688
     55          6           0       -7.183887    3.626807   -0.342330
     56          6           0       -8.064996    1.456980    0.692458
     57          6           0       -8.957827    1.028965   -0.514070
     58          6           0       -9.841047   -0.187562   -0.158507
     59          6           0      -11.362177    0.178275    0.033609
     60          6           0      -12.044082    0.752586   -1.315608
     61          6           0      -12.176129   -1.070348    0.633404
     62          6           0      -13.229565   -0.581906    1.595673
     63          6           0      -14.688217   -0.593839    1.093251
     64          6           0      -15.351344    0.760863    1.348278
     65          6           0      -16.729938    0.718105    1.881097
     66          6           0      -15.201112    1.719999    0.120740
     67          1           0        2.242482    1.503734   -3.367677
     68          1           0        6.378140    4.947005   -0.197221
     69          1           0        8.124440   -0.241693    3.256508
     70          1           0        2.323699   -3.291524   -2.362203
     71          1           0        1.012144   -0.697952   -2.814491
     72          1           0        1.949674   -0.747515   -4.929541
     73          1           0        2.042329   -2.467475   -4.389009
     74          1           0        3.502864   -1.403337   -4.406381
     75          1           0        0.436246   -1.653863   -0.517060
     76          1           0        1.401628   -2.843592    0.284501
     77          1           0       -0.312100   -4.188904   -0.199859
     78          1           0        0.118580   -4.271320   -1.895930
     79          1           0        1.032167    3.831003   -2.885474
     80          1           0        2.287491    3.781687   -4.295248
     81          1           0        1.947342    5.149672   -3.257407
     82          1           0        6.402344    6.660843   -1.547294
     83          1           0        5.343854    6.562491   -0.124155
     84          1           0        5.330411    8.013815   -1.283360
     85          1           0        7.375470    4.420207    2.202793
     86          1           0        9.192649    2.041424    2.688454
     87          1           0        9.035541    4.815445    0.208732
     88          1           0        9.434474    3.026888    0.263115
     89          1           0        9.954439    4.115437    1.558885
     90          1           0        6.647574    1.977608    4.163468
     91          1           0        7.434296    3.560713    4.154773
     92          1           0        7.989010    1.608328    5.909919
     93          1           0        9.046007    2.873233    5.680411
     94          1           0        9.352281    1.458633    4.730545
     95          1           0        7.937895   -4.200015    2.975205
     96          1           0        7.297016   -3.311232    4.291589
     97          1           0        8.757526   -2.690769    3.325497
     98          1           0        3.107980   -4.231155    0.842187
     99          1           0        3.892582   -5.952400   -3.579406
    100          1           0        4.752365   -7.043109   -2.503892
    101          1           0        5.638378   -5.971286   -3.553348
    102          1           0       -4.439613   -3.400032   -0.260499
    103          1           0       -4.028259   -2.373394   -1.655905
    104          1           0       -2.880922   -0.978172    0.223184
    105          1           0       -6.748936   -1.411167    2.011123
    106          1           0       -6.162492   -2.856171    1.201605
    107          1           0       -6.766829   -1.499659    0.261240
    108          1           0       -3.698737    0.122679    2.473522
    109          1           0       -5.403105    0.292130    2.799385
    110          1           0       -4.453606    1.293079    0.196625
    111          1           0       -3.811634    2.127192    1.649715
    112          1           0       -5.682945    3.359301    1.620698
    113          1           0       -6.406557    2.005323    2.374662
    114          1           0       -6.513818    1.622203   -0.573608
    115          1           0       -8.245204    3.870982   -0.389213
    116          1           0       -6.816523    3.521419   -1.363793
    117          1           0       -6.584111    4.429875    0.085502
    118          1           0       -8.781602    2.007938    1.302194
    119          1           0       -7.765257    0.530794    1.183196
    120          1           0       -8.355579    0.935447   -1.417615
    121          1           0       -9.656029    1.804384   -0.827683
    122          1           0       -9.447383   -0.725117    0.704905
    123          1           0       -9.822335   -0.874010   -1.004132
    124          1           0      -11.315404    0.993145    0.756252
    125          1           0      -12.971892    0.244608   -1.581710
    126          1           0      -11.359128    0.612238   -2.151126
    127          1           0      -12.184884    1.794772   -1.027947
    128          1           0      -11.533474   -1.878522    0.982226
    129          1           0      -12.803673   -1.515654   -0.137860
    130          1           0      -12.855834    0.376935    1.957197
    131          1           0      -13.326992   -1.370483    2.341998
    132          1           0      -15.241728   -1.392321    1.588014
    133          1           0      -14.709729   -0.786150    0.020470
    134          1           0      -14.789344    1.336160    2.084298
    135          1           0      -16.827479    1.515526    2.616700
    136          1           0      -16.952858   -0.269684    2.285330
    137          1           0      -17.458989    0.885599    1.088665
    138          1           0      -16.179788    2.096730   -0.178595
    139          1           0      -14.854146    1.238660   -0.793512
    140          1           0      -14.600899    2.594089    0.374063
 ---------------------------------------------------------------------

 SCF Done:  E(RCAM-B3LYP) =  -3007.15120635     A.U. after   19 cycles

 Excitation energies and oscillator strengths:

 Excited State   1:      Singlet-A      1.7510 eV  708.09 nm  f=0.3890  <S**2>=0.000
     245 -> 248       -0.18406
     246 -> 247        0.68393
     245 <- 248       -0.10679
 This state for optimization and/or second-order correction.
 Total Energy, E(TD-HF/TD-DFT) =  -3007.08685908
 Copying the excited state density for this state as the 1-particle RhoCI density.

 Excited State   2:      Singlet-A      2.2308 eV  555.78 nm  f=0.1112  <S**2>=0.000
     245 -> 247        0.64099
     246 -> 248        0.28104

 Excited State   3:      Singlet-A      3.2165 eV  385.47 nm  f=0.0094  <S**2>=0.000
     243 -> 247        0.23602
     244 -> 247        0.65173

 Excited State   4:      Singlet-A      3.3304 eV  372.28 nm  f=0.0045  <S**2>=0.000
     240 -> 247        0.17151
     240 -> 249        0.10912
     243 -> 247        0.58974
     244 -> 247       -0.21094
     246 -> 248       -0.19902

 Excited State   5:      Singlet-A      3.4580 eV  358.54 nm  f=0.0423  <S**2>=0.000
     239 -> 247        0.16200
     239 -> 249        0.10291
     240 -> 247        0.53048
     240 -> 249        0.23327
     240 -> 251        0.13199
     243 -> 247       -0.13962
     246 -> 248        0.22002

 The electronic state is 1-A.
 Alpha  occ. eigenvalues --  -46.89789 -19.26047 -19.25572 -19.20351 -19.20177
 Alpha  occ. eigenvalues --  -19.20022 -19.18439 -14.42732 -14.42087 -14.39081
 Alpha  occ. eigenvalues --  -14.39023 -10.39973 -10.39893 -10.36164 -10.35332
 Alpha  occ. eigenvalues --  -10.32043 -10.31994 -10.31842 -10.31061 -10.31036
 Alpha  occ. eigenvalues --  -10.30751 -10.30112 -10.29564 -10.29318 -10.29298
 Alpha  occ. eigenvalues --  -10.29272 -10.28796 -10.28681 -10.28591 -10.28480
 Alpha  occ. eigenvalues --  -10.28455 -10.28251 -10.27960 -10.27679 -10.27630
 Alpha  occ. eigenvalues --  -10.27590 -10.27237 -10.27139 -10.26897 -10.26856
 Alpha  occ. eigenvalues --  -10.26400 -10.26386 -10.26363 -10.26255 -10.26207
 Alpha  occ. eigenvalues --  -10.26167 -10.26133 -10.25825 -10.25574 -10.25502
 Alpha  occ. eigenvalues --  -10.25497 -10.24996 -10.24924 -10.24912 -10.24757
 Alpha  occ. eigenvalues --  -10.24684 -10.24635 -10.24443 -10.24393 -10.24337
 Alpha  occ. eigenvalues --  -10.24331 -10.24225 -10.24214 -10.24088 -10.24085
 Alpha  occ. eigenvalues --  -10.23744  -3.18135  -1.93033  -1.92582  -1.92426
 Alpha  occ. eigenvalues --   -1.15862  -1.14839  -1.10296  -1.08672  -1.07135
 Alpha  occ. eigenvalues --   -1.07105  -1.04545  -1.03958  -1.03354  -1.02642
 Alpha  occ. eigenvalues --   -0.92739  -0.90935  -0.89765  -0.89569  -0.89327
 Alpha  occ. eigenvalues --   -0.89060  -0.88925  -0.87678  -0.87151  -0.86653
 Alpha  occ. eigenvalues --   -0.85714  -0.84972  -0.84478  -0.84232  -0.83905
 Alpha  occ. eigenvalues --   -0.83014  -0.82084  -0.81179  -0.80986  -0.80459
 Alpha  occ. eigenvalues --   -0.79517  -0.78315  -0.77797  -0.77018  -0.76343
 Alpha  occ. eigenvalues --   -0.75977  -0.75485  -0.75204  -0.74637  -0.74417
 Alpha  occ. eigenvalues --   -0.73332  -0.72826  -0.72220  -0.70627  -0.69025
 Alpha  occ. eigenvalues --   -0.68815  -0.68450  -0.67202  -0.66287  -0.66026
 Alpha  occ. eigenvalues --   -0.65925  -0.65039  -0.64637  -0.64467  -0.63777
 Alpha  occ. eigenvalues --   -0.63502  -0.63167  -0.62909  -0.62340  -0.60804
 Alpha  occ. eigenvalues --   -0.60109  -0.59693  -0.59174  -0.58605  -0.57604
 Alpha  occ. eigenvalues --   -0.57428  -0.56869  -0.56144  -0.55714  -0.55597
 Alpha  occ. eigenvalues --   -0.54988  -0.54766  -0.54711  -0.54341  -0.53977
 Alpha  occ. eigenvalues --   -0.53796  -0.53484  -0.53071  -0.52972  -0.52875
 Alpha  occ. eigenvalues --   -0.52419  -0.52359  -0.52058  -0.51946  -0.51685
 Alpha  occ. eigenvalues --   -0.51640  -0.51577  -0.51116  -0.50934  -0.50550
 Alpha  occ. eigenvalues --   -0.50334  -0.50254  -0.50079  -0.49950  -0.49679
 Alpha  occ. eigenvalues --   -0.49556  -0.49362  -0.49107  -0.49000  -0.48804
 Alpha  occ. eigenvalues --   -0.48558  -0.48500  -0.48066  -0.47771  -0.47728
 Alpha  occ. eigenvalues --   -0.47457  -0.47269  -0.46997  -0.46799  -0.46593
 Alpha  occ. eigenvalues --   -0.46429  -0.46381  -0.46345  -0.46270  -0.46105
 Alpha  occ. eigenvalues --   -0.45899  -0.45706  -0.45312  -0.45277  -0.45088
 Alpha  occ. eigenvalues --   -0.44885  -0.44551  -0.44505  -0.44450  -0.44354
 Alpha  occ. eigenvalues --   -0.44270  -0.44167  -0.43648  -0.43225  -0.43062
 Alpha  occ. eigenvalues --   -0.43012  -0.42967  -0.42642  -0.42411  -0.42284
 Alpha  occ. eigenvalues --   -0.42107  -0.41768  -0.41708  -0.41526  -0.40826
 Alpha  occ. eigenvalues --   -0.40815  -0.40697  -0.40442  -0.40283  -0.40148
 Alpha  occ. eigenvalues --   -0.40010  -0.39958  -0.39766  -0.39083  -0.38767
 Alpha  occ. eigenvalues --   -0.38444  -0.38292  -0.37711  -0.37683  -0.37355
 Alpha  occ. eigenvalues --   -0.37140  -0.36684  -0.36633  -0.36573  -0.36465
 Alpha  occ. eigenvalues --   -0.36292  -0.35375  -0.34857  -0.34324  -0.34034
 Alpha  occ. eigenvalues --   -0.33742  -0.33715  -0.33514  -0.31744  -0.30959
 Alpha  occ. eigenvalues --   -0.30378  -0.30186  -0.29950  -0.28933  -0.24321
 Alpha  occ. eigenvalues --   -0.21609
 Alpha virt. eigenvalues --   -0.08981  -0.02094   0.00068   0.01357   0.02430
 Alpha virt. eigenvalues --    0.03611   0.03763   0.05109   0.05788   0.07213
 Alpha virt. eigenvalues --    0.07522   0.08357   0.08626   0.08903   0.09210

 Mulliken charges:
               1
     1  Mg   0.802571
     2  C    0.019980
     3  C   -0.072746
     4  C   -0.076834
     5  C   -0.089650
     6  N   -0.270005
     7  C   -0.059294
     8  C    0.013447
     9  C   -0.065912
    10  C    0.055568
    11  C    0.078996
    12  C    0.066662
    13  C    0.078009
    14  C    0.156939
    15  O   -0.261097
    16  O   -0.355005
    17  N   -0.378166
    18  C    0.142406
    19  C   -0.167930
    20  C   -0.061742
    21  C    0.154831
    22  C    0.103187
    23  C    0.012416
    24  O   -0.214111
    25  C    0.048752
    26  N   -0.271591
    27  C    0.010457
    28  C   -0.003073
    29  C   -0.098499
    30  C    0.051988
    31  C    0.101793
    32  C    0.065610
    33  C   -0.004224
    34  N   -0.320665
    35  C    0.099686
    36  C   -0.186264
    37  C    0.032835
    38  C    0.090283
    39  C    0.129215
    40  C    0.066068
    41  O   -0.160925
    42  C   -0.071872
    43  C    0.210318
    44  O   -0.232436
    45  O   -0.340118
    46  C    0.178786
    47  C    0.289601
    48  C   -0.113712
    49  C   -0.156532
    50  C    0.065548
    51  C    0.082218
    52  C    0.042813
    53  C    0.061999
    54  C   -0.138815
    55  C    0.074972
    56  C    0.039381
    57  C   -0.002502
    58  C    0.045805
    59  C   -0.170470
    60  C    0.044146
    61  C    0.057581
    62  C    0.025474
    63  C    0.071524
    64  C   -0.178284
    65  C    0.075118
    66  C    0.033918
    67  H   -0.017635
    68  H   -0.066476
    69  H   -0.022066
    70  H    0.012171
    71  H    0.019189
    72  H    0.027628
    73  H    0.019355
    74  H    0.021293
    75  H    0.019264
    76  H    0.026184
    77  H    0.023288
    78  H    0.039610
    79  H    0.017212
    80  H    0.040526
    81  H    0.020554
    82  H    0.046900
    83  H    0.037526
    84  H    0.030762
    85  H    0.010145
    86  H    0.000995
    87  H    0.022435
    88  H    0.022974
    89  H    0.016649
    90  H    0.026434
    91  H   -0.001341
    92  H    0.009611
    93  H    0.010071
    94  H    0.014863
    95  H    0.029063
    96  H    0.036461
    97  H    0.024498
    98  H    0.055569
    99  H    0.032469
   100  H    0.045717
   101  H    0.034440
   102  H    0.008025
   103  H    0.051122
   104  H   -0.010195
   105  H    0.021165
   106  H    0.025109
   107  H    0.038751
   108  H    0.004465
   109  H   -0.010782
   110  H    0.008085
   111  H   -0.004728
   112  H   -0.023531
   113  H   -0.009426
   114  H   -0.004981
   115  H    0.013480
   116  H    0.001410
   117  H    0.010709
   118  H   -0.006030
   119  H   -0.021267
   120  H   -0.017955
   121  H   -0.017881
   122  H   -0.005069
   123  H   -0.011491
   124  H   -0.001364
   125  H    0.019687
   126  H    0.013293
   127  H    0.023824
   128  H   -0.006350
   129  H   -0.021162
   130  H    0.005864
   131  H   -0.007696
   132  H   -0.010431
   133  H   -0.008815
   134  H   -0.002040
   135  H    0.008949
   136  H   -0.000733
   137  H   -0.001563
   138  H   -0.009315
   139  H    0.002161
   140  H    0.011943
 Sum of Mulliken charges =  -0.00000

 Dipole moment (field-independent basis, Debye):
    X=              1.6485    Y=              1.8760    Z=              1.3941  Tot=              2.8601
 Quadrupole moment (field-independent basis, Debye-Ang):
   XX=           -351.2455   YY=           -452.4923   ZZ=           -396.5934
   XY=             25.4732   XZ=              1.6794   YZ=             34.8975

 Normal termination of Gaussian 16 at Wed May  4 06:56:26 2022.
