 Gaussian 16, Revision A.03,
 Gaussian 16:  ES64L-G16RevA.03 25-Dec-2016

 ---------------------------------
 #p PBE1PBE/Def2SVP td=(nstates=5)
 ---------------------------------

 -----------------------------------------------------
 step_1451_chromophore_5 TDDFT with PBE1PBE functional
 -----------------------------------------------------
 Symbolic Z-matrix:
 Charge =  0 Multiplicity = 1

                         Standard orientation:
 ---------------------------------------------------------------------
 Center     Atomic      Atomic             Coordinates (Angstroms)
 Number     Number       Type             X           Y           Z
 ---------------------------------------------------------------------
      1         12           0        5.400538    0.619886   -0.426417
      2          6           0        4.259810   -2.752488   -0.196156
      3          6           0        2.903184    1.236875   -2.540090
      4          6           0        6.065647    3.902871   -0.125456
      5          6           0        7.563569   -0.094702    2.331277
      6          7           0        3.709525   -0.647005   -1.177796
      7          6           0        3.414144   -1.978132   -1.031814
      8          6           0        2.133636   -2.388463   -1.781845
      9          6           0        2.002016   -1.154073   -2.791345
     10          6           0        2.924972   -0.085125   -2.122175
     11          6           0        2.425541   -1.456604   -4.251407
     12          6           0        1.000975   -2.569405   -0.691261
     13          6           0       -0.142148   -3.584762   -1.091077
     14          6           0       -1.508934   -2.952494   -1.415723
     15          8           0       -1.713343   -2.295623   -2.455745
     16          8           0       -2.448825   -3.275634   -0.428519
     17          7           0        4.666679    2.399336   -1.213167
     18          6           0        3.591103    2.366574   -2.072474
     19          6           0        3.191219    3.695881   -2.299663
     20          6           0        4.277682    4.598211   -1.766514
     21          6           0        5.078556    3.654936   -0.997257
     22          6           0        2.023316    4.062453   -3.276732
     23          6           0        4.318701    6.134708   -1.872879
     24          8           0        3.587360    6.743388   -2.663644
     25          6           0        5.428234    6.937221   -1.145238
     26          7           0        6.605768    1.717994    0.960813
     27          6           0        6.771808    3.079857    0.747897
     28          6           0        7.905604    3.652013    1.639513
     29          6           0        8.158557    2.374547    2.595043
     30          6           0        7.435255    1.235178    1.872179
     31          6           0        9.173658    3.925113    0.822102
     32          6           0        7.600939    2.490080    4.034924
     33          6           0        8.548274    2.089916    5.107506
     34          7           0        5.897627   -1.085141    0.865991
     35          6           0        6.814982   -1.207158    1.863943
     36          6           0        6.852408   -2.588738    2.310574
     37          6           0        5.895147   -3.214298    1.518015
     38          6           0        5.255624   -2.284113    0.665249
     39          6           0        7.783269   -3.178838    3.325320
     40          6           0        5.288760   -4.516049    1.178725
     41          8           0        5.610051   -5.607817    1.629261
     42          6           0        3.994085   -4.204084    0.207296
     43          6           0        3.880896   -5.261408   -0.837212
     44          8           0        3.132366   -6.254547   -0.746818
     45          8           0        4.842623   -5.060897   -1.805465
     46          6           0        4.754901   -6.034997   -2.917695
     47          6           0       -3.781012   -2.610086   -0.621157
     48          6           0       -3.857091   -1.457297    0.289688
     49          6           0       -4.834574   -1.083218    1.116824
     50          6           0       -6.189440   -1.767594    1.146000
     51          6           0       -4.676875    0.178954    1.994248
     52          6           0       -4.620729    1.516718    1.250407
     53          6           0       -5.893428    2.302419    1.459819
     54          6           0       -6.884757    2.256080    0.231688
     55          6           0       -7.183887    3.626807   -0.342330
     56          6           0       -8.064996    1.456980    0.692458
     57          6           0       -8.957827    1.028965   -0.514070
     58          6           0       -9.841047   -0.187562   -0.158507
     59          6           0      -11.362177    0.178275    0.033609
     60          6           0      -12.044082    0.752586   -1.315608
     61          6           0      -12.176129   -1.070348    0.633404
     62          6           0      -13.229565   -0.581906    1.595673
     63          6           0      -14.688217   -0.593839    1.093251
     64          6           0      -15.351344    0.760863    1.348278
     65          6           0      -16.729938    0.718105    1.881097
     66          6           0      -15.201112    1.719999    0.120740
     67          1           0        2.242482    1.503734   -3.367677
     68          1           0        6.378140    4.947005   -0.197221
     69          1           0        8.124440   -0.241693    3.256508
     70          1           0        2.323699   -3.291524   -2.362203
     71          1           0        1.012144   -0.697952   -2.814491
     72          1           0        1.949674   -0.747515   -4.929541
     73          1           0        2.042329   -2.467475   -4.389009
     74          1           0        3.502864   -1.403337   -4.406381
     75          1           0        0.436246   -1.653863   -0.517060
     76          1           0        1.401628   -2.843592    0.284501
     77          1           0       -0.312100   -4.188904   -0.199859
     78          1           0        0.118580   -4.271320   -1.895930
     79          1           0        1.032167    3.831003   -2.885474
     80          1           0        2.287491    3.781687   -4.295248
     81          1           0        1.947342    5.149672   -3.257407
     82          1           0        6.402344    6.660843   -1.547294
     83          1           0        5.343854    6.562491   -0.124155
     84          1           0        5.330411    8.013815   -1.283360
     85          1           0        7.375470    4.420207    2.202793
     86          1           0        9.192649    2.041424    2.688454
     87          1           0        9.035541    4.815445    0.208732
     88          1           0        9.434474    3.026888    0.263115
     89          1           0        9.954439    4.115437    1.558885
     90          1           0        6.647574    1.977608    4.163468
     91          1           0        7.434296    3.560713    4.154773
     92          1           0        7.989010    1.608328    5.909919
     93          1           0        9.046007    2.873233    5.680411
     94          1           0        9.352281    1.458633    4.730545
     95          1           0        7.937895   -4.200015    2.975205
     96          1           0        7.297016   -3.311232    4.291589
     97          1           0        8.757526   -2.690769    3.325497
     98          1           0        3.107980   -4.231155    0.842187
     99          1           0        3.892582   -5.952400   -3.579406
    100          1           0        4.752365   -7.043109   -2.503892
    101          1           0        5.638378   -5.971286   -3.553348
    102          1           0       -4.439613   -3.400032   -0.260499
    103          1           0       -4.028259   -2.373394   -1.655905
    104          1           0       -2.880922   -0.978172    0.223184
    105          1           0       -6.748936   -1.411167    2.011123
    106          1           0       -6.162492   -2.856171    1.201605
    107          1           0       -6.766829   -1.499659    0.261240
    108          1           0       -3.698737    0.122679    2.473522
    109          1           0       -5.403105    0.292130    2.799385
    110          1           0       -4.453606    1.293079    0.196625
    111          1           0       -3.811634    2.127192    1.649715
    112          1           0       -5.682945    3.359301    1.620698
    113          1           0       -6.406557    2.005323    2.374662
    114          1           0       -6.513818    1.622203   -0.573608
    115          1           0       -8.245204    3.870982   -0.389213
    116          1           0       -6.816523    3.521419   -1.363793
    117          1           0       -6.584111    4.429875    0.085502
    118          1           0       -8.781602    2.007938    1.302194
    119          1           0       -7.765257    0.530794    1.183196
    120          1           0       -8.355579    0.935447   -1.417615
    121          1           0       -9.656029    1.804384   -0.827683
    122          1           0       -9.447383   -0.725117    0.704905
    123          1           0       -9.822335   -0.874010   -1.004132
    124          1           0      -11.315404    0.993145    0.756252
    125          1           0      -12.971892    0.244608   -1.581710
    126          1           0      -11.359128    0.612238   -2.151126
    127          1           0      -12.184884    1.794772   -1.027947
    128          1           0      -11.533474   -1.878522    0.982226
    129          1           0      -12.803673   -1.515654   -0.137860
    130          1           0      -12.855834    0.376935    1.957197
    131          1           0      -13.326992   -1.370483    2.341998
    132          1           0      -15.241728   -1.392321    1.588014
    133          1           0      -14.709729   -0.786150    0.020470
    134          1           0      -14.789344    1.336160    2.084298
    135          1           0      -16.827479    1.515526    2.616700
    136          1           0      -16.952858   -0.269684    2.285330
    137          1           0      -17.458989    0.885599    1.088665
    138          1           0      -16.179788    2.096730   -0.178595
    139          1           0      -14.854146    1.238660   -0.793512
    140          1           0      -14.600899    2.594089    0.374063
 ---------------------------------------------------------------------

 SCF Done:  E(RPBE1PBE) =  -3005.34075723     A.U. after   15 cycles

 Excitation energies and oscillator strengths:

 Excited State   1:      Singlet-A      1.9046 eV  650.99 nm  f=0.3770  <S**2>=0.000
     245 -> 248       -0.17813
     246 -> 247        0.69018
     246 <- 247       -0.10326
 This state for optimization and/or second-order correction.
 Total Energy, E(TD-HF/TD-DFT) =  -3005.27076624
 Copying the excited state density for this state as the 1-particle RhoCI density.

 Excited State   2:      Singlet-A      2.2335 eV  555.11 nm  f=0.1070  <S**2>=0.000
     245 -> 247        0.65267
     246 -> 248        0.24964

 Excited State   3:      Singlet-A      2.8579 eV  433.83 nm  f=0.0075  <S**2>=0.000
     242 -> 247        0.11121
     244 -> 247        0.68954

 Excited State   4:      Singlet-A      2.9371 eV  422.14 nm  f=0.0024  <S**2>=0.000
     240 -> 247       -0.28083
     241 -> 247       -0.10808
     242 -> 247       -0.37649
     243 -> 247        0.47806

 Excited State   5:      Singlet-A      2.9499 eV  420.29 nm  f=0.0018  <S**2>=0.000
     240 -> 247        0.26167
     242 -> 247        0.38903
     243 -> 247        0.47000
     243 -> 249       -0.11433

 The electronic state is 1-A.
 Alpha  occ. eigenvalues --  -46.93163 -19.26571 -19.26306 -19.20641 -19.20327
 Alpha  occ. eigenvalues --  -19.20110 -19.18805 -14.42175 -14.41640 -14.38759
 Alpha  occ. eigenvalues --  -14.38699 -10.37029 -10.36799 -10.33233 -10.32635
 Alpha  occ. eigenvalues --  -10.29637 -10.29224 -10.29182 -10.28885 -10.28695
 Alpha  occ. eigenvalues --  -10.28578 -10.27649 -10.27342 -10.27074 -10.26833
 Alpha  occ. eigenvalues --  -10.26815 -10.26681 -10.26394 -10.26354 -10.26186
 Alpha  occ. eigenvalues --  -10.26075 -10.25969 -10.25886 -10.25496 -10.25245
 Alpha  occ. eigenvalues --  -10.25232 -10.25161 -10.24797 -10.24499 -10.24407
 Alpha  occ. eigenvalues --  -10.23970 -10.23880 -10.23871 -10.23822 -10.23780
 Alpha  occ. eigenvalues --  -10.23724 -10.23545 -10.23395 -10.23143 -10.22998
 Alpha  occ. eigenvalues --  -10.22917 -10.22620 -10.22586 -10.22343 -10.22338
 Alpha  occ. eigenvalues --  -10.22311 -10.22209 -10.22007 -10.21941 -10.21904
 Alpha  occ. eigenvalues --  -10.21894 -10.21818 -10.21629 -10.21613 -10.21492
 Alpha  occ. eigenvalues --  -10.21104  -3.15094  -1.87931  -1.87459  -1.87307
 Alpha  occ. eigenvalues --   -1.10508  -1.09631  -1.04921  -1.03538  -1.01994
 Alpha  occ. eigenvalues --   -1.01818  -0.99137  -0.98551  -0.98049  -0.97341
 Alpha  occ. eigenvalues --   -0.86982  -0.85046  -0.83948  -0.83868  -0.83463
 Alpha  occ. eigenvalues --   -0.83360  -0.83107  -0.82016  -0.81264  -0.80894
 Alpha  occ. eigenvalues --   -0.79940  -0.79191  -0.78828  -0.78540  -0.78164
 Alpha  occ. eigenvalues --   -0.77189  -0.76348  -0.75402  -0.75278  -0.74737
 Alpha  occ. eigenvalues --   -0.73670  -0.72542  -0.72098  -0.71351  -0.70609
 Alpha  occ. eigenvalues --   -0.70127  -0.69589  -0.69564  -0.68772  -0.68601
 Alpha  occ. eigenvalues --   -0.67718  -0.67161  -0.66693  -0.64903  -0.63382
 Alpha  occ. eigenvalues --   -0.63042  -0.62869  -0.61699  -0.60697  -0.60418
 Alpha  occ. eigenvalues --   -0.60257  -0.59626  -0.59182  -0.58656  -0.57912
 Alpha  occ. eigenvalues --   -0.57759  -0.57646  -0.57323  -0.56553  -0.55135
 Alpha  occ. eigenvalues --   -0.54795  -0.54190  -0.53736  -0.53206  -0.52233
 Alpha  occ. eigenvalues --   -0.51793  -0.51234  -0.50659  -0.50200  -0.50101
 Alpha  occ. eigenvalues --   -0.49584  -0.49219  -0.49110  -0.48824  -0.48464
 Alpha  occ. eigenvalues --   -0.48348  -0.48134  -0.47665  -0.47504  -0.47282
 Alpha  occ. eigenvalues --   -0.46982  -0.46878  -0.46570  -0.46512  -0.46179
 Alpha  occ. eigenvalues --   -0.46109  -0.46080  -0.45712  -0.45490  -0.45021
 Alpha  occ. eigenvalues --   -0.44896  -0.44804  -0.44665  -0.44553  -0.44299
 Alpha  occ. eigenvalues --   -0.44176  -0.43951  -0.43654  -0.43630  -0.43374
 Alpha  occ. eigenvalues --   -0.43128  -0.43074  -0.42770  -0.42442  -0.42343
 Alpha  occ. eigenvalues --   -0.42121  -0.41944  -0.41796  -0.41455  -0.41343
 Alpha  occ. eigenvalues --   -0.41082  -0.41033  -0.40998  -0.40841  -0.40809
 Alpha  occ. eigenvalues --   -0.40535  -0.40494  -0.40012  -0.39945  -0.39769
 Alpha  occ. eigenvalues --   -0.39531  -0.39299  -0.39286  -0.39172  -0.39073
 Alpha  occ. eigenvalues --   -0.39001  -0.38957  -0.38438  -0.37970  -0.37913
 Alpha  occ. eigenvalues --   -0.37766  -0.37709  -0.37345  -0.37282  -0.37055
 Alpha  occ. eigenvalues --   -0.36952  -0.36672  -0.36501  -0.36411  -0.35753
 Alpha  occ. eigenvalues --   -0.35587  -0.35512  -0.35260  -0.35184  -0.34960
 Alpha  occ. eigenvalues --   -0.34913  -0.34749  -0.34711  -0.33938  -0.33557
 Alpha  occ. eigenvalues --   -0.33399  -0.33049  -0.32775  -0.32533  -0.32153
 Alpha  occ. eigenvalues --   -0.31963  -0.31719  -0.31663  -0.31540  -0.31330
 Alpha  occ. eigenvalues --   -0.31174  -0.30225  -0.29871  -0.29219  -0.28986
 Alpha  occ. eigenvalues --   -0.28850  -0.28739  -0.28690  -0.27336  -0.25951
 Alpha  occ. eigenvalues --   -0.25459  -0.25414  -0.25289  -0.24712  -0.21267
 Alpha  occ. eigenvalues --   -0.19257
 Alpha virt. eigenvalues --   -0.11468  -0.05605  -0.04117  -0.02030  -0.01452
 Alpha virt. eigenvalues --   -0.00864  -0.00761   0.00719   0.01745   0.02963
 Alpha virt. eigenvalues --    0.03762   0.05040   0.05101   0.05380   0.05790

 Mulliken charges:
               1
     1  Mg   0.939866
     2  C    0.021161
     3  C   -0.062578
     4  C   -0.077068
     5  C   -0.076033
     6  N   -0.370504
     7  C    0.013878
     8  C   -0.059853
     9  C   -0.139027
    10  C    0.093905
    11  C    0.021883
    12  C    0.018461
    13  C    0.003540
    14  C    0.219523
    15  O   -0.291482
    16  O   -0.380990
    17  N   -0.499217
    18  C    0.168162
    19  C   -0.188027
    20  C   -0.094490
    21  C    0.182838
    22  C    0.035208
    23  C    0.059949
    24  O   -0.247952
    25  C   -0.031547
    26  N   -0.374381
    27  C    0.051893
    28  C   -0.092147
    29  C   -0.169983
    30  C    0.091524
    31  C    0.042768
    32  C    0.007423
    33  C   -0.073870
    34  N   -0.440747
    35  C    0.125616
    36  C   -0.210463
    37  C   -0.021461
    38  C    0.130333
    39  C    0.073802
    40  C    0.166500
    41  O   -0.205600
    42  C   -0.188421
    43  C    0.297612
    44  O   -0.268678
    45  O   -0.368543
    46  C    0.122784
    47  C    0.238659
    48  C   -0.119418
    49  C   -0.202762
    50  C    0.000169
    51  C    0.021933
    52  C   -0.022172
    53  C    0.005981
    54  C   -0.225629
    55  C    0.018203
    56  C   -0.022150
    57  C   -0.059808
    58  C   -0.011311
    59  C   -0.251725
    60  C   -0.016062
    61  C    0.003755
    62  C   -0.039761
    63  C    0.014745
    64  C   -0.270702
    65  C    0.013583
    66  C   -0.022009
    67  H    0.013564
    68  H   -0.029606
    69  H    0.011883
    70  H    0.051503
    71  H    0.054902
    72  H    0.054497
    73  H    0.048001
    74  H    0.049015
    75  H    0.051392
    76  H    0.059444
    77  H    0.056371
    78  H    0.069673
    79  H    0.046776
    80  H    0.068152
    81  H    0.050643
    82  H    0.073929
    83  H    0.064339
    84  H    0.059340
    85  H    0.045453
    86  H    0.037555
    87  H    0.050522
    88  H    0.051121
    89  H    0.046562
    90  H    0.058088
    91  H    0.033143
    92  H    0.037810
    93  H    0.037904
    94  H    0.039932
    95  H    0.057318
    96  H    0.063855
    97  H    0.049770
    98  H    0.093010
    99  H    0.053490
   100  H    0.067224
   101  H    0.056313
   102  H    0.036726
   103  H    0.077153
   104  H    0.020500
   105  H    0.046148
   106  H    0.052007
   107  H    0.068438
   108  H    0.038264
   109  H    0.020265
   110  H    0.041006
   111  H    0.028385
   112  H    0.009828
   113  H    0.022298
   114  H    0.032817
   115  H    0.040069
   116  H    0.028991
   117  H    0.037072
   118  H    0.028138
   119  H    0.020057
   120  H    0.013261
   121  H    0.016508
   122  H    0.026237
   123  H    0.022841
   124  H    0.037136
   125  H    0.045231
   126  H    0.040901
   127  H    0.049977
   128  H    0.024431
   129  H    0.013190
   130  H    0.036685
   131  H    0.027335
   132  H    0.021401
   133  H    0.022596
   134  H    0.036803
   135  H    0.036386
   136  H    0.026935
   137  H    0.025895
   138  H    0.018278
   139  H    0.029674
   140  H    0.038161
 Sum of Mulliken charges =  -0.00000

 Dipole moment (field-independent basis, Debye):
    X=              1.6439    Y=              2.2428    Z=              1.2945  Tot=              3.0673
 Quadrupole moment (field-independent basis, Debye-Ang):
   XX=           -347.1691   YY=           -449.7878   ZZ=           -392.9329
   XY=             27.3528   XZ=              2.3990   YZ=             34.8722

 Normal termination of Gaussian 16 at Wed May  4 07:13:20 2022.
