 Gaussian 16, Revision A.03,
 Gaussian 16:  ES64L-G16RevA.03 25-Dec-2016

 --------------------------------
 #p wB97XD/Def2SVP td=(nstates=5)
 --------------------------------

 ----------------------------------------------------
 step_1451_chromophore_5 TDDFT with wB97XD functional
 ----------------------------------------------------
 Symbolic Z-matrix:
 Charge =  0 Multiplicity = 1

                         Standard orientation:
 ---------------------------------------------------------------------
 Center     Atomic      Atomic             Coordinates (Angstroms)
 Number     Number       Type             X           Y           Z
 ---------------------------------------------------------------------
      1         12           0        5.400538    0.619886   -0.426417
      2          6           0        4.259810   -2.752488   -0.196156
      3          6           0        2.903184    1.236875   -2.540090
      4          6           0        6.065647    3.902871   -0.125456
      5          6           0        7.563569   -0.094702    2.331277
      6          7           0        3.709525   -0.647005   -1.177796
      7          6           0        3.414144   -1.978132   -1.031814
      8          6           0        2.133636   -2.388463   -1.781845
      9          6           0        2.002016   -1.154073   -2.791345
     10          6           0        2.924972   -0.085125   -2.122175
     11          6           0        2.425541   -1.456604   -4.251407
     12          6           0        1.000975   -2.569405   -0.691261
     13          6           0       -0.142148   -3.584762   -1.091077
     14          6           0       -1.508934   -2.952494   -1.415723
     15          8           0       -1.713343   -2.295623   -2.455745
     16          8           0       -2.448825   -3.275634   -0.428519
     17          7           0        4.666679    2.399336   -1.213167
     18          6           0        3.591103    2.366574   -2.072474
     19          6           0        3.191219    3.695881   -2.299663
     20          6           0        4.277682    4.598211   -1.766514
     21          6           0        5.078556    3.654936   -0.997257
     22          6           0        2.023316    4.062453   -3.276732
     23          6           0        4.318701    6.134708   -1.872879
     24          8           0        3.587360    6.743388   -2.663644
     25          6           0        5.428234    6.937221   -1.145238
     26          7           0        6.605768    1.717994    0.960813
     27          6           0        6.771808    3.079857    0.747897
     28          6           0        7.905604    3.652013    1.639513
     29          6           0        8.158557    2.374547    2.595043
     30          6           0        7.435255    1.235178    1.872179
     31          6           0        9.173658    3.925113    0.822102
     32          6           0        7.600939    2.490080    4.034924
     33          6           0        8.548274    2.089916    5.107506
     34          7           0        5.897627   -1.085141    0.865991
     35          6           0        6.814982   -1.207158    1.863943
     36          6           0        6.852408   -2.588738    2.310574
     37          6           0        5.895147   -3.214298    1.518015
     38          6           0        5.255624   -2.284113    0.665249
     39          6           0        7.783269   -3.178838    3.325320
     40          6           0        5.288760   -4.516049    1.178725
     41          8           0        5.610051   -5.607817    1.629261
     42          6           0        3.994085   -4.204084    0.207296
     43          6           0        3.880896   -5.261408   -0.837212
     44          8           0        3.132366   -6.254547   -0.746818
     45          8           0        4.842623   -5.060897   -1.805465
     46          6           0        4.754901   -6.034997   -2.917695
     47          6           0       -3.781012   -2.610086   -0.621157
     48          6           0       -3.857091   -1.457297    0.289688
     49          6           0       -4.834574   -1.083218    1.116824
     50          6           0       -6.189440   -1.767594    1.146000
     51          6           0       -4.676875    0.178954    1.994248
     52          6           0       -4.620729    1.516718    1.250407
     53          6           0       -5.893428    2.302419    1.459819
     54          6           0       -6.884757    2.256080    0.231688
     55          6           0       -7.183887    3.626807   -0.342330
     56          6           0       -8.064996    1.456980    0.692458
     57          6           0       -8.957827    1.028965   -0.514070
     58          6           0       -9.841047   -0.187562   -0.158507
     59          6           0      -11.362177    0.178275    0.033609
     60          6           0      -12.044082    0.752586   -1.315608
     61          6           0      -12.176129   -1.070348    0.633404
     62          6           0      -13.229565   -0.581906    1.595673
     63          6           0      -14.688217   -0.593839    1.093251
     64          6           0      -15.351344    0.760863    1.348278
     65          6           0      -16.729938    0.718105    1.881097
     66          6           0      -15.201112    1.719999    0.120740
     67          1           0        2.242482    1.503734   -3.367677
     68          1           0        6.378140    4.947005   -0.197221
     69          1           0        8.124440   -0.241693    3.256508
     70          1           0        2.323699   -3.291524   -2.362203
     71          1           0        1.012144   -0.697952   -2.814491
     72          1           0        1.949674   -0.747515   -4.929541
     73          1           0        2.042329   -2.467475   -4.389009
     74          1           0        3.502864   -1.403337   -4.406381
     75          1           0        0.436246   -1.653863   -0.517060
     76          1           0        1.401628   -2.843592    0.284501
     77          1           0       -0.312100   -4.188904   -0.199859
     78          1           0        0.118580   -4.271320   -1.895930
     79          1           0        1.032167    3.831003   -2.885474
     80          1           0        2.287491    3.781687   -4.295248
     81          1           0        1.947342    5.149672   -3.257407
     82          1           0        6.402344    6.660843   -1.547294
     83          1           0        5.343854    6.562491   -0.124155
     84          1           0        5.330411    8.013815   -1.283360
     85          1           0        7.375470    4.420207    2.202793
     86          1           0        9.192649    2.041424    2.688454
     87          1           0        9.035541    4.815445    0.208732
     88          1           0        9.434474    3.026888    0.263115
     89          1           0        9.954439    4.115437    1.558885
     90          1           0        6.647574    1.977608    4.163468
     91          1           0        7.434296    3.560713    4.154773
     92          1           0        7.989010    1.608328    5.909919
     93          1           0        9.046007    2.873233    5.680411
     94          1           0        9.352281    1.458633    4.730545
     95          1           0        7.937895   -4.200015    2.975205
     96          1           0        7.297016   -3.311232    4.291589
     97          1           0        8.757526   -2.690769    3.325497
     98          1           0        3.107980   -4.231155    0.842187
     99          1           0        3.892582   -5.952400   -3.579406
    100          1           0        4.752365   -7.043109   -2.503892
    101          1           0        5.638378   -5.971286   -3.553348
    102          1           0       -4.439613   -3.400032   -0.260499
    103          1           0       -4.028259   -2.373394   -1.655905
    104          1           0       -2.880922   -0.978172    0.223184
    105          1           0       -6.748936   -1.411167    2.011123
    106          1           0       -6.162492   -2.856171    1.201605
    107          1           0       -6.766829   -1.499659    0.261240
    108          1           0       -3.698737    0.122679    2.473522
    109          1           0       -5.403105    0.292130    2.799385
    110          1           0       -4.453606    1.293079    0.196625
    111          1           0       -3.811634    2.127192    1.649715
    112          1           0       -5.682945    3.359301    1.620698
    113          1           0       -6.406557    2.005323    2.374662
    114          1           0       -6.513818    1.622203   -0.573608
    115          1           0       -8.245204    3.870982   -0.389213
    116          1           0       -6.816523    3.521419   -1.363793
    117          1           0       -6.584111    4.429875    0.085502
    118          1           0       -8.781602    2.007938    1.302194
    119          1           0       -7.765257    0.530794    1.183196
    120          1           0       -8.355579    0.935447   -1.417615
    121          1           0       -9.656029    1.804384   -0.827683
    122          1           0       -9.447383   -0.725117    0.704905
    123          1           0       -9.822335   -0.874010   -1.004132
    124          1           0      -11.315404    0.993145    0.756252
    125          1           0      -12.971892    0.244608   -1.581710
    126          1           0      -11.359128    0.612238   -2.151126
    127          1           0      -12.184884    1.794772   -1.027947
    128          1           0      -11.533474   -1.878522    0.982226
    129          1           0      -12.803673   -1.515654   -0.137860
    130          1           0      -12.855834    0.376935    1.957197
    131          1           0      -13.326992   -1.370483    2.341998
    132          1           0      -15.241728   -1.392321    1.588014
    133          1           0      -14.709729   -0.786150    0.020470
    134          1           0      -14.789344    1.336160    2.084298
    135          1           0      -16.827479    1.515526    2.616700
    136          1           0      -16.952858   -0.269684    2.285330
    137          1           0      -17.458989    0.885599    1.088665
    138          1           0      -16.179788    2.096730   -0.178595
    139          1           0      -14.854146    1.238660   -0.793512
    140          1           0      -14.600899    2.594089    0.374063
 ---------------------------------------------------------------------

 SCF Done:  E(RwB97XD) =  -3007.85249840     A.U. after   20 cycles

 Excitation energies and oscillator strengths:

 Excited State   1:      Singlet-A      1.6950 eV  731.48 nm  f=0.3875  <S**2>=0.000
     245 -> 248       -0.18955
     246 -> 247        0.68189
     245 <- 248       -0.11614
 This state for optimization and/or second-order correction.
 Total Energy, E(TD-HF/TD-DFT) =  -3007.79020872
 Copying the excited state density for this state as the 1-particle RhoCI density.

 Excited State   2:      Singlet-A      2.1738 eV  570.35 nm  f=0.1077  <S**2>=0.000
     245 -> 247        0.63869
     246 -> 248        0.28383

 Excited State   3:      Singlet-A      3.2542 eV  381.00 nm  f=0.0086  <S**2>=0.000
     242 -> 247        0.10131
     243 -> 247        0.33503
     244 -> 247        0.58793

 Excited State   4:      Singlet-A      3.3462 eV  370.53 nm  f=0.0087  <S**2>=0.000
     240 -> 247        0.16584
     240 -> 249        0.11758
     242 -> 247        0.15160
     243 -> 247        0.49589
     244 -> 247       -0.32548
     246 -> 248       -0.22128

 Excited State   5:      Singlet-A      3.4740 eV  356.89 nm  f=0.0534  <S**2>=0.000
     239 -> 247        0.11643
     240 -> 247        0.53049
     240 -> 249        0.25570
     240 -> 250       -0.11485
     243 -> 247       -0.10226
     246 -> 248        0.23747

 The electronic state is 1-A.
 Alpha  occ. eigenvalues --  -46.96124 -19.31291 -19.30830 -19.25313 -19.25176
 Alpha  occ. eigenvalues --  -19.25119 -19.23434 -14.47328 -14.46662 -14.43700
 Alpha  occ. eigenvalues --  -14.43590 -10.43815 -10.43788 -10.40253 -10.39290
 Alpha  occ. eigenvalues --  -10.36060 -10.35801 -10.35715 -10.35083 -10.35045
 Alpha  occ. eigenvalues --  -10.34746 -10.34183 -10.33657 -10.33388 -10.33332
 Alpha  occ. eigenvalues --  -10.33262 -10.32833 -10.32766 -10.32639 -10.32588
 Alpha  occ. eigenvalues --  -10.32520 -10.32291 -10.32092 -10.31692 -10.31595
 Alpha  occ. eigenvalues --  -10.31591 -10.31322 -10.31197 -10.30900 -10.30753
 Alpha  occ. eigenvalues --  -10.30317 -10.30240 -10.30227 -10.30217 -10.30172
 Alpha  occ. eigenvalues --  -10.30121 -10.30019 -10.29937 -10.29505 -10.29395
 Alpha  occ. eigenvalues --  -10.29317 -10.28912 -10.28900 -10.28789 -10.28657
 Alpha  occ. eigenvalues --  -10.28616 -10.28577 -10.28362 -10.28337 -10.28275
 Alpha  occ. eigenvalues --  -10.28250 -10.28146 -10.28044 -10.27986 -10.27922
 Alpha  occ. eigenvalues --  -10.27539  -3.21939  -1.95521  -1.95048  -1.94893
 Alpha  occ. eigenvalues --   -1.18061  -1.17018  -1.12587  -1.10856  -1.09344
 Alpha  occ. eigenvalues --   -1.09340  -1.06545  -1.05950  -1.05401  -1.04678
 Alpha  occ. eigenvalues --   -0.94741  -0.92717  -0.91538  -0.91476  -0.91122
 Alpha  occ. eigenvalues --   -0.90916  -0.90769  -0.89609  -0.88930  -0.88634
 Alpha  occ. eigenvalues --   -0.87581  -0.86818  -0.86392  -0.86140  -0.85818
 Alpha  occ. eigenvalues --   -0.84840  -0.84009  -0.83057  -0.82934  -0.82392
 Alpha  occ. eigenvalues --   -0.81341  -0.80247  -0.79733  -0.78958  -0.78266
 Alpha  occ. eigenvalues --   -0.77809  -0.77269  -0.77139  -0.76461  -0.76258
 Alpha  occ. eigenvalues --   -0.75307  -0.74764  -0.74204  -0.72539  -0.70954
 Alpha  occ. eigenvalues --   -0.70683  -0.70447  -0.69176  -0.68203  -0.67929
 Alpha  occ. eigenvalues --   -0.67881  -0.67041  -0.66648  -0.66302  -0.65585
 Alpha  occ. eigenvalues --   -0.65353  -0.65169  -0.64860  -0.64181  -0.62673
 Alpha  occ. eigenvalues --   -0.62107  -0.61677  -0.61173  -0.60573  -0.59633
 Alpha  occ. eigenvalues --   -0.59316  -0.58803  -0.58129  -0.57673  -0.57542
 Alpha  occ. eigenvalues --   -0.56945  -0.56692  -0.56603  -0.56267  -0.55878
 Alpha  occ. eigenvalues --   -0.55743  -0.55418  -0.55007  -0.54927  -0.54722
 Alpha  occ. eigenvalues --   -0.54292  -0.54261  -0.53942  -0.53864  -0.53647
 Alpha  occ. eigenvalues --   -0.53556  -0.53475  -0.53029  -0.52825  -0.52415
 Alpha  occ. eigenvalues --   -0.52256  -0.52188  -0.51996  -0.51888  -0.51632
 Alpha  occ. eigenvalues --   -0.51495  -0.51309  -0.50984  -0.50892  -0.50675
 Alpha  occ. eigenvalues --   -0.50488  -0.50372  -0.49980  -0.49661  -0.49617
 Alpha  occ. eigenvalues --   -0.49371  -0.49180  -0.48924  -0.48745  -0.48516
 Alpha  occ. eigenvalues --   -0.48335  -0.48279  -0.48256  -0.48110  -0.48007
 Alpha  occ. eigenvalues --   -0.47753  -0.47615  -0.47234  -0.47148  -0.47051
 Alpha  occ. eigenvalues --   -0.46836  -0.46439  -0.46403  -0.46382  -0.46270
 Alpha  occ. eigenvalues --   -0.46187  -0.46132  -0.45616  -0.45227  -0.44951
 Alpha  occ. eigenvalues --   -0.44886  -0.44843  -0.44622  -0.44369  -0.44187
 Alpha  occ. eigenvalues --   -0.44004  -0.43671  -0.43632  -0.43477  -0.42744
 Alpha  occ. eigenvalues --   -0.42674  -0.42570  -0.42313  -0.42134  -0.42003
 Alpha  occ. eigenvalues --   -0.41891  -0.41811  -0.41671  -0.40965  -0.40611
 Alpha  occ. eigenvalues --   -0.40340  -0.40120  -0.39820  -0.39545  -0.39224
 Alpha  occ. eigenvalues --   -0.39181  -0.38660  -0.38561  -0.38492  -0.38325
 Alpha  occ. eigenvalues --   -0.38152  -0.37219  -0.36889  -0.36172  -0.35949
 Alpha  occ. eigenvalues --   -0.35869  -0.35592  -0.35560  -0.33959  -0.33024
 Alpha  occ. eigenvalues --   -0.32286  -0.32202  -0.32151  -0.31095  -0.26241
 Alpha  occ. eigenvalues --   -0.23417
 Alpha virt. eigenvalues --   -0.07338  -0.00183   0.02147   0.04391   0.04641
 Alpha virt. eigenvalues --    0.05772   0.05922   0.07434   0.08416   0.09717
 Alpha virt. eigenvalues --    0.10113   0.11721   0.11871   0.12039   0.12526

 Mulliken charges:
               1
     1  Mg   0.933710
     2  C    0.011482
     3  C   -0.077505
     4  C   -0.085960
     5  C   -0.096015
     6  N   -0.337377
     7  C   -0.015493
     8  C   -0.033855
     9  C   -0.114614
    10  C    0.075560
    11  C    0.030975
    12  C    0.027815
    13  C    0.018396
    14  C    0.208689
    15  O   -0.289201
    16  O   -0.382137
    17  N   -0.463043
    18  C    0.155712
    19  C   -0.183303
    20  C   -0.096216
    21  C    0.177248
    22  C    0.051175
    23  C    0.054476
    24  O   -0.244532
    25  C   -0.013303
    26  N   -0.342802
    27  C    0.035339
    28  C   -0.059641
    29  C   -0.143339
    30  C    0.079825
    31  C    0.051910
    32  C    0.019370
    33  C   -0.059275
    34  N   -0.404705
    35  C    0.117502
    36  C   -0.202626
    37  C   -0.013670
    38  C    0.120124
    39  C    0.084429
    40  C    0.144185
    41  O   -0.195373
    42  C   -0.142428
    43  C    0.274696
    44  O   -0.262628
    45  O   -0.368474
    46  C    0.138135
    47  C    0.256126
    48  C   -0.130671
    49  C   -0.186506
    50  C    0.015261
    51  C    0.037705
    52  C   -0.005792
    53  C    0.024848
    54  C   -0.193164
    55  C    0.026458
    56  C    0.009550
    57  C   -0.043271
    58  C    0.006343
    59  C   -0.218695
    60  C   -0.004791
    61  C    0.020445
    62  C   -0.023541
    63  C    0.032370
    64  C   -0.238790
    65  C    0.026379
    66  C   -0.010716
    67  H    0.007854
    68  H   -0.044900
    69  H    0.003202
    70  H    0.037115
    71  H    0.047736
    72  H    0.049936
    73  H    0.040742
    74  H    0.043108
    75  H    0.044164
    76  H    0.049826
    77  H    0.051716
    78  H    0.065326
    79  H    0.041384
    80  H    0.062603
    81  H    0.044965
    82  H    0.067581
    83  H    0.056279
    84  H    0.058063
    85  H    0.036502
    86  H    0.024522
    87  H    0.045308
    88  H    0.044664
    89  H    0.039712
    90  H    0.050616
    91  H    0.024143
    92  H    0.032405
    93  H    0.033009
    94  H    0.032624
    95  H    0.053027
    96  H    0.060716
    97  H    0.046138
    98  H    0.084842
    99  H    0.049822
   100  H    0.063039
   101  H    0.053584
   102  H    0.030876
   103  H    0.073982
   104  H    0.015619
   105  H    0.041427
   106  H    0.047971
   107  H    0.059346
   108  H    0.031367
   109  H    0.011258
   110  H    0.029537
   111  H    0.023119
   112  H    0.001313
   113  H    0.011680
   114  H    0.015572
   115  H    0.034662
   116  H    0.023479
   117  H    0.031828
   118  H    0.018388
   119  H   -0.008405
   120  H    0.005363
   121  H    0.003068
   122  H    0.015817
   123  H    0.013203
   124  H    0.020207
   125  H    0.036957
   126  H    0.035628
   127  H    0.044261
   128  H    0.018557
   129  H    0.000906
   130  H    0.024987
   131  H    0.020116
   132  H    0.014027
   133  H    0.009765
   134  H    0.023750
   135  H    0.031539
   136  H    0.020529
   137  H    0.018818
   138  H    0.012286
   139  H    0.019684
   140  H    0.033353
 Sum of Mulliken charges =  -0.00000

 Dipole moment (field-independent basis, Debye):
    X=              1.7197    Y=              1.8598    Z=              1.3940  Tot=              2.8913
 Quadrupole moment (field-independent basis, Debye-Ang):
   XX=           -345.9953   YY=           -448.8704   ZZ=           -392.8584
   XY=             25.2379   XZ=              2.4723   YZ=             35.0791

 Normal termination of Gaussian 16 at Wed May  4 07:42:06 2022.
