 Gaussian 16, Revision A.03,
 Gaussian 16:  ES64L-G16RevA.03 25-Dec-2016

 --------------------
 #p ZINDO=(nstates=5)
 --------------------

 -----------------------------
 step_1451_chromophore_5 ZINDO
 -----------------------------
 Symbolic Z-matrix:
 Charge =  0 Multiplicity = 1

                         Standard orientation:
 ---------------------------------------------------------------------
 Center     Atomic      Atomic             Coordinates (Angstroms)
 Number     Number       Type             X           Y           Z
 ---------------------------------------------------------------------
      1         12           0        5.400538    0.619886   -0.426417
      2          6           0        4.259810   -2.752488   -0.196156
      3          6           0        2.903184    1.236875   -2.540090
      4          6           0        6.065647    3.902871   -0.125456
      5          6           0        7.563569   -0.094702    2.331277
      6          7           0        3.709525   -0.647005   -1.177796
      7          6           0        3.414144   -1.978132   -1.031814
      8          6           0        2.133636   -2.388463   -1.781845
      9          6           0        2.002016   -1.154073   -2.791345
     10          6           0        2.924972   -0.085125   -2.122175
     11          6           0        2.425541   -1.456604   -4.251407
     12          6           0        1.000975   -2.569405   -0.691261
     13          6           0       -0.142148   -3.584762   -1.091077
     14          6           0       -1.508934   -2.952494   -1.415723
     15          8           0       -1.713343   -2.295623   -2.455745
     16          8           0       -2.448825   -3.275634   -0.428519
     17          7           0        4.666679    2.399336   -1.213167
     18          6           0        3.591103    2.366574   -2.072474
     19          6           0        3.191219    3.695881   -2.299663
     20          6           0        4.277682    4.598211   -1.766514
     21          6           0        5.078556    3.654936   -0.997257
     22          6           0        2.023316    4.062453   -3.276732
     23          6           0        4.318701    6.134708   -1.872879
     24          8           0        3.587360    6.743388   -2.663644
     25          6           0        5.428234    6.937221   -1.145238
     26          7           0        6.605768    1.717994    0.960813
     27          6           0        6.771808    3.079857    0.747897
     28          6           0        7.905604    3.652013    1.639513
     29          6           0        8.158557    2.374547    2.595043
     30          6           0        7.435255    1.235178    1.872179
     31          6           0        9.173658    3.925113    0.822102
     32          6           0        7.600939    2.490080    4.034924
     33          6           0        8.548274    2.089916    5.107506
     34          7           0        5.897627   -1.085141    0.865991
     35          6           0        6.814982   -1.207158    1.863943
     36          6           0        6.852408   -2.588738    2.310574
     37          6           0        5.895147   -3.214298    1.518015
     38          6           0        5.255624   -2.284113    0.665249
     39          6           0        7.783269   -3.178838    3.325320
     40          6           0        5.288760   -4.516049    1.178725
     41          8           0        5.610051   -5.607817    1.629261
     42          6           0        3.994085   -4.204084    0.207296
     43          6           0        3.880896   -5.261408   -0.837212
     44          8           0        3.132366   -6.254547   -0.746818
     45          8           0        4.842623   -5.060897   -1.805465
     46          6           0        4.754901   -6.034997   -2.917695
     47          6           0       -3.781012   -2.610086   -0.621157
     48          6           0       -3.857091   -1.457297    0.289688
     49          6           0       -4.834574   -1.083218    1.116824
     50          6           0       -6.189440   -1.767594    1.146000
     51          6           0       -4.676875    0.178954    1.994248
     52          6           0       -4.620729    1.516718    1.250407
     53          6           0       -5.893428    2.302419    1.459819
     54          6           0       -6.884757    2.256080    0.231688
     55          6           0       -7.183887    3.626807   -0.342330
     56          6           0       -8.064996    1.456980    0.692458
     57          6           0       -8.957827    1.028965   -0.514070
     58          6           0       -9.841047   -0.187562   -0.158507
     59          6           0      -11.362177    0.178275    0.033609
     60          6           0      -12.044082    0.752586   -1.315608
     61          6           0      -12.176129   -1.070348    0.633404
     62          6           0      -13.229565   -0.581906    1.595673
     63          6           0      -14.688217   -0.593839    1.093251
     64          6           0      -15.351344    0.760863    1.348278
     65          6           0      -16.729938    0.718105    1.881097
     66          6           0      -15.201112    1.719999    0.120740
     67          1           0        2.242482    1.503734   -3.367677
     68          1           0        6.378140    4.947005   -0.197221
     69          1           0        8.124440   -0.241693    3.256508
     70          1           0        2.323699   -3.291524   -2.362203
     71          1           0        1.012144   -0.697952   -2.814491
     72          1           0        1.949674   -0.747515   -4.929541
     73          1           0        2.042329   -2.467475   -4.389009
     74          1           0        3.502864   -1.403337   -4.406381
     75          1           0        0.436246   -1.653863   -0.517060
     76          1           0        1.401628   -2.843592    0.284501
     77          1           0       -0.312100   -4.188904   -0.199859
     78          1           0        0.118580   -4.271320   -1.895930
     79          1           0        1.032167    3.831003   -2.885474
     80          1           0        2.287491    3.781687   -4.295248
     81          1           0        1.947342    5.149672   -3.257407
     82          1           0        6.402344    6.660843   -1.547294
     83          1           0        5.343854    6.562491   -0.124155
     84          1           0        5.330411    8.013815   -1.283360
     85          1           0        7.375470    4.420207    2.202793
     86          1           0        9.192649    2.041424    2.688454
     87          1           0        9.035541    4.815445    0.208732
     88          1           0        9.434474    3.026888    0.263115
     89          1           0        9.954439    4.115437    1.558885
     90          1           0        6.647574    1.977608    4.163468
     91          1           0        7.434296    3.560713    4.154773
     92          1           0        7.989010    1.608328    5.909919
     93          1           0        9.046007    2.873233    5.680411
     94          1           0        9.352281    1.458633    4.730545
     95          1           0        7.937895   -4.200015    2.975205
     96          1           0        7.297016   -3.311232    4.291589
     97          1           0        8.757526   -2.690769    3.325497
     98          1           0        3.107980   -4.231155    0.842187
     99          1           0        3.892582   -5.952400   -3.579406
    100          1           0        4.752365   -7.043109   -2.503892
    101          1           0        5.638378   -5.971286   -3.553348
    102          1           0       -4.439613   -3.400032   -0.260499
    103          1           0       -4.028259   -2.373394   -1.655905
    104          1           0       -2.880922   -0.978172    0.223184
    105          1           0       -6.748936   -1.411167    2.011123
    106          1           0       -6.162492   -2.856171    1.201605
    107          1           0       -6.766829   -1.499659    0.261240
    108          1           0       -3.698737    0.122679    2.473522
    109          1           0       -5.403105    0.292130    2.799385
    110          1           0       -4.453606    1.293079    0.196625
    111          1           0       -3.811634    2.127192    1.649715
    112          1           0       -5.682945    3.359301    1.620698
    113          1           0       -6.406557    2.005323    2.374662
    114          1           0       -6.513818    1.622203   -0.573608
    115          1           0       -8.245204    3.870982   -0.389213
    116          1           0       -6.816523    3.521419   -1.363793
    117          1           0       -6.584111    4.429875    0.085502
    118          1           0       -8.781602    2.007938    1.302194
    119          1           0       -7.765257    0.530794    1.183196
    120          1           0       -8.355579    0.935447   -1.417615
    121          1           0       -9.656029    1.804384   -0.827683
    122          1           0       -9.447383   -0.725117    0.704905
    123          1           0       -9.822335   -0.874010   -1.004132
    124          1           0      -11.315404    0.993145    0.756252
    125          1           0      -12.971892    0.244608   -1.581710
    126          1           0      -11.359128    0.612238   -2.151126
    127          1           0      -12.184884    1.794772   -1.027947
    128          1           0      -11.533474   -1.878522    0.982226
    129          1           0      -12.803673   -1.515654   -0.137860
    130          1           0      -12.855834    0.376935    1.957197
    131          1           0      -13.326992   -1.370483    2.341998
    132          1           0      -15.241728   -1.392321    1.588014
    133          1           0      -14.709729   -0.786150    0.020470
    134          1           0      -14.789344    1.336160    2.084298
    135          1           0      -16.827479    1.515526    2.616700
    136          1           0      -16.952858   -0.269684    2.285330
    137          1           0      -17.458989    0.885599    1.088665
    138          1           0      -16.179788    2.096730   -0.178595
    139          1           0      -14.854146    1.238660   -0.793512
    140          1           0      -14.600899    2.594089    0.374063
 ---------------------------------------------------------------------

 SCF Done:  E(RZINDO/S) =  -474.136398211     A.U. after   20 cycles

 Excitation energies and oscillator strengths:

 Excited State   1:      Singlet-A      1.2788 eV  969.56 nm  f=0.6056  <S**2>=0.000
     175 ->178        -0.18898
     176 ->177         0.66413
 This state for optimization and/or second-order correction.
 Total Energy, E(CIS/TDA) =  -474.089404525
 Copying the excited state density for this state as the 1-particle RhoCI density.

 Excited State   2:      Singlet-A      1.9323 eV  641.63 nm  f=0.0362  <S**2>=0.000
     175 ->177         0.53872
     176 ->178         0.43105

 Excited State   3:      Singlet-A      2.9246 eV  423.93 nm  f=0.0006  <S**2>=0.000
     167 ->177         0.10633
     167 ->179        -0.16709
     167 ->183        -0.10523
     168 ->177         0.29492
     168 ->179        -0.34008
     168 ->183        -0.19957
     168 ->185        -0.15947
     169 ->177        -0.13852
     169 ->179         0.13697
     171 ->177        -0.17567
     171 ->179         0.10277

 Excited State   4:      Singlet-A      2.9893 eV  414.77 nm  f=0.0459  <S**2>=0.000
     170 ->177         0.24478
     170 ->178        -0.15816
     170 ->179         0.26147
     170 ->181         0.15147
     170 ->183        -0.32491
     170 ->185         0.22664
     170 ->187        -0.17968
     170 ->188         0.13499
     176 ->178         0.10916
     176 ->179        -0.12686
     176 ->180        -0.14677

 Excited State   5:      Singlet-A      2.9971 eV  413.69 nm  f=0.6155  <S**2>=0.000
     170 ->183         0.11461
     175 ->177        -0.29193
     176 ->178         0.39371
     176 ->179        -0.12669
     176 ->180        -0.36647
     176 ->181         0.16505

 The electronic state is 1-A.
 Alpha  occ. eigenvalues --   -1.84008  -1.81898  -1.80025  -1.71781  -1.71333
 Alpha  occ. eigenvalues --   -1.70132  -1.66508  -1.63071  -1.57324  -1.55867
 Alpha  occ. eigenvalues --   -1.54727  -1.50728  -1.48922  -1.47763  -1.47184
 Alpha  occ. eigenvalues --   -1.45482  -1.42297  -1.41111  -1.40352  -1.39010
 Alpha  occ. eigenvalues --   -1.36133  -1.34381  -1.34226  -1.30266  -1.27995
 Alpha  occ. eigenvalues --   -1.27291  -1.25752  -1.22855  -1.20637  -1.17804
 Alpha  occ. eigenvalues --   -1.16915  -1.16004  -1.15572  -1.13760  -1.13212
 Alpha  occ. eigenvalues --   -1.12665  -1.10767  -1.08494  -1.06461  -1.04567
 Alpha  occ. eigenvalues --   -1.02242  -1.01670  -0.99355  -0.98650  -0.96992
 Alpha  occ. eigenvalues --   -0.95724  -0.94793  -0.94300  -0.93046  -0.92711
 Alpha  occ. eigenvalues --   -0.91184  -0.90307  -0.88274  -0.87446  -0.86452
 Alpha  occ. eigenvalues --   -0.85955  -0.84476  -0.83022  -0.82718  -0.81244
 Alpha  occ. eigenvalues --   -0.80541  -0.79546  -0.78532  -0.77344  -0.76392
 Alpha  occ. eigenvalues --   -0.75571  -0.75095  -0.74490  -0.73556  -0.73368
 Alpha  occ. eigenvalues --   -0.72703  -0.72330  -0.71766  -0.71522  -0.71158
 Alpha  occ. eigenvalues --   -0.70395  -0.69404  -0.68841  -0.68439  -0.68097
 Alpha  occ. eigenvalues --   -0.67889  -0.67359  -0.65967  -0.65531  -0.65332
 Alpha  occ. eigenvalues --   -0.64818  -0.64787  -0.63993  -0.63799  -0.63516
 Alpha  occ. eigenvalues --   -0.63398  -0.62731  -0.62498  -0.62173  -0.62063
 Alpha  occ. eigenvalues --   -0.61701  -0.61507  -0.61139  -0.60583  -0.60336
 Alpha  occ. eigenvalues --   -0.59858  -0.59075  -0.58794  -0.58390  -0.58062
 Alpha  occ. eigenvalues --   -0.57588  -0.57215  -0.56961  -0.56709  -0.56581
 Alpha  occ. eigenvalues --   -0.56391  -0.56105  -0.55918  -0.55217  -0.55075
 Alpha  occ. eigenvalues --   -0.54894  -0.54220  -0.53907  -0.53826  -0.53175
 Alpha  occ. eigenvalues --   -0.52770  -0.52559  -0.52285  -0.51969  -0.51512
 Alpha  occ. eigenvalues --   -0.51407  -0.51153  -0.51060  -0.50725  -0.50636
 Alpha  occ. eigenvalues --   -0.50263  -0.50188  -0.49625  -0.49114  -0.48864
 Alpha  occ. eigenvalues --   -0.48699  -0.48558  -0.48387  -0.48196  -0.47899
 Alpha  occ. eigenvalues --   -0.47302  -0.47054  -0.46877  -0.46787  -0.46411
 Alpha  occ. eigenvalues --   -0.46181  -0.46162  -0.45965  -0.45736  -0.45619
 Alpha  occ. eigenvalues --   -0.44596  -0.44524  -0.44434  -0.44308  -0.43975
 Alpha  occ. eigenvalues --   -0.43718  -0.42905  -0.42841  -0.42734  -0.42148
 Alpha  occ. eigenvalues --   -0.41871  -0.41591  -0.41048  -0.39624  -0.39213
 Alpha  occ. eigenvalues --   -0.39059  -0.37011  -0.35993  -0.35454  -0.34510
 Alpha  occ. eigenvalues --   -0.33751  -0.33024  -0.32398  -0.31344  -0.27058
 Alpha  occ. eigenvalues --   -0.22171
 Alpha virt. eigenvalues --   -0.08825  -0.02563  -0.00914   0.00573   0.00764
 Alpha virt. eigenvalues --    0.01152   0.01561   0.03065   0.04252   0.04912
 Alpha virt. eigenvalues --    0.05916   0.06118   0.07216   0.07539   0.07920

 Mulliken charges:
               1
     1  Mg   0.432209
     2  C   -0.055055
     3  C   -0.058767
     4  C   -0.066746
     5  C   -0.093889
     6  N   -0.278967
     7  C    0.140611
     8  C    0.012779
     9  C   -0.001858
    10  C    0.104556
    11  C   -0.047272
    12  C   -0.014943
    13  C    0.000357
    14  C    0.465978
    15  O   -0.524414
    16  O   -0.269011
    17  N   -0.325714
    18  C    0.087367
    19  C    0.000948
    20  C   -0.081206
    21  C    0.136250
    22  C   -0.054863
    23  C    0.319456
    24  O   -0.525926
    25  C   -0.031380
    26  N   -0.268264
    27  C    0.099535
    28  C   -0.006879
    29  C   -0.009660
    30  C    0.164053
    31  C   -0.038485
    32  C   -0.019487
    33  C   -0.054645
    34  N   -0.347170
    35  C    0.128024
    36  C    0.046522
    37  C   -0.038242
    38  C    0.118648
    39  C   -0.038011
    40  C    0.323855
    41  O   -0.493147
    42  C    0.050661
    43  C    0.483242
    44  O   -0.519309
    45  O   -0.259891
    46  C    0.073725
    47  C    0.106233
    48  C   -0.070064
    49  C   -0.006461
    50  C   -0.042685
    51  C   -0.024310
    52  C   -0.025598
    53  C   -0.038652
    54  C   -0.009931
    55  C   -0.055449
    56  C   -0.033233
    57  C   -0.051570
    58  C   -0.039344
    59  C   -0.025894
    60  C   -0.063661
    61  C   -0.044188
    62  C   -0.041611
    63  C   -0.027459
    64  C   -0.009905
    65  C   -0.050484
    66  C   -0.065113
    67  H    0.030071
    68  H    0.020495
    69  H    0.029407
    70  H    0.040196
    71  H    0.037931
    72  H    0.026914
    73  H    0.021426
    74  H    0.026982
    75  H    0.032680
    76  H    0.031718
    77  H    0.028337
    78  H    0.050793
    79  H    0.033264
    80  H    0.039455
    81  H    0.026881
    82  H    0.036151
    83  H    0.034643
    84  H    0.042019
    85  H    0.044972
    86  H    0.030063
    87  H    0.025352
    88  H    0.033386
    89  H    0.015272
    90  H    0.030958
    91  H    0.014196
    92  H    0.013582
    93  H    0.017852
    94  H    0.019880
    95  H    0.030538
    96  H    0.043891
    97  H    0.032718
    98  H    0.057999
    99  H    0.043242
   100  H    0.047940
   101  H    0.029736
   102  H    0.029326
   103  H    0.066640
   104  H    0.029147
   105  H    0.017473
   106  H    0.027450
   107  H    0.031185
   108  H    0.014196
   109  H    0.024370
   110  H    0.026858
   111  H    0.017068
   112  H    0.008869
   113  H    0.019626
   114  H    0.023105
   115  H    0.025106
   116  H    0.011247
   117  H    0.024409
   118  H    0.019260
   119  H    0.021873
   120  H    0.017436
   121  H    0.014056
   122  H    0.019242
   123  H    0.009609
   124  H    0.021373
   125  H    0.026812
   126  H    0.023891
   127  H    0.025115
   128  H    0.023940
   129  H    0.014807
   130  H    0.032047
   131  H    0.012545
   132  H    0.018487
   133  H    0.021040
   134  H    0.013165
   135  H    0.018862
   136  H    0.016418
   137  H    0.015330
   138  H    0.010185
   139  H    0.021897
   140  H    0.019405
 Sum of Mulliken charges =  -0.00000

 Dipole moment (field-independent basis, Debye):
    X=              3.4684    Y=              0.8421    Z=              3.8166  Tot=              5.2255
 N-N= 4.328348505026D+03 E-N= 0.000000000000D+00  KE=-9.330464302573D+03
 Leave Link  601 at Wed May  4 07:57:12 2022, MaxMem=  6710886400 cpu:               0.8 elap:               0.1
 (Enter /sw/apps/gaussian-16.0/g16/l9999.exe)
 1\1\GINC-BP1-COMPUTE065\SP\RZINDO CIS\STO-3G\C55H74Mg1N4O6\OF15641\04-
 May-2022\0\\#p ZINDO=(nstates=5)\\step_1451_chromophore_5 ZINDO\\0,1\M
 g,0,24.5,-6.911,47.433\C,0,27.206,-4.779,46.506\C,0,22.574,-5.278,45.2
 63\C,0,22.176,-9.312,47.814\C,0,26.892,-8.917,49.179\N,0,24.93,-5.264,
 45.973\C,0,26.04,-4.49,45.751\C,0,25.826,-3.45,44.636\C,0,24.227,-3.43
 6,44.58\C,0,23.863,-4.769,45.31\C,0,23.561,-2.206,45.248\C,0,26.601,-3
 .978,43.361\C,0,27.083,-2.847,42.368\C,0,26.325,-2.771,41.029\O,0,25.1

 Normal termination of Gaussian 16 at Wed May  4 07:57:12 2022.
