 Gaussian 16, Revision A.03,
 Gaussian 16:  ES64L-G16RevA.03 25-Dec-2016

 ------------------------------
 #p blyp/Def2SVP td=(nstates=5)
 ------------------------------

 --------------------------------------------------
 step_501_chromophore_13 TDDFT with blyp functional
 --------------------------------------------------
 Symbolic Z-matrix:
 Charge =  0 Multiplicity = 1

                         Standard orientation:
 ---------------------------------------------------------------------
 Center     Atomic      Atomic             Coordinates (Angstroms)
 Number     Number       Type             X           Y           Z
 ---------------------------------------------------------------------
      1         12           0        5.823328    0.425830    0.143313
      2          6           0        3.497117   -2.151526    0.017324
      3          6           0        3.193093    2.562531   -0.595639
      4          6           0        8.141428    2.883886   -0.244773
      5          6           0        8.322193   -1.897617    0.702920
      6          7           0        3.607881    0.211179   -0.298205
      7          6           0        2.844479   -0.945671   -0.259094
      8          6           0        1.333791   -0.726713   -0.663756
      9          6           0        1.403212    0.769708   -1.159319
     10          6           0        2.836458    1.226372   -0.698765
     11          6           0        1.218601    1.121872   -2.638307
     12          6           0        0.399592   -1.009730    0.526959
     13          6           0       -0.420117   -2.271922    0.471220
     14          6           0       -1.846991   -2.198060    1.043183
     15          8           0       -2.008274   -2.355155    2.278623
     16          8           0       -2.869291   -1.949209    0.148602
     17          7           0        5.718282    2.474842   -0.155257
     18          6           0        4.537475    3.120251   -0.352285
     19          6           0        4.893625    4.538975   -0.549191
     20          6           0        6.292290    4.656717   -0.557061
     21          6           0        6.794633    3.361505   -0.308225
     22          6           0        3.853570    5.584145   -0.585133
     23          6           0        7.160927    5.855105   -0.804597
     24          8           0        8.416300    5.843767   -0.672225
     25          6           0        6.666267    7.120992   -1.246531
     26          7           0        7.869340    0.503355    0.293904
     27          6           0        8.612332    1.630791    0.122455
     28          6           0       10.066804    1.408675    0.263271
     29          6           0       10.147879   -0.116610    0.630364
     30          6           0        8.730910   -0.523961    0.475182
     31          6           0       11.097305    1.772245   -0.845970
     32          6           0       10.847274   -0.451489    2.039314
     33          6           0       10.082444   -0.424870    3.395951
     34          7           0        5.970146   -1.598125    0.292767
     35          6           0        7.038437   -2.405448    0.558701
     36          6           0        6.605912   -3.711584    0.803939
     37          6           0        5.191305   -3.646430    0.501584
     38          6           0        4.865715   -2.333142    0.226891
     39          6           0        7.434144   -4.902578    1.282478
     40          6           0        4.001897   -4.447669    0.544181
     41          8           0        3.750740   -5.583505    0.892233
     42          6           0        2.865303   -3.519243   -0.010621
     43          6           0        2.488433   -3.946392   -1.372668
     44          8           0        2.676749   -3.307095   -2.431011
     45          8           0        1.908316   -5.164742   -1.437108
     46          6           0        1.264452   -5.614968   -2.718136
     47          6           0       -4.270282   -2.094851    0.617430
     48          6           0       -5.199830   -1.416747   -0.266701
     49          6           0       -6.490602   -1.568278   -0.457120
     50          6           0       -7.376371   -2.340445    0.417612
     51          6           0       -7.249724   -0.558814   -1.346629
     52          6           0       -7.435050    0.835359   -0.795586
     53          6           0       -8.934322    1.150505   -0.872399
     54          6           0       -9.301004    2.302728    0.131516
     55          6           0       -8.469356    3.576882   -0.228730
     56          6           0       -9.025315    1.841898    1.559841
     57          6           0      -10.124894    2.088874    2.593148
     58          6           0      -11.348276    1.117720    2.459849
     59          6           0      -12.647763    1.974394    2.288414
     60          6           0      -13.170731    2.544212    3.591281
     61          6           0      -13.632238    1.123918    1.485802
     62          6           0      -13.322716    1.059345   -0.040033
     63          6           0      -13.251273   -0.415064   -0.545230
     64          6           0      -13.415622   -0.450592   -2.096592
     65          6           0      -14.582077   -1.405558   -2.465659
     66          6           0      -12.079398   -0.628388   -2.840817
     67          1           0        2.373737    3.220220   -0.891074
     68          1           0        8.935384    3.619159   -0.392547
     69          1           0        9.022797   -2.661744    1.047475
     70          1           0        1.088340   -1.208824   -1.610604
     71          1           0        0.662433    1.305584   -0.565950
     72          1           0        2.162646    1.462393   -3.064322
     73          1           0        0.613243    2.026893   -2.658488
     74          1           0        0.797346    0.332021   -3.261181
     75          1           0       -0.318564   -0.188935    0.522295
     76          1           0        0.983162   -0.922841    1.443472
     77          1           0        0.118642   -3.034795    1.033855
     78          1           0       -0.529455   -2.719000   -0.516942
     79          1           0        4.067025    6.217145    0.275207
     80          1           0        2.800863    5.299791   -0.558296
     81          1           0        3.970705    6.183384   -1.488032
     82          1           0        5.954993    6.888212   -2.038562
     83          1           0        7.486135    7.812404   -1.436800
     84          1           0        6.026607    7.578085   -0.491503
     85          1           0       10.251698    2.036397    1.134493
     86          1           0       10.693455   -0.645438   -0.150279
     87          1           0       11.767396    2.573933   -0.535399
     88          1           0       10.597508    2.139348   -1.743013
     89          1           0       11.680959    0.919105   -1.191618
     90          1           0       11.596442    0.337324    2.110557
     91          1           0       11.314025   -1.408185    1.804359
     92          1           0        9.000576   -0.318429    3.320680
     93          1           0       10.493965    0.229175    4.165226
     94          1           0       10.299584   -1.401869    3.825722
     95          1           0        7.364697   -5.748476    0.597766
     96          1           0        7.001371   -5.244772    2.222397
     97          1           0        8.474840   -4.669533    1.509275
     98          1           0        1.964906   -3.731024    0.566292
     99          1           0        0.699048   -6.444568   -2.293426
    100          1           0        1.957372   -5.922032   -3.500820
    101          1           0        0.634799   -4.817029   -3.112968
    102          1           0       -4.365833   -1.538092    1.548815
    103          1           0       -4.557488   -3.146658    0.625474
    104          1           0       -4.728579   -0.812047   -1.041720
    105          1           0       -6.789307   -3.071566    0.973281
    106          1           0       -8.222902   -2.760228   -0.126501
    107          1           0       -7.889585   -1.762801    1.185936
    108          1           0       -8.105266   -1.088005   -1.766583
    109          1           0       -6.705326   -0.417590   -2.280547
    110          1           0       -6.925567    1.487088   -1.505988
    111          1           0       -7.069726    0.914424    0.227928
    112          1           0       -9.481077    0.260097   -0.559365
    113          1           0       -9.262693    1.459737   -1.864037
    114          1           0      -10.358413    2.552457    0.048788
    115          1           0       -7.460792    3.454727    0.164714
    116          1           0       -9.021385    4.425105    0.176858
    117          1           0       -8.477769    3.688232   -1.312922
    118          1           0       -8.155587    2.447788    1.817788
    119          1           0       -8.788847    0.781941    1.648430
    120          1           0      -10.387485    3.143074    2.677182
    121          1           0       -9.604945    1.958451    3.542369
    122          1           0      -11.402444    0.474673    3.339146
    123          1           0      -11.170413    0.368839    1.688797
    124          1           0      -12.339248    2.809703    1.659166
    125          1           0      -14.205811    2.251807    3.765968
    126          1           0      -13.101611    3.631621    3.557527
    127          1           0      -12.674732    2.140297    4.473645
    128          1           0      -14.658103    1.476247    1.597102
    129          1           0      -13.717210    0.089321    1.819493
    130          1           0      -12.410578    1.639403   -0.179711
    131          1           0      -14.118303    1.541232   -0.607931
    132          1           0      -13.924482   -1.076939   -0.000481
    133          1           0      -12.272766   -0.825240   -0.293641
    134          1           0      -13.671008    0.589918   -2.296917
    135          1           0      -15.265350   -0.963346   -3.191117
    136          1           0      -15.231551   -1.747072   -1.659401
    137          1           0      -14.190626   -2.318241   -2.914936
    138          1           0      -12.057779   -1.401772   -3.608170
    139          1           0      -11.225887   -0.883036   -2.212017
    140          1           0      -11.860077    0.380683   -3.190279
 ---------------------------------------------------------------------

 SCF Done:  E(RB-LYP) =  -3007.37017757     A.U. after   21 cycles

 Excitation energies and oscillator strengths:

 Excited State   1:      Singlet-A      1.7806 eV  696.32 nm  f=0.0527  <S**2>=0.000
     243 -> 247       -0.20519
     244 -> 247        0.56365
     245 -> 247        0.19318
     246 -> 247        0.31293
 This state for optimization and/or second-order correction.
 Total Energy, E(TD-HF/TD-DFT) =  -3007.30474264
 Copying the excited state density for this state as the 1-particle RhoCI density.

 Excited State   2:      Singlet-A      1.8214 eV  680.72 nm  f=0.1551  <S**2>=0.000
     243 -> 247       -0.25651
     244 -> 247       -0.40393
     245 -> 248       -0.13967
     246 -> 247        0.50355
     246 <- 247       -0.10960

 Excited State   3:      Singlet-A      1.8420 eV  673.11 nm  f=0.1089  <S**2>=0.000
     243 -> 247        0.51741
     245 -> 247       -0.30081
     246 -> 247        0.34785

 Excited State   4:      Singlet-A      2.0657 eV  600.21 nm  f=0.0843  <S**2>=0.000
     243 -> 247        0.34345
     245 -> 247        0.55221
     246 -> 248        0.21820

 Excited State   5:      Singlet-A      2.3965 eV  517.34 nm  f=0.0002  <S**2>=0.000
     241 -> 247        0.69127
     242 -> 247        0.11448

 The electronic state is 1-A.
 Alpha  occ. eigenvalues --  -46.26073 -18.82760 -18.81132 -18.76310 -18.75237
 Alpha  occ. eigenvalues --  -18.75153 -18.74712 -14.03091 -14.03056 -14.01024
 Alpha  occ. eigenvalues --  -14.00104 -10.04431 -10.03119  -9.99272  -9.98946
 Alpha  occ. eigenvalues --   -9.98475  -9.97963  -9.96447  -9.96424  -9.96114
 Alpha  occ. eigenvalues --   -9.96019  -9.95709  -9.95579  -9.94508  -9.94185
 Alpha  occ. eigenvalues --   -9.94069  -9.93885  -9.93716  -9.93709  -9.93643
 Alpha  occ. eigenvalues --   -9.93499  -9.93422  -9.93401  -9.93330  -9.93262
 Alpha  occ. eigenvalues --   -9.93180  -9.93163  -9.92953  -9.92591  -9.92566
 Alpha  occ. eigenvalues --   -9.92351  -9.92325  -9.92256  -9.92213  -9.92149
 Alpha  occ. eigenvalues --   -9.92098  -9.91915  -9.91784  -9.91736  -9.91661
 Alpha  occ. eigenvalues --   -9.91598  -9.91569  -9.91410  -9.91272  -9.91220
 Alpha  occ. eigenvalues --   -9.91185  -9.91164  -9.91117  -9.91029  -9.90915
 Alpha  occ. eigenvalues --   -9.90899  -9.90862  -9.90814  -9.90813  -9.90653
 Alpha  occ. eigenvalues --   -9.90541  -2.90874  -1.71310  -1.70756  -1.70577
 Alpha  occ. eigenvalues --   -0.96766  -0.96644  -0.91200  -0.89566  -0.88472
 Alpha  occ. eigenvalues --   -0.87329  -0.87086  -0.86451  -0.85628  -0.84667
 Alpha  occ. eigenvalues --   -0.75962  -0.74694  -0.73371  -0.73043  -0.72293
 Alpha  occ. eigenvalues --   -0.71829  -0.71610  -0.70974  -0.70828  -0.70568
 Alpha  occ. eigenvalues --   -0.69644  -0.69349  -0.68563  -0.67479  -0.67146
 Alpha  occ. eigenvalues --   -0.66623  -0.66382  -0.65655  -0.65234  -0.64745
 Alpha  occ. eigenvalues --   -0.64382  -0.62823  -0.62718  -0.62010  -0.60873
 Alpha  occ. eigenvalues --   -0.60567  -0.60485  -0.60099  -0.59615  -0.58810
 Alpha  occ. eigenvalues --   -0.58283  -0.58001  -0.56510  -0.55972  -0.55477
 Alpha  occ. eigenvalues --   -0.54063  -0.53702  -0.52909  -0.52633  -0.51424
 Alpha  occ. eigenvalues --   -0.51235  -0.51050  -0.50703  -0.50504  -0.50353
 Alpha  occ. eigenvalues --   -0.50101  -0.49231  -0.47883  -0.47498  -0.46615
 Alpha  occ. eigenvalues --   -0.46347  -0.46070  -0.45531  -0.45322  -0.44322
 Alpha  occ. eigenvalues --   -0.43943  -0.43889  -0.43332  -0.43029  -0.42405
 Alpha  occ. eigenvalues --   -0.41965  -0.41786  -0.41699  -0.41507  -0.41123
 Alpha  occ. eigenvalues --   -0.40826  -0.40422  -0.40259  -0.40245  -0.40094
 Alpha  occ. eigenvalues --   -0.39815  -0.39652  -0.39406  -0.39313  -0.39269
 Alpha  occ. eigenvalues --   -0.39093  -0.38719  -0.38355  -0.38265  -0.38139
 Alpha  occ. eigenvalues --   -0.37861  -0.37600  -0.37556  -0.37298  -0.37159
 Alpha  occ. eigenvalues --   -0.37111  -0.36985  -0.36825  -0.36546  -0.36448
 Alpha  occ. eigenvalues --   -0.36252  -0.36162  -0.35954  -0.35877  -0.35628
 Alpha  occ. eigenvalues --   -0.35495  -0.35001  -0.34874  -0.34728  -0.34634
 Alpha  occ. eigenvalues --   -0.34562  -0.34406  -0.34296  -0.34030  -0.33860
 Alpha  occ. eigenvalues --   -0.33780  -0.33653  -0.33504  -0.33373  -0.32894
 Alpha  occ. eigenvalues --   -0.32859  -0.32769  -0.32681  -0.32552  -0.32315
 Alpha  occ. eigenvalues --   -0.32061  -0.31993  -0.31973  -0.31846  -0.31637
 Alpha  occ. eigenvalues --   -0.31517  -0.31430  -0.31242  -0.31025  -0.31002
 Alpha  occ. eigenvalues --   -0.30524  -0.30176  -0.29968  -0.29819  -0.29747
 Alpha  occ. eigenvalues --   -0.29535  -0.29391  -0.29230  -0.29086  -0.28891
 Alpha  occ. eigenvalues --   -0.28701  -0.28639  -0.28546  -0.27951  -0.27587
 Alpha  occ. eigenvalues --   -0.27230  -0.27109  -0.26885  -0.26250  -0.26189
 Alpha  occ. eigenvalues --   -0.26154  -0.25965  -0.25916  -0.25533  -0.25417
 Alpha  occ. eigenvalues --   -0.24761  -0.24577  -0.24140  -0.23845  -0.23816
 Alpha  occ. eigenvalues --   -0.23353  -0.21852  -0.21059  -0.20652  -0.20381
 Alpha  occ. eigenvalues --   -0.20255  -0.20079  -0.18216  -0.17993  -0.16946
 Alpha  occ. eigenvalues --   -0.15751
 Alpha virt. eigenvalues --   -0.11451  -0.06667  -0.05793  -0.04592  -0.03669
 Alpha virt. eigenvalues --   -0.02058  -0.01782  -0.01594  -0.00635   0.00186
 Alpha virt. eigenvalues --    0.01341   0.01416   0.01425   0.02257   0.02790

 Mulliken charges:
               1
     1  Mg   0.706706
     2  C    0.011586
     3  C   -0.037171
     4  C   -0.056546
     5  C   -0.096626
     6  N   -0.196280
     7  C   -0.101128
     8  C    0.049092
     9  C   -0.044056
    10  C   -0.014374
    11  C    0.149322
    12  C    0.156449
    13  C    0.143109
    14  C    0.080803
    15  O   -0.229125
    16  O   -0.289143
    17  N   -0.308467
    18  C    0.142829
    19  C   -0.167856
    20  C    0.106768
    21  C    0.080935
    22  C    0.166327
    23  C   -0.098654
    24  O   -0.207957
    25  C    0.175389
    26  N   -0.225375
    27  C    0.032258
    28  C    0.022272
    29  C    0.046116
    30  C    0.025291
    31  C    0.138332
    32  C    0.067032
    33  C    0.075259
    34  N   -0.261671
    35  C    0.118335
    36  C   -0.164574
    37  C    0.071835
    38  C    0.145575
    39  C    0.179819
    40  C   -0.076538
    41  O   -0.112369
    42  C    0.023206
    43  C    0.096581
    44  O   -0.225122
    45  O   -0.261055
    46  C    0.222214
    47  C    0.370964
    48  C   -0.130125
    49  C   -0.150609
    50  C    0.140938
    51  C    0.113637
    52  C    0.115768
    53  C    0.039683
    54  C   -0.083816
    55  C    0.104361
    56  C    0.079288
    57  C    0.088914
    58  C    0.103070
    59  C   -0.079757
    60  C    0.146269
    61  C    0.120727
    62  C    0.053198
    63  C    0.061606
    64  C   -0.070983
    65  C    0.102739
    66  C    0.106166
    67  H   -0.067622
    68  H   -0.048075
    69  H   -0.074615
    70  H   -0.020558
    71  H   -0.033582
    72  H   -0.001237
    73  H   -0.013178
    74  H    0.005825
    75  H   -0.019317
    76  H   -0.001799
    77  H    0.014995
    78  H   -0.012112
    79  H    0.009321
    80  H   -0.009228
    81  H   -0.012090
    82  H   -0.003835
    83  H    0.003919
    84  H   -0.007994
    85  H   -0.014656
    86  H   -0.026787
    87  H   -0.002462
    88  H   -0.008102
    89  H   -0.009614
    90  H   -0.016626
    91  H   -0.009121
    92  H    0.014445
    93  H   -0.007085
    94  H   -0.015644
    95  H    0.012097
    96  H    0.005467
    97  H   -0.021315
    98  H   -0.008702
    99  H    0.023621
   100  H    0.026494
   101  H    0.015368
   102  H    0.011074
   103  H    0.021354
   104  H   -0.036817
   105  H   -0.020788
   106  H   -0.016104
   107  H   -0.002043
   108  H   -0.037148
   109  H   -0.048305
   110  H   -0.026754
   111  H   -0.013026
   112  H   -0.011717
   113  H   -0.027528
   114  H   -0.034787
   115  H    0.002334
   116  H   -0.015943
   117  H   -0.022117
   118  H   -0.046720
   119  H   -0.020664
   120  H   -0.039029
   121  H   -0.049082
   122  H   -0.041011
   123  H   -0.035639
   124  H   -0.034059
   125  H   -0.026595
   126  H   -0.010858
   127  H   -0.021435
   128  H   -0.053157
   129  H   -0.042472
   130  H   -0.028819
   131  H   -0.028152
   132  H   -0.027808
   133  H   -0.038660
   134  H   -0.030907
   135  H   -0.016875
   136  H   -0.016920
   137  H   -0.020941
   138  H   -0.016146
   139  H   -0.020946
   140  H   -0.012370
 Sum of Mulliken charges =  -0.00000

 Dipole moment (field-independent basis, Debye):
    X=             -2.3969    Y=              2.5536    Z=             -1.2496  Tot=              3.7185
 Quadrupole moment (field-independent basis, Debye-Ang):
   XX=           -369.4398   YY=           -417.9212   ZZ=           -409.8386
   XY=            -11.0765   XZ=             14.6270   YZ=              8.7969

 Normal termination of Gaussian 16 at Fri Apr 29 21:54:00 2022.
