 Gaussian 16, Revision A.03,
 Gaussian 16:  ES64L-G16RevA.03 25-Dec-2016

 -----------------------------------
 #p cam-b3lyp/Def2SVP td=(nstates=5)
 -----------------------------------

 -------------------------------------------------------
 step_501_chromophore_13 TDDFT with cam-b3lyp functional
 -------------------------------------------------------
 Symbolic Z-matrix:
 Charge =  0 Multiplicity = 1

                         Standard orientation:
 ---------------------------------------------------------------------
 Center     Atomic      Atomic             Coordinates (Angstroms)
 Number     Number       Type             X           Y           Z
 ---------------------------------------------------------------------
      1         12           0        5.823328    0.425830    0.143313
      2          6           0        3.497117   -2.151526    0.017324
      3          6           0        3.193093    2.562531   -0.595639
      4          6           0        8.141428    2.883886   -0.244773
      5          6           0        8.322193   -1.897617    0.702920
      6          7           0        3.607881    0.211179   -0.298205
      7          6           0        2.844479   -0.945671   -0.259094
      8          6           0        1.333791   -0.726713   -0.663756
      9          6           0        1.403212    0.769708   -1.159319
     10          6           0        2.836458    1.226372   -0.698765
     11          6           0        1.218601    1.121872   -2.638307
     12          6           0        0.399592   -1.009730    0.526959
     13          6           0       -0.420117   -2.271922    0.471220
     14          6           0       -1.846991   -2.198060    1.043183
     15          8           0       -2.008274   -2.355155    2.278623
     16          8           0       -2.869291   -1.949209    0.148602
     17          7           0        5.718282    2.474842   -0.155257
     18          6           0        4.537475    3.120251   -0.352285
     19          6           0        4.893625    4.538975   -0.549191
     20          6           0        6.292290    4.656717   -0.557061
     21          6           0        6.794633    3.361505   -0.308225
     22          6           0        3.853570    5.584145   -0.585133
     23          6           0        7.160927    5.855105   -0.804597
     24          8           0        8.416300    5.843767   -0.672225
     25          6           0        6.666267    7.120992   -1.246531
     26          7           0        7.869340    0.503355    0.293904
     27          6           0        8.612332    1.630791    0.122455
     28          6           0       10.066804    1.408675    0.263271
     29          6           0       10.147879   -0.116610    0.630364
     30          6           0        8.730910   -0.523961    0.475182
     31          6           0       11.097305    1.772245   -0.845970
     32          6           0       10.847274   -0.451489    2.039314
     33          6           0       10.082444   -0.424870    3.395951
     34          7           0        5.970146   -1.598125    0.292767
     35          6           0        7.038437   -2.405448    0.558701
     36          6           0        6.605912   -3.711584    0.803939
     37          6           0        5.191305   -3.646430    0.501584
     38          6           0        4.865715   -2.333142    0.226891
     39          6           0        7.434144   -4.902578    1.282478
     40          6           0        4.001897   -4.447669    0.544181
     41          8           0        3.750740   -5.583505    0.892233
     42          6           0        2.865303   -3.519243   -0.010621
     43          6           0        2.488433   -3.946392   -1.372668
     44          8           0        2.676749   -3.307095   -2.431011
     45          8           0        1.908316   -5.164742   -1.437108
     46          6           0        1.264452   -5.614968   -2.718136
     47          6           0       -4.270282   -2.094851    0.617430
     48          6           0       -5.199830   -1.416747   -0.266701
     49          6           0       -6.490602   -1.568278   -0.457120
     50          6           0       -7.376371   -2.340445    0.417612
     51          6           0       -7.249724   -0.558814   -1.346629
     52          6           0       -7.435050    0.835359   -0.795586
     53          6           0       -8.934322    1.150505   -0.872399
     54          6           0       -9.301004    2.302728    0.131516
     55          6           0       -8.469356    3.576882   -0.228730
     56          6           0       -9.025315    1.841898    1.559841
     57          6           0      -10.124894    2.088874    2.593148
     58          6           0      -11.348276    1.117720    2.459849
     59          6           0      -12.647763    1.974394    2.288414
     60          6           0      -13.170731    2.544212    3.591281
     61          6           0      -13.632238    1.123918    1.485802
     62          6           0      -13.322716    1.059345   -0.040033
     63          6           0      -13.251273   -0.415064   -0.545230
     64          6           0      -13.415622   -0.450592   -2.096592
     65          6           0      -14.582077   -1.405558   -2.465659
     66          6           0      -12.079398   -0.628388   -2.840817
     67          1           0        2.373737    3.220220   -0.891074
     68          1           0        8.935384    3.619159   -0.392547
     69          1           0        9.022797   -2.661744    1.047475
     70          1           0        1.088340   -1.208824   -1.610604
     71          1           0        0.662433    1.305584   -0.565950
     72          1           0        2.162646    1.462393   -3.064322
     73          1           0        0.613243    2.026893   -2.658488
     74          1           0        0.797346    0.332021   -3.261181
     75          1           0       -0.318564   -0.188935    0.522295
     76          1           0        0.983162   -0.922841    1.443472
     77          1           0        0.118642   -3.034795    1.033855
     78          1           0       -0.529455   -2.719000   -0.516942
     79          1           0        4.067025    6.217145    0.275207
     80          1           0        2.800863    5.299791   -0.558296
     81          1           0        3.970705    6.183384   -1.488032
     82          1           0        5.954993    6.888212   -2.038562
     83          1           0        7.486135    7.812404   -1.436800
     84          1           0        6.026607    7.578085   -0.491503
     85          1           0       10.251698    2.036397    1.134493
     86          1           0       10.693455   -0.645438   -0.150279
     87          1           0       11.767396    2.573933   -0.535399
     88          1           0       10.597508    2.139348   -1.743013
     89          1           0       11.680959    0.919105   -1.191618
     90          1           0       11.596442    0.337324    2.110557
     91          1           0       11.314025   -1.408185    1.804359
     92          1           0        9.000576   -0.318429    3.320680
     93          1           0       10.493965    0.229175    4.165226
     94          1           0       10.299584   -1.401869    3.825722
     95          1           0        7.364697   -5.748476    0.597766
     96          1           0        7.001371   -5.244772    2.222397
     97          1           0        8.474840   -4.669533    1.509275
     98          1           0        1.964906   -3.731024    0.566292
     99          1           0        0.699048   -6.444568   -2.293426
    100          1           0        1.957372   -5.922032   -3.500820
    101          1           0        0.634799   -4.817029   -3.112968
    102          1           0       -4.365833   -1.538092    1.548815
    103          1           0       -4.557488   -3.146658    0.625474
    104          1           0       -4.728579   -0.812047   -1.041720
    105          1           0       -6.789307   -3.071566    0.973281
    106          1           0       -8.222902   -2.760228   -0.126501
    107          1           0       -7.889585   -1.762801    1.185936
    108          1           0       -8.105266   -1.088005   -1.766583
    109          1           0       -6.705326   -0.417590   -2.280547
    110          1           0       -6.925567    1.487088   -1.505988
    111          1           0       -7.069726    0.914424    0.227928
    112          1           0       -9.481077    0.260097   -0.559365
    113          1           0       -9.262693    1.459737   -1.864037
    114          1           0      -10.358413    2.552457    0.048788
    115          1           0       -7.460792    3.454727    0.164714
    116          1           0       -9.021385    4.425105    0.176858
    117          1           0       -8.477769    3.688232   -1.312922
    118          1           0       -8.155587    2.447788    1.817788
    119          1           0       -8.788847    0.781941    1.648430
    120          1           0      -10.387485    3.143074    2.677182
    121          1           0       -9.604945    1.958451    3.542369
    122          1           0      -11.402444    0.474673    3.339146
    123          1           0      -11.170413    0.368839    1.688797
    124          1           0      -12.339248    2.809703    1.659166
    125          1           0      -14.205811    2.251807    3.765968
    126          1           0      -13.101611    3.631621    3.557527
    127          1           0      -12.674732    2.140297    4.473645
    128          1           0      -14.658103    1.476247    1.597102
    129          1           0      -13.717210    0.089321    1.819493
    130          1           0      -12.410578    1.639403   -0.179711
    131          1           0      -14.118303    1.541232   -0.607931
    132          1           0      -13.924482   -1.076939   -0.000481
    133          1           0      -12.272766   -0.825240   -0.293641
    134          1           0      -13.671008    0.589918   -2.296917
    135          1           0      -15.265350   -0.963346   -3.191117
    136          1           0      -15.231551   -1.747072   -1.659401
    137          1           0      -14.190626   -2.318241   -2.914936
    138          1           0      -12.057779   -1.401772   -3.608170
    139          1           0      -11.225887   -0.883036   -2.212017
    140          1           0      -11.860077    0.380683   -3.190279
 ---------------------------------------------------------------------

 SCF Done:  E(RCAM-B3LYP) =  -3007.17223643     A.U. after   17 cycles

 Excitation energies and oscillator strengths:

 Excited State   1:      Singlet-A      1.7039 eV  727.66 nm  f=0.3786  <S**2>=0.000
     245 -> 248        0.17773
     246 -> 247        0.68465
     245 <- 248        0.10766
 This state for optimization and/or second-order correction.
 Total Energy, E(TD-HF/TD-DFT) =  -3007.10962048
 Copying the excited state density for this state as the 1-particle RhoCI density.

 Excited State   2:      Singlet-A      2.2079 eV  561.56 nm  f=0.1498  <S**2>=0.000
     245 -> 247        0.65067
     246 -> 248       -0.26190

 Excited State   3:      Singlet-A      3.3262 eV  372.75 nm  f=0.0054  <S**2>=0.000
     243 -> 247       -0.17361
     244 -> 247        0.66340

 Excited State   4:      Singlet-A      3.4483 eV  359.55 nm  f=0.0182  <S**2>=0.000
     242 -> 247        0.41796
     242 -> 249       -0.18574
     242 -> 250       -0.12851
     243 -> 247        0.40479
     243 -> 249       -0.18894
     243 -> 250       -0.12314
     246 -> 248       -0.13449

 Excited State   5:      Singlet-A      3.4742 eV  356.87 nm  f=0.0214  <S**2>=0.000
     242 -> 247       -0.38681
     243 -> 247        0.44850
     244 -> 247        0.18550
     246 -> 248        0.26666

 The electronic state is 1-A.
 Alpha  occ. eigenvalues --  -46.87544 -19.25688 -19.24117 -19.19316 -19.18313
 Alpha  occ. eigenvalues --  -19.18223 -19.17957 -14.42015 -14.41899 -14.39546
 Alpha  occ. eigenvalues --  -14.38371 -10.39835 -10.38590 -10.34523 -10.34186
 Alpha  occ. eigenvalues --  -10.32538 -10.32050 -10.31009 -10.30812 -10.30611
 Alpha  occ. eigenvalues --  -10.30508 -10.30135 -10.30038 -10.28563 -10.28379
 Alpha  occ. eigenvalues --  -10.28323 -10.28309 -10.27953 -10.27752 -10.27735
 Alpha  occ. eigenvalues --  -10.27729 -10.27554 -10.27374 -10.27298 -10.27278
 Alpha  occ. eigenvalues --  -10.27128 -10.27092 -10.26884 -10.26760 -10.26707
 Alpha  occ. eigenvalues --  -10.26307 -10.26293 -10.26055 -10.25913 -10.25904
 Alpha  occ. eigenvalues --  -10.25754 -10.25689 -10.25669 -10.25651 -10.25499
 Alpha  occ. eigenvalues --  -10.25331 -10.25279 -10.25163 -10.25159 -10.24979
 Alpha  occ. eigenvalues --  -10.24947 -10.24819 -10.24800 -10.24692 -10.24618
 Alpha  occ. eigenvalues --  -10.24567 -10.24531 -10.24501 -10.24483 -10.24389
 Alpha  occ. eigenvalues --  -10.24218  -3.16259  -1.91169  -1.90719  -1.90563
 Alpha  occ. eigenvalues --   -1.15187  -1.15156  -1.09522  -1.07955  -1.06348
 Alpha  occ. eigenvalues --   -1.05172  -1.04859  -1.04099  -1.03279  -1.02248
 Alpha  occ. eigenvalues --   -0.93118  -0.91685  -0.90230  -0.89878  -0.89034
 Alpha  occ. eigenvalues --   -0.88453  -0.88309  -0.87589  -0.87574  -0.87134
 Alpha  occ. eigenvalues --   -0.86116  -0.85716  -0.84888  -0.83685  -0.83351
 Alpha  occ. eigenvalues --   -0.82753  -0.82551  -0.81602  -0.81144  -0.80578
 Alpha  occ. eigenvalues --   -0.80219  -0.78564  -0.78399  -0.77507  -0.76299
 Alpha  occ. eigenvalues --   -0.75966  -0.75861  -0.75395  -0.74908  -0.74051
 Alpha  occ. eigenvalues --   -0.73346  -0.73029  -0.71422  -0.70847  -0.70101
 Alpha  occ. eigenvalues --   -0.68664  -0.68321  -0.67406  -0.67188  -0.65718
 Alpha  occ. eigenvalues --   -0.65328  -0.65150  -0.64669  -0.64495  -0.64449
 Alpha  occ. eigenvalues --   -0.63897  -0.63175  -0.61529  -0.61258  -0.60158
 Alpha  occ. eigenvalues --   -0.59969  -0.59741  -0.59179  -0.58638  -0.57868
 Alpha  occ. eigenvalues --   -0.57358  -0.57114  -0.56615  -0.56174  -0.55477
 Alpha  occ. eigenvalues --   -0.54989  -0.54871  -0.54531  -0.54434  -0.54288
 Alpha  occ. eigenvalues --   -0.53694  -0.53299  -0.52931  -0.52889  -0.52846
 Alpha  occ. eigenvalues --   -0.52499  -0.52306  -0.52206  -0.52044  -0.51811
 Alpha  occ. eigenvalues --   -0.51488  -0.51342  -0.50905  -0.50709  -0.50612
 Alpha  occ. eigenvalues --   -0.50340  -0.50152  -0.50027  -0.49732  -0.49484
 Alpha  occ. eigenvalues --   -0.49353  -0.49326  -0.48938  -0.48919  -0.48675
 Alpha  occ. eigenvalues --   -0.48591  -0.48454  -0.48183  -0.48032  -0.47756
 Alpha  occ. eigenvalues --   -0.47572  -0.47327  -0.46893  -0.46567  -0.46486
 Alpha  occ. eigenvalues --   -0.46455  -0.46304  -0.46102  -0.45926  -0.45677
 Alpha  occ. eigenvalues --   -0.45579  -0.45410  -0.45359  -0.45172  -0.44743
 Alpha  occ. eigenvalues --   -0.44567  -0.44453  -0.44339  -0.44265  -0.44024
 Alpha  occ. eigenvalues --   -0.43862  -0.43796  -0.43647  -0.43400  -0.43290
 Alpha  occ. eigenvalues --   -0.43137  -0.42814  -0.42769  -0.42450  -0.42376
 Alpha  occ. eigenvalues --   -0.42089  -0.41635  -0.41448  -0.41208  -0.40982
 Alpha  occ. eigenvalues --   -0.40939  -0.40692  -0.40606  -0.40503  -0.40245
 Alpha  occ. eigenvalues --   -0.39976  -0.39737  -0.39626  -0.39082  -0.38486
 Alpha  occ. eigenvalues --   -0.38212  -0.37963  -0.37731  -0.37174  -0.37062
 Alpha  occ. eigenvalues --   -0.36961  -0.36784  -0.36668  -0.36573  -0.36502
 Alpha  occ. eigenvalues --   -0.35658  -0.35340  -0.35087  -0.34403  -0.34260
 Alpha  occ. eigenvalues --   -0.33244  -0.33157  -0.32930  -0.31025  -0.30618
 Alpha  occ. eigenvalues --   -0.30148  -0.30041  -0.29905  -0.29320  -0.23660
 Alpha  occ. eigenvalues --   -0.21127
 Alpha virt. eigenvalues --   -0.08700  -0.01341   0.00668   0.02358   0.03610
 Alpha virt. eigenvalues --    0.04094   0.05510   0.05628   0.05816   0.06811
 Alpha virt. eigenvalues --    0.07366   0.08001   0.08578   0.08787   0.09174

 Mulliken charges:
               1
     1  Mg   0.843068
     2  C   -0.018029
     3  C   -0.053405
     4  C   -0.067670
     5  C   -0.096232
     6  N   -0.267281
     7  C   -0.058443
     8  C   -0.001639
     9  C   -0.085381
    10  C    0.002217
    11  C    0.086986
    12  C    0.098041
    13  C    0.074083
    14  C    0.163811
    15  O   -0.269110
    16  O   -0.355201
    17  N   -0.397069
    18  C    0.159712
    19  C   -0.172338
    20  C    0.028849
    21  C    0.105339
    22  C    0.104997
    23  C   -0.012399
    24  O   -0.250168
    25  C    0.087475
    26  N   -0.298681
    27  C    0.055593
    28  C   -0.041499
    29  C   -0.007486
    30  C    0.040340
    31  C    0.076550
    32  C    0.015277
    33  C    0.011967
    34  N   -0.356434
    35  C    0.118941
    36  C   -0.159948
    37  C   -0.009340
    38  C    0.183591
    39  C    0.132364
    40  C    0.020630
    41  O   -0.151974
    42  C   -0.057451
    43  C    0.191155
    44  O   -0.263160
    45  O   -0.324216
    46  C    0.185993
    47  C    0.335090
    48  C   -0.148325
    49  C   -0.172106
    50  C    0.079225
    51  C    0.055215
    52  C    0.053005
    53  C    0.000484
    54  C   -0.137725
    55  C    0.048131
    56  C    0.026103
    57  C    0.038211
    58  C    0.049845
    59  C   -0.136111
    60  C    0.082727
    61  C    0.065747
    62  C    0.003944
    63  C    0.014011
    64  C   -0.135311
    65  C    0.044190
    66  C    0.053311
    67  H   -0.033925
    68  H   -0.005010
    69  H   -0.038498
    70  H    0.015777
    71  H    0.002141
    72  H    0.026316
    73  H    0.010694
    74  H    0.030662
    75  H    0.012221
    76  H    0.031425
    77  H    0.045092
    78  H    0.019785
    79  H    0.035168
    80  H    0.020042
    81  H    0.013884
    82  H    0.022447
    83  H    0.040364
    84  H    0.021522
    85  H    0.020423
    86  H    0.009425
    87  H    0.022436
    88  H    0.017701
    89  H    0.015231
    90  H    0.010549
    91  H    0.016472
    92  H    0.036320
    93  H    0.017746
    94  H    0.007622
    95  H    0.037979
    96  H    0.031764
    97  H    0.003183
    98  H    0.032097
    99  H    0.047828
   100  H    0.049364
   101  H    0.037423
   102  H    0.043168
   103  H    0.046032
   104  H   -0.001052
   105  H    0.003748
   106  H    0.009070
   107  H    0.020960
   108  H   -0.007588
   109  H   -0.015211
   110  H    0.003341
   111  H    0.015852
   112  H    0.007566
   113  H   -0.000084
   114  H   -0.006238
   115  H    0.023206
   116  H    0.009154
   117  H    0.002850
   118  H   -0.016281
   119  H    0.002791
   120  H   -0.012168
   121  H   -0.017414
   122  H   -0.010408
   123  H   -0.010610
   124  H   -0.003192
   125  H   -0.000389
   126  H    0.013049
   127  H    0.003664
   128  H   -0.021243
   129  H   -0.013747
   130  H   -0.007170
   131  H    0.000788
   132  H    0.000456
   133  H   -0.013556
   134  H    0.001253
   135  H    0.007293
   136  H    0.007388
   137  H    0.002181
   138  H    0.008768
   139  H   -0.001715
   140  H    0.009731
 Sum of Mulliken charges =  -0.00000

 Dipole moment (field-independent basis, Debye):
    X=             -2.6130    Y=              3.0098    Z=             -1.5018  Tot=              4.2593
 Quadrupole moment (field-independent basis, Debye-Ang):
   XX=           -368.1830   YY=           -413.8806   ZZ=           -409.9621
   XY=             -8.5982   XZ=             14.5764   YZ=              8.6278

 Normal termination of Gaussian 16 at Fri Apr 29 20:55:01 2022.
