 Gaussian 16, Revision A.03,
 Gaussian 16:  ES64L-G16RevA.03 25-Dec-2016

 ---------------------------------
 #p PBE1PBE/Def2SVP td=(nstates=5)
 ---------------------------------

 -----------------------------------------------------
 step_501_chromophore_13 TDDFT with PBE1PBE functional
 -----------------------------------------------------
 Symbolic Z-matrix:
 Charge =  0 Multiplicity = 1

                         Standard orientation:
 ---------------------------------------------------------------------
 Center     Atomic      Atomic             Coordinates (Angstroms)
 Number     Number       Type             X           Y           Z
 ---------------------------------------------------------------------
      1         12           0        5.823328    0.425830    0.143313
      2          6           0        3.497117   -2.151526    0.017324
      3          6           0        3.193093    2.562531   -0.595639
      4          6           0        8.141428    2.883886   -0.244773
      5          6           0        8.322193   -1.897617    0.702920
      6          7           0        3.607881    0.211179   -0.298205
      7          6           0        2.844479   -0.945671   -0.259094
      8          6           0        1.333791   -0.726713   -0.663756
      9          6           0        1.403212    0.769708   -1.159319
     10          6           0        2.836458    1.226372   -0.698765
     11          6           0        1.218601    1.121872   -2.638307
     12          6           0        0.399592   -1.009730    0.526959
     13          6           0       -0.420117   -2.271922    0.471220
     14          6           0       -1.846991   -2.198060    1.043183
     15          8           0       -2.008274   -2.355155    2.278623
     16          8           0       -2.869291   -1.949209    0.148602
     17          7           0        5.718282    2.474842   -0.155257
     18          6           0        4.537475    3.120251   -0.352285
     19          6           0        4.893625    4.538975   -0.549191
     20          6           0        6.292290    4.656717   -0.557061
     21          6           0        6.794633    3.361505   -0.308225
     22          6           0        3.853570    5.584145   -0.585133
     23          6           0        7.160927    5.855105   -0.804597
     24          8           0        8.416300    5.843767   -0.672225
     25          6           0        6.666267    7.120992   -1.246531
     26          7           0        7.869340    0.503355    0.293904
     27          6           0        8.612332    1.630791    0.122455
     28          6           0       10.066804    1.408675    0.263271
     29          6           0       10.147879   -0.116610    0.630364
     30          6           0        8.730910   -0.523961    0.475182
     31          6           0       11.097305    1.772245   -0.845970
     32          6           0       10.847274   -0.451489    2.039314
     33          6           0       10.082444   -0.424870    3.395951
     34          7           0        5.970146   -1.598125    0.292767
     35          6           0        7.038437   -2.405448    0.558701
     36          6           0        6.605912   -3.711584    0.803939
     37          6           0        5.191305   -3.646430    0.501584
     38          6           0        4.865715   -2.333142    0.226891
     39          6           0        7.434144   -4.902578    1.282478
     40          6           0        4.001897   -4.447669    0.544181
     41          8           0        3.750740   -5.583505    0.892233
     42          6           0        2.865303   -3.519243   -0.010621
     43          6           0        2.488433   -3.946392   -1.372668
     44          8           0        2.676749   -3.307095   -2.431011
     45          8           0        1.908316   -5.164742   -1.437108
     46          6           0        1.264452   -5.614968   -2.718136
     47          6           0       -4.270282   -2.094851    0.617430
     48          6           0       -5.199830   -1.416747   -0.266701
     49          6           0       -6.490602   -1.568278   -0.457120
     50          6           0       -7.376371   -2.340445    0.417612
     51          6           0       -7.249724   -0.558814   -1.346629
     52          6           0       -7.435050    0.835359   -0.795586
     53          6           0       -8.934322    1.150505   -0.872399
     54          6           0       -9.301004    2.302728    0.131516
     55          6           0       -8.469356    3.576882   -0.228730
     56          6           0       -9.025315    1.841898    1.559841
     57          6           0      -10.124894    2.088874    2.593148
     58          6           0      -11.348276    1.117720    2.459849
     59          6           0      -12.647763    1.974394    2.288414
     60          6           0      -13.170731    2.544212    3.591281
     61          6           0      -13.632238    1.123918    1.485802
     62          6           0      -13.322716    1.059345   -0.040033
     63          6           0      -13.251273   -0.415064   -0.545230
     64          6           0      -13.415622   -0.450592   -2.096592
     65          6           0      -14.582077   -1.405558   -2.465659
     66          6           0      -12.079398   -0.628388   -2.840817
     67          1           0        2.373737    3.220220   -0.891074
     68          1           0        8.935384    3.619159   -0.392547
     69          1           0        9.022797   -2.661744    1.047475
     70          1           0        1.088340   -1.208824   -1.610604
     71          1           0        0.662433    1.305584   -0.565950
     72          1           0        2.162646    1.462393   -3.064322
     73          1           0        0.613243    2.026893   -2.658488
     74          1           0        0.797346    0.332021   -3.261181
     75          1           0       -0.318564   -0.188935    0.522295
     76          1           0        0.983162   -0.922841    1.443472
     77          1           0        0.118642   -3.034795    1.033855
     78          1           0       -0.529455   -2.719000   -0.516942
     79          1           0        4.067025    6.217145    0.275207
     80          1           0        2.800863    5.299791   -0.558296
     81          1           0        3.970705    6.183384   -1.488032
     82          1           0        5.954993    6.888212   -2.038562
     83          1           0        7.486135    7.812404   -1.436800
     84          1           0        6.026607    7.578085   -0.491503
     85          1           0       10.251698    2.036397    1.134493
     86          1           0       10.693455   -0.645438   -0.150279
     87          1           0       11.767396    2.573933   -0.535399
     88          1           0       10.597508    2.139348   -1.743013
     89          1           0       11.680959    0.919105   -1.191618
     90          1           0       11.596442    0.337324    2.110557
     91          1           0       11.314025   -1.408185    1.804359
     92          1           0        9.000576   -0.318429    3.320680
     93          1           0       10.493965    0.229175    4.165226
     94          1           0       10.299584   -1.401869    3.825722
     95          1           0        7.364697   -5.748476    0.597766
     96          1           0        7.001371   -5.244772    2.222397
     97          1           0        8.474840   -4.669533    1.509275
     98          1           0        1.964906   -3.731024    0.566292
     99          1           0        0.699048   -6.444568   -2.293426
    100          1           0        1.957372   -5.922032   -3.500820
    101          1           0        0.634799   -4.817029   -3.112968
    102          1           0       -4.365833   -1.538092    1.548815
    103          1           0       -4.557488   -3.146658    0.625474
    104          1           0       -4.728579   -0.812047   -1.041720
    105          1           0       -6.789307   -3.071566    0.973281
    106          1           0       -8.222902   -2.760228   -0.126501
    107          1           0       -7.889585   -1.762801    1.185936
    108          1           0       -8.105266   -1.088005   -1.766583
    109          1           0       -6.705326   -0.417590   -2.280547
    110          1           0       -6.925567    1.487088   -1.505988
    111          1           0       -7.069726    0.914424    0.227928
    112          1           0       -9.481077    0.260097   -0.559365
    113          1           0       -9.262693    1.459737   -1.864037
    114          1           0      -10.358413    2.552457    0.048788
    115          1           0       -7.460792    3.454727    0.164714
    116          1           0       -9.021385    4.425105    0.176858
    117          1           0       -8.477769    3.688232   -1.312922
    118          1           0       -8.155587    2.447788    1.817788
    119          1           0       -8.788847    0.781941    1.648430
    120          1           0      -10.387485    3.143074    2.677182
    121          1           0       -9.604945    1.958451    3.542369
    122          1           0      -11.402444    0.474673    3.339146
    123          1           0      -11.170413    0.368839    1.688797
    124          1           0      -12.339248    2.809703    1.659166
    125          1           0      -14.205811    2.251807    3.765968
    126          1           0      -13.101611    3.631621    3.557527
    127          1           0      -12.674732    2.140297    4.473645
    128          1           0      -14.658103    1.476247    1.597102
    129          1           0      -13.717210    0.089321    1.819493
    130          1           0      -12.410578    1.639403   -0.179711
    131          1           0      -14.118303    1.541232   -0.607931
    132          1           0      -13.924482   -1.076939   -0.000481
    133          1           0      -12.272766   -0.825240   -0.293641
    134          1           0      -13.671008    0.589918   -2.296917
    135          1           0      -15.265350   -0.963346   -3.191117
    136          1           0      -15.231551   -1.747072   -1.659401
    137          1           0      -14.190626   -2.318241   -2.914936
    138          1           0      -12.057779   -1.401772   -3.608170
    139          1           0      -11.225887   -0.883036   -2.212017
    140          1           0      -11.860077    0.380683   -3.190279
 ---------------------------------------------------------------------

 SCF Done:  E(RPBE1PBE) =  -3005.36197736     A.U. after   15 cycles

 Excitation energies and oscillator strengths:

 Excited State   1:      Singlet-A      1.8658 eV  664.49 nm  f=0.3616  <S**2>=0.000
     245 -> 248        0.17082
     246 -> 247        0.69165
     246 <- 247       -0.10887
 This state for optimization and/or second-order correction.
 Total Energy, E(TD-HF/TD-DFT) =  -3005.29340889
 Copying the excited state density for this state as the 1-particle RhoCI density.

 Excited State   2:      Singlet-A      2.2256 eV  557.09 nm  f=0.1384  <S**2>=0.000
     245 -> 247        0.65886
     246 -> 248       -0.23976

 Excited State   3:      Singlet-A      2.8942 eV  428.38 nm  f=0.0009  <S**2>=0.000
     243 -> 247        0.18033
     244 -> 247        0.65694
     244 -> 249        0.12493

 Excited State   4:      Singlet-A      2.9956 eV  413.89 nm  f=0.0011  <S**2>=0.000
     242 -> 247        0.52133
     242 -> 249       -0.10431
     243 -> 247       -0.41494
     244 -> 247        0.14021

 Excited State   5:      Singlet-A      3.0264 eV  409.68 nm  f=0.0050  <S**2>=0.000
     240 -> 247       -0.12566
     242 -> 247        0.41463
     243 -> 247        0.52011
     244 -> 247       -0.13596

 The electronic state is 1-A.
 Alpha  occ. eigenvalues --  -46.90950 -19.26400 -19.24723 -19.19644 -19.18554
 Alpha  occ. eigenvalues --  -19.18506 -19.18176 -14.41480 -14.41442 -14.39200
 Alpha  occ. eigenvalues --  -14.38069 -10.36937 -10.35575 -10.31595 -10.31362
 Alpha  occ. eigenvalues --  -10.29920 -10.29251 -10.28789 -10.28590 -10.28270
 Alpha  occ. eigenvalues --  -10.28182 -10.27801 -10.27694 -10.26293 -10.26135
 Alpha  occ. eigenvalues --  -10.25991 -10.25975 -10.25747 -10.25459 -10.25380
 Alpha  occ. eigenvalues --  -10.25246 -10.25234 -10.25151 -10.25143 -10.24980
 Alpha  occ. eigenvalues --  -10.24916 -10.24816 -10.24363 -10.24324 -10.24268
 Alpha  occ. eigenvalues --  -10.23941 -10.23748 -10.23515 -10.23509 -10.23414
 Alpha  occ. eigenvalues --  -10.23345 -10.23195 -10.23125 -10.23119 -10.23032
 Alpha  occ. eigenvalues --  -10.22904 -10.22829 -10.22739 -10.22645 -10.22558
 Alpha  occ. eigenvalues --  -10.22519 -10.22423 -10.22380 -10.22244 -10.22215
 Alpha  occ. eigenvalues --  -10.22151 -10.22044 -10.21922 -10.21894 -10.21783
 Alpha  occ. eigenvalues --  -10.21763  -3.13242  -1.86094  -1.85621  -1.85470
 Alpha  occ. eigenvalues --   -1.09989  -1.09921  -1.04320  -1.02609  -1.01219
 Alpha  occ. eigenvalues --   -0.99919  -0.99545  -0.98774  -0.97905  -0.96893
 Alpha  occ. eigenvalues --   -0.87520  -0.85831  -0.84332  -0.84069  -0.83148
 Alpha  occ. eigenvalues --   -0.82733  -0.82624  -0.81848  -0.81687  -0.81439
 Alpha  occ. eigenvalues --   -0.80472  -0.79963  -0.79095  -0.77987  -0.77589
 Alpha  occ. eigenvalues --   -0.76920  -0.76760  -0.75794  -0.75425  -0.74907
 Alpha  occ. eigenvalues --   -0.74363  -0.72893  -0.72664  -0.71826  -0.70607
 Alpha  occ. eigenvalues --   -0.70090  -0.69997  -0.69744  -0.69052  -0.68222
 Alpha  occ. eigenvalues --   -0.67727  -0.67387  -0.65839  -0.65166  -0.64487
 Alpha  occ. eigenvalues --   -0.62926  -0.62771  -0.61630  -0.61552  -0.59894
 Alpha  occ. eigenvalues --   -0.59769  -0.59615  -0.59256  -0.59037  -0.58574
 Alpha  occ. eigenvalues --   -0.58451  -0.57378  -0.56109  -0.55491  -0.54514
 Alpha  occ. eigenvalues --   -0.54502  -0.54268  -0.53747  -0.53313  -0.52300
 Alpha  occ. eigenvalues --   -0.51905  -0.51452  -0.51107  -0.50780  -0.49965
 Alpha  occ. eigenvalues --   -0.49547  -0.49390  -0.49014  -0.48831  -0.48820
 Alpha  occ. eigenvalues --   -0.48225  -0.47885  -0.47421  -0.47287  -0.47237
 Alpha  occ. eigenvalues --   -0.47100  -0.46842  -0.46715  -0.46579  -0.46439
 Alpha  occ. eigenvalues --   -0.45963  -0.45956  -0.45436  -0.45264  -0.45148
 Alpha  occ. eigenvalues --   -0.44939  -0.44775  -0.44575  -0.44303  -0.44051
 Alpha  occ. eigenvalues --   -0.43959  -0.43942  -0.43587  -0.43503  -0.43299
 Alpha  occ. eigenvalues --   -0.43175  -0.43046  -0.42805  -0.42596  -0.42395
 Alpha  occ. eigenvalues --   -0.42139  -0.41978  -0.41592  -0.41262  -0.41130
 Alpha  occ. eigenvalues --   -0.41104  -0.41012  -0.40784  -0.40582  -0.40414
 Alpha  occ. eigenvalues --   -0.40247  -0.40169  -0.40089  -0.39933  -0.39519
 Alpha  occ. eigenvalues --   -0.39346  -0.39162  -0.39075  -0.39004  -0.38781
 Alpha  occ. eigenvalues --   -0.38613  -0.38556  -0.38372  -0.38142  -0.38022
 Alpha  occ. eigenvalues --   -0.37892  -0.37684  -0.37660  -0.37315  -0.37039
 Alpha  occ. eigenvalues --   -0.36898  -0.36410  -0.36280  -0.35964  -0.35839
 Alpha  occ. eigenvalues --   -0.35721  -0.35550  -0.35411  -0.35358  -0.34992
 Alpha  occ. eigenvalues --   -0.34807  -0.34635  -0.34396  -0.33988  -0.33245
 Alpha  occ. eigenvalues --   -0.33197  -0.32787  -0.32528  -0.32188  -0.32003
 Alpha  occ. eigenvalues --   -0.31786  -0.31730  -0.31632  -0.31589  -0.31442
 Alpha  occ. eigenvalues --   -0.30571  -0.30285  -0.30048  -0.29620  -0.29186
 Alpha  occ. eigenvalues --   -0.28807  -0.27985  -0.27616  -0.26691  -0.25649
 Alpha  occ. eigenvalues --   -0.25421  -0.25211  -0.25022  -0.24897  -0.20632
 Alpha  occ. eigenvalues --   -0.18725
 Alpha virt. eigenvalues --   -0.11097  -0.04910  -0.03537  -0.02039  -0.00523
 Alpha virt. eigenvalues --    0.00703   0.01073   0.01217   0.01953   0.03019
 Alpha virt. eigenvalues --    0.04127   0.04145   0.04492   0.05175   0.05777

 Mulliken charges:
               1
     1  Mg   0.997349
     2  C   -0.025969
     3  C   -0.044449
     4  C   -0.054810
     5  C   -0.083590
     6  N   -0.367833
     7  C    0.011612
     8  C   -0.071016
     9  C   -0.151741
    10  C    0.033569
    11  C    0.028601
    12  C    0.045397
    13  C   -0.005131
    14  C    0.230894
    15  O   -0.298571
    16  O   -0.387382
    17  N   -0.514204
    18  C    0.196376
    19  C   -0.207399
    20  C   -0.032423
    21  C    0.142257
    22  C    0.046382
    23  C    0.042887
    24  O   -0.286910
    25  C    0.014101
    26  N   -0.411155
    27  C    0.088113
    28  C   -0.117435
    29  C   -0.079974
    30  C    0.080723
    31  C    0.016748
    32  C   -0.047659
    33  C   -0.060433
    34  N   -0.494974
    35  C    0.135265
    36  C   -0.166824
    37  C   -0.058337
    38  C    0.235191
    39  C    0.080922
    40  C    0.107098
    41  O   -0.198291
    42  C   -0.172567
    43  C    0.290164
    44  O   -0.296163
    45  O   -0.358936
    46  C    0.131567
    47  C    0.295065
    48  C   -0.157345
    49  C   -0.222189
    50  C    0.019775
    51  C   -0.006762
    52  C   -0.009124
    53  C   -0.061380
    54  C   -0.228544
    55  C   -0.011592
    56  C   -0.034751
    57  C   -0.022351
    58  C   -0.001473
    59  C   -0.233228
    60  C    0.026736
    61  C    0.014714
    62  C   -0.071713
    63  C   -0.035473
    64  C   -0.232119
    65  C   -0.016197
    66  C   -0.006087
    67  H   -0.001332
    68  H    0.026039
    69  H   -0.005136
    70  H    0.053573
    71  H    0.038741
    72  H    0.054655
    73  H    0.037968
    74  H    0.056889
    75  H    0.046236
    76  H    0.062639
    77  H    0.079056
    78  H    0.051617
    79  H    0.063410
    80  H    0.045938
    81  H    0.041776
    82  H    0.049957
    83  H    0.066639
    84  H    0.048945
    85  H    0.059038
    86  H    0.047537
    87  H    0.049365
    88  H    0.045645
    89  H    0.041735
    90  H    0.044440
    91  H    0.046918
    92  H    0.065019
    93  H    0.045183
    94  H    0.035509
    95  H    0.065109
    96  H    0.059582
    97  H    0.029442
    98  H    0.073569
    99  H    0.068834
   100  H    0.070538
   101  H    0.058256
   102  H    0.069991
   103  H    0.071306
   104  H    0.028995
   105  H    0.031418
   106  H    0.036095
   107  H    0.049783
   108  H    0.024813
   109  H    0.018299
   110  H    0.036226
   111  H    0.047746
   112  H    0.044807
   113  H    0.032884
   114  H    0.037687
   115  H    0.048602
   116  H    0.038092
   117  H    0.031533
   118  H    0.017098
   119  H    0.039039
   120  H    0.019985
   121  H    0.016562
   122  H    0.022294
   123  H    0.024028
   124  H    0.035820
   125  H    0.026980
   126  H    0.039593
   127  H    0.030506
   128  H    0.012301
   129  H    0.019415
   130  H    0.035030
   131  H    0.034224
   132  H    0.031129
   133  H    0.019644
   134  H    0.040060
   135  H    0.034975
   136  H    0.033797
   137  H    0.029745
   138  H    0.035373
   139  H    0.027324
   140  H    0.036466
 Sum of Mulliken charges =  -0.00000

 Dipole moment (field-independent basis, Debye):
    X=             -2.5506    Y=              2.9551    Z=             -1.4161  Tot=              4.1525
 Quadrupole moment (field-independent basis, Debye-Ang):
   XX=           -361.8231   YY=           -411.3133   ZZ=           -407.2583
   XY=             -9.6685   XZ=             15.2084   YZ=              8.1965

 Normal termination of Gaussian 16 at Fri Apr 29 21:11:23 2022.
