 Gaussian 16, Revision A.03,
 Gaussian 16:  ES64L-G16RevA.03 25-Dec-2016

 --------------------------------
 #p wB97XD/Def2SVP td=(nstates=5)
 --------------------------------

 ----------------------------------------------------
 step_501_chromophore_13 TDDFT with wB97XD functional
 ----------------------------------------------------
 Symbolic Z-matrix:
 Charge =  0 Multiplicity = 1

                         Standard orientation:
 ---------------------------------------------------------------------
 Center     Atomic      Atomic             Coordinates (Angstroms)
 Number     Number       Type             X           Y           Z
 ---------------------------------------------------------------------
      1         12           0        5.823328    0.425830    0.143313
      2          6           0        3.497117   -2.151526    0.017324
      3          6           0        3.193093    2.562531   -0.595639
      4          6           0        8.141428    2.883886   -0.244773
      5          6           0        8.322193   -1.897617    0.702920
      6          7           0        3.607881    0.211179   -0.298205
      7          6           0        2.844479   -0.945671   -0.259094
      8          6           0        1.333791   -0.726713   -0.663756
      9          6           0        1.403212    0.769708   -1.159319
     10          6           0        2.836458    1.226372   -0.698765
     11          6           0        1.218601    1.121872   -2.638307
     12          6           0        0.399592   -1.009730    0.526959
     13          6           0       -0.420117   -2.271922    0.471220
     14          6           0       -1.846991   -2.198060    1.043183
     15          8           0       -2.008274   -2.355155    2.278623
     16          8           0       -2.869291   -1.949209    0.148602
     17          7           0        5.718282    2.474842   -0.155257
     18          6           0        4.537475    3.120251   -0.352285
     19          6           0        4.893625    4.538975   -0.549191
     20          6           0        6.292290    4.656717   -0.557061
     21          6           0        6.794633    3.361505   -0.308225
     22          6           0        3.853570    5.584145   -0.585133
     23          6           0        7.160927    5.855105   -0.804597
     24          8           0        8.416300    5.843767   -0.672225
     25          6           0        6.666267    7.120992   -1.246531
     26          7           0        7.869340    0.503355    0.293904
     27          6           0        8.612332    1.630791    0.122455
     28          6           0       10.066804    1.408675    0.263271
     29          6           0       10.147879   -0.116610    0.630364
     30          6           0        8.730910   -0.523961    0.475182
     31          6           0       11.097305    1.772245   -0.845970
     32          6           0       10.847274   -0.451489    2.039314
     33          6           0       10.082444   -0.424870    3.395951
     34          7           0        5.970146   -1.598125    0.292767
     35          6           0        7.038437   -2.405448    0.558701
     36          6           0        6.605912   -3.711584    0.803939
     37          6           0        5.191305   -3.646430    0.501584
     38          6           0        4.865715   -2.333142    0.226891
     39          6           0        7.434144   -4.902578    1.282478
     40          6           0        4.001897   -4.447669    0.544181
     41          8           0        3.750740   -5.583505    0.892233
     42          6           0        2.865303   -3.519243   -0.010621
     43          6           0        2.488433   -3.946392   -1.372668
     44          8           0        2.676749   -3.307095   -2.431011
     45          8           0        1.908316   -5.164742   -1.437108
     46          6           0        1.264452   -5.614968   -2.718136
     47          6           0       -4.270282   -2.094851    0.617430
     48          6           0       -5.199830   -1.416747   -0.266701
     49          6           0       -6.490602   -1.568278   -0.457120
     50          6           0       -7.376371   -2.340445    0.417612
     51          6           0       -7.249724   -0.558814   -1.346629
     52          6           0       -7.435050    0.835359   -0.795586
     53          6           0       -8.934322    1.150505   -0.872399
     54          6           0       -9.301004    2.302728    0.131516
     55          6           0       -8.469356    3.576882   -0.228730
     56          6           0       -9.025315    1.841898    1.559841
     57          6           0      -10.124894    2.088874    2.593148
     58          6           0      -11.348276    1.117720    2.459849
     59          6           0      -12.647763    1.974394    2.288414
     60          6           0      -13.170731    2.544212    3.591281
     61          6           0      -13.632238    1.123918    1.485802
     62          6           0      -13.322716    1.059345   -0.040033
     63          6           0      -13.251273   -0.415064   -0.545230
     64          6           0      -13.415622   -0.450592   -2.096592
     65          6           0      -14.582077   -1.405558   -2.465659
     66          6           0      -12.079398   -0.628388   -2.840817
     67          1           0        2.373737    3.220220   -0.891074
     68          1           0        8.935384    3.619159   -0.392547
     69          1           0        9.022797   -2.661744    1.047475
     70          1           0        1.088340   -1.208824   -1.610604
     71          1           0        0.662433    1.305584   -0.565950
     72          1           0        2.162646    1.462393   -3.064322
     73          1           0        0.613243    2.026893   -2.658488
     74          1           0        0.797346    0.332021   -3.261181
     75          1           0       -0.318564   -0.188935    0.522295
     76          1           0        0.983162   -0.922841    1.443472
     77          1           0        0.118642   -3.034795    1.033855
     78          1           0       -0.529455   -2.719000   -0.516942
     79          1           0        4.067025    6.217145    0.275207
     80          1           0        2.800863    5.299791   -0.558296
     81          1           0        3.970705    6.183384   -1.488032
     82          1           0        5.954993    6.888212   -2.038562
     83          1           0        7.486135    7.812404   -1.436800
     84          1           0        6.026607    7.578085   -0.491503
     85          1           0       10.251698    2.036397    1.134493
     86          1           0       10.693455   -0.645438   -0.150279
     87          1           0       11.767396    2.573933   -0.535399
     88          1           0       10.597508    2.139348   -1.743013
     89          1           0       11.680959    0.919105   -1.191618
     90          1           0       11.596442    0.337324    2.110557
     91          1           0       11.314025   -1.408185    1.804359
     92          1           0        9.000576   -0.318429    3.320680
     93          1           0       10.493965    0.229175    4.165226
     94          1           0       10.299584   -1.401869    3.825722
     95          1           0        7.364697   -5.748476    0.597766
     96          1           0        7.001371   -5.244772    2.222397
     97          1           0        8.474840   -4.669533    1.509275
     98          1           0        1.964906   -3.731024    0.566292
     99          1           0        0.699048   -6.444568   -2.293426
    100          1           0        1.957372   -5.922032   -3.500820
    101          1           0        0.634799   -4.817029   -3.112968
    102          1           0       -4.365833   -1.538092    1.548815
    103          1           0       -4.557488   -3.146658    0.625474
    104          1           0       -4.728579   -0.812047   -1.041720
    105          1           0       -6.789307   -3.071566    0.973281
    106          1           0       -8.222902   -2.760228   -0.126501
    107          1           0       -7.889585   -1.762801    1.185936
    108          1           0       -8.105266   -1.088005   -1.766583
    109          1           0       -6.705326   -0.417590   -2.280547
    110          1           0       -6.925567    1.487088   -1.505988
    111          1           0       -7.069726    0.914424    0.227928
    112          1           0       -9.481077    0.260097   -0.559365
    113          1           0       -9.262693    1.459737   -1.864037
    114          1           0      -10.358413    2.552457    0.048788
    115          1           0       -7.460792    3.454727    0.164714
    116          1           0       -9.021385    4.425105    0.176858
    117          1           0       -8.477769    3.688232   -1.312922
    118          1           0       -8.155587    2.447788    1.817788
    119          1           0       -8.788847    0.781941    1.648430
    120          1           0      -10.387485    3.143074    2.677182
    121          1           0       -9.604945    1.958451    3.542369
    122          1           0      -11.402444    0.474673    3.339146
    123          1           0      -11.170413    0.368839    1.688797
    124          1           0      -12.339248    2.809703    1.659166
    125          1           0      -14.205811    2.251807    3.765968
    126          1           0      -13.101611    3.631621    3.557527
    127          1           0      -12.674732    2.140297    4.473645
    128          1           0      -14.658103    1.476247    1.597102
    129          1           0      -13.717210    0.089321    1.819493
    130          1           0      -12.410578    1.639403   -0.179711
    131          1           0      -14.118303    1.541232   -0.607931
    132          1           0      -13.924482   -1.076939   -0.000481
    133          1           0      -12.272766   -0.825240   -0.293641
    134          1           0      -13.671008    0.589918   -2.296917
    135          1           0      -15.265350   -0.963346   -3.191117
    136          1           0      -15.231551   -1.747072   -1.659401
    137          1           0      -14.190626   -2.318241   -2.914936
    138          1           0      -12.057779   -1.401772   -3.608170
    139          1           0      -11.225887   -0.883036   -2.212017
    140          1           0      -11.860077    0.380683   -3.190279
 ---------------------------------------------------------------------

 SCF Done:  E(RwB97XD) =  -3007.87291628     A.U. after   17 cycles

 Excitation energies and oscillator strengths:

 Excited State   1:      Singlet-A      1.6450 eV  753.71 nm  f=0.3776  <S**2>=0.000
     245 -> 248        0.18348
     246 -> 247        0.68249
     245 <- 248        0.11729
 This state for optimization and/or second-order correction.
 Total Energy, E(TD-HF/TD-DFT) =  -3007.81246405
 Copying the excited state density for this state as the 1-particle RhoCI density.

 Excited State   2:      Singlet-A      2.1520 eV  576.12 nm  f=0.1457  <S**2>=0.000
     245 -> 247        0.64836
     246 -> 248       -0.26516

 Excited State   3:      Singlet-A      3.3471 eV  370.42 nm  f=0.0043  <S**2>=0.000
     241 -> 247       -0.14344
     242 -> 247       -0.12816
     244 -> 247        0.65600

 Excited State   4:      Singlet-A      3.4895 eV  355.31 nm  f=0.0345  <S**2>=0.000
     241 -> 247       -0.19508
     242 -> 247       -0.18549
     243 -> 247        0.48967
     243 -> 249       -0.27168
     243 -> 250       -0.17862
     246 -> 248       -0.19823

 Excited State   5:      Singlet-A      3.4971 eV  354.54 nm  f=0.0255  <S**2>=0.000
     241 -> 247        0.35141
     242 -> 247        0.33784
     243 -> 247        0.31940
     244 -> 247        0.18866
     246 -> 248        0.26308

 The electronic state is 1-A.
 Alpha  occ. eigenvalues --  -46.93896 -19.30962 -19.29317 -19.24307 -19.23273
 Alpha  occ. eigenvalues --  -19.23249 -19.23005 -14.46628 -14.46489 -14.44169
 Alpha  occ. eigenvalues --  -14.42963 -10.43706 -10.42410 -10.38475 -10.38195
 Alpha  occ. eigenvalues --  -10.36427 -10.35787 -10.35058 -10.34806 -10.34690
 Alpha  occ. eigenvalues --  -10.34532 -10.34148 -10.34100 -10.32546 -10.32527
 Alpha  occ. eigenvalues --  -10.32404 -10.32289 -10.32004 -10.31869 -10.31781
 Alpha  occ. eigenvalues --  -10.31690 -10.31516 -10.31418 -10.31399 -10.31354
 Alpha  occ. eigenvalues --  -10.31125 -10.31075 -10.30819 -10.30811 -10.30788
 Alpha  occ. eigenvalues --  -10.30284 -10.30173 -10.29975 -10.29909 -10.29782
 Alpha  occ. eigenvalues --  -10.29620 -10.29577 -10.29518 -10.29505 -10.29483
 Alpha  occ. eigenvalues --  -10.29321 -10.29235 -10.29120 -10.29055 -10.28926
 Alpha  occ. eigenvalues --  -10.28899 -10.28750 -10.28665 -10.28655 -10.28617
 Alpha  occ. eigenvalues --  -10.28504 -10.28415 -10.28348 -10.28320 -10.28205
 Alpha  occ. eigenvalues --  -10.28147  -3.20023  -1.93628  -1.93157  -1.93002
 Alpha  occ. eigenvalues --   -1.17374  -1.17341  -1.11758  -1.10154  -1.08570
 Alpha  occ. eigenvalues --   -1.07306  -1.06899  -1.06131  -1.05294  -1.04307
 Alpha  occ. eigenvalues --   -0.95108  -0.93504  -0.92006  -0.91717  -0.90814
 Alpha  occ. eigenvalues --   -0.90348  -0.90210  -0.89550  -0.89351  -0.89048
 Alpha  occ. eigenvalues --   -0.88066  -0.87604  -0.86752  -0.85615  -0.85264
 Alpha  occ. eigenvalues --   -0.84634  -0.84430  -0.83453  -0.83062  -0.82531
 Alpha  occ. eigenvalues --   -0.82039  -0.80534  -0.80305  -0.79422  -0.78234
 Alpha  occ. eigenvalues --   -0.77779  -0.77684  -0.77333  -0.76730  -0.75890
 Alpha  occ. eigenvalues --   -0.75293  -0.74976  -0.73392  -0.72779  -0.72021
 Alpha  occ. eigenvalues --   -0.70553  -0.70316  -0.69255  -0.69195  -0.67558
 Alpha  occ. eigenvalues --   -0.67272  -0.67091  -0.66680  -0.66498  -0.66255
 Alpha  occ. eigenvalues --   -0.65904  -0.65007  -0.63514  -0.63117  -0.62049
 Alpha  occ. eigenvalues --   -0.61967  -0.61708  -0.61176  -0.60638  -0.59796
 Alpha  occ. eigenvalues --   -0.59346  -0.58959  -0.58553  -0.58156  -0.57391
 Alpha  occ. eigenvalues --   -0.56957  -0.56812  -0.56424  -0.56323  -0.56236
 Alpha  occ. eigenvalues --   -0.55615  -0.55242  -0.54856  -0.54798  -0.54707
 Alpha  occ. eigenvalues --   -0.54428  -0.54216  -0.54109  -0.53937  -0.53736
 Alpha  occ. eigenvalues --   -0.53344  -0.53266  -0.52859  -0.52616  -0.52497
 Alpha  occ. eigenvalues --   -0.52262  -0.52081  -0.51967  -0.51664  -0.51432
 Alpha  occ. eigenvalues --   -0.51285  -0.51236  -0.50905  -0.50798  -0.50579
 Alpha  occ. eigenvalues --   -0.50475  -0.50347  -0.50093  -0.49906  -0.49690
 Alpha  occ. eigenvalues --   -0.49447  -0.49266  -0.48823  -0.48540  -0.48395
 Alpha  occ. eigenvalues --   -0.48343  -0.48194  -0.47988  -0.47805  -0.47581
 Alpha  occ. eigenvalues --   -0.47448  -0.47300  -0.47273  -0.47092  -0.46640
 Alpha  occ. eigenvalues --   -0.46518  -0.46334  -0.46229  -0.46167  -0.45928
 Alpha  occ. eigenvalues --   -0.45811  -0.45722  -0.45573  -0.45290  -0.45163
 Alpha  occ. eigenvalues --   -0.45033  -0.44747  -0.44704  -0.44383  -0.44222
 Alpha  occ. eigenvalues --   -0.44011  -0.43572  -0.43357  -0.43072  -0.42893
 Alpha  occ. eigenvalues --   -0.42800  -0.42581  -0.42479  -0.42403  -0.42116
 Alpha  occ. eigenvalues --   -0.42010  -0.41630  -0.41472  -0.40993  -0.40330
 Alpha  occ. eigenvalues --   -0.40147  -0.39818  -0.39585  -0.39150  -0.39008
 Alpha  occ. eigenvalues --   -0.38823  -0.38749  -0.38651  -0.38499  -0.38443
 Alpha  occ. eigenvalues --   -0.37666  -0.37206  -0.36925  -0.36402  -0.36103
 Alpha  occ. eigenvalues --   -0.35479  -0.35107  -0.34813  -0.33250  -0.32553
 Alpha  occ. eigenvalues --   -0.32191  -0.32154  -0.31938  -0.31492  -0.25577
 Alpha  occ. eigenvalues --   -0.22937
 Alpha virt. eigenvalues --   -0.07059   0.00574   0.02732   0.04453   0.06332
 Alpha virt. eigenvalues --    0.06691   0.07775   0.07891   0.08452   0.09406
 Alpha virt. eigenvalues --    0.10674   0.10733   0.11330   0.11988   0.12454

 Mulliken charges:
               1
     1  Mg   0.985114
     2  C   -0.025925
     3  C   -0.064487
     4  C   -0.072152
     5  C   -0.098796
     6  N   -0.335295
     7  C   -0.018660
     8  C   -0.046408
     9  C   -0.129380
    10  C    0.025545
    11  C    0.038437
    12  C    0.055449
    13  C    0.012746
    14  C    0.220632
    15  O   -0.296846
    16  O   -0.386108
    17  N   -0.481821
    18  C    0.183713
    19  C   -0.191461
    20  C   -0.022497
    21  C    0.131788
    22  C    0.056620
    23  C    0.038531
    24  O   -0.281038
    25  C    0.024622
    26  N   -0.375239
    27  C    0.076470
    28  C   -0.094323
    29  C   -0.055087
    30  C    0.063707
    31  C    0.027602
    32  C   -0.032316
    33  C   -0.043811
    34  N   -0.452783
    35  C    0.130412
    36  C   -0.169015
    37  C   -0.056245
    38  C    0.216162
    39  C    0.092110
    40  C    0.093902
    41  O   -0.188876
    42  C   -0.130118
    43  C    0.262639
    44  O   -0.290503
    45  O   -0.356946
    46  C    0.146151
    47  C    0.306215
    48  C   -0.165777
    49  C   -0.203900
    50  C    0.031022
    51  C    0.014099
    52  C    0.003785
    53  C   -0.031354
    54  C   -0.193871
    55  C    0.000635
    56  C   -0.014365
    57  C   -0.004862
    58  C    0.011854
    59  C   -0.192540
    60  C    0.033580
    61  C    0.028607
    62  C   -0.041966
    63  C   -0.019791
    64  C   -0.199654
    65  C   -0.003193
    66  C    0.008347
    67  H   -0.008930
    68  H    0.021707
    69  H   -0.013223
    70  H    0.040471
    71  H    0.028246
    72  H    0.047718
    73  H    0.032350
    74  H    0.053024
    75  H    0.037202
    76  H    0.057290
    77  H    0.070917
    78  H    0.045664
    79  H    0.057634
    80  H    0.043467
    81  H    0.035663
    82  H    0.042547
    83  H    0.066675
    84  H    0.043832
    85  H    0.047488
    86  H    0.036209
    87  H    0.044743
    88  H    0.039157
    89  H    0.036291
    90  H    0.035267
    91  H    0.040185
    92  H    0.056580
    93  H    0.040573
    94  H    0.029166
    95  H    0.060730
    96  H    0.054499
    97  H    0.024541
    98  H    0.061456
    99  H    0.066226
   100  H    0.067310
   101  H    0.054067
   102  H    0.066096
   103  H    0.066181
   104  H    0.025436
   105  H    0.025394
   106  H    0.030841
   107  H    0.043337
   108  H    0.014724
   109  H    0.010809
   110  H    0.029002
   111  H    0.035280
   112  H    0.022315
   113  H    0.024743
   114  H    0.018872
   115  H    0.041422
   116  H    0.032681
   117  H    0.025055
   118  H    0.007320
   119  H    0.023744
   120  H    0.009957
   121  H    0.009349
   122  H    0.014820
   123  H    0.007875
   124  H    0.019398
   125  H    0.021509
   126  H    0.035115
   127  H    0.024780
   128  H    0.004636
   129  H    0.008349
   130  H    0.013312
   131  H    0.025013
   132  H    0.021618
   133  H    0.006835
   134  H    0.026031
   135  H    0.029507
   136  H    0.027881
   137  H    0.022982
   138  H    0.030686
   139  H    0.016597
   140  H    0.030673
 Sum of Mulliken charges =  -0.00000

 Dipole moment (field-independent basis, Debye):
    X=             -2.6502    Y=              3.1179    Z=             -1.5141  Tot=              4.3632
 Quadrupole moment (field-independent basis, Debye-Ang):
   XX=           -362.9197   YY=           -409.4355   ZZ=           -406.9163
   XY=             -8.4639   XZ=             14.9423   YZ=              8.3208

 Normal termination of Gaussian 16 at Fri Apr 29 21:40:20 2022.
