 Gaussian 16, Revision A.03,
 Gaussian 16:  ES64L-G16RevA.03 25-Dec-2016

 --------------------
 #p ZINDO=(nstates=5)
 --------------------

 -----------------------------
 step_501_chromophore_13 ZINDO
 -----------------------------
 Symbolic Z-matrix:
 Charge =  0 Multiplicity = 1

                         Standard orientation:
 ---------------------------------------------------------------------
 Center     Atomic      Atomic             Coordinates (Angstroms)
 Number     Number       Type             X           Y           Z
 ---------------------------------------------------------------------
      1         12           0        5.823328    0.425830    0.143313
      2          6           0        3.497117   -2.151526    0.017324
      3          6           0        3.193093    2.562531   -0.595639
      4          6           0        8.141428    2.883886   -0.244773
      5          6           0        8.322193   -1.897617    0.702920
      6          7           0        3.607881    0.211179   -0.298205
      7          6           0        2.844479   -0.945671   -0.259094
      8          6           0        1.333791   -0.726713   -0.663756
      9          6           0        1.403212    0.769708   -1.159319
     10          6           0        2.836458    1.226372   -0.698765
     11          6           0        1.218601    1.121872   -2.638307
     12          6           0        0.399592   -1.009730    0.526959
     13          6           0       -0.420117   -2.271922    0.471220
     14          6           0       -1.846991   -2.198060    1.043183
     15          8           0       -2.008274   -2.355155    2.278623
     16          8           0       -2.869291   -1.949209    0.148602
     17          7           0        5.718282    2.474842   -0.155257
     18          6           0        4.537475    3.120251   -0.352285
     19          6           0        4.893625    4.538975   -0.549191
     20          6           0        6.292290    4.656717   -0.557061
     21          6           0        6.794633    3.361505   -0.308225
     22          6           0        3.853570    5.584145   -0.585133
     23          6           0        7.160927    5.855105   -0.804597
     24          8           0        8.416300    5.843767   -0.672225
     25          6           0        6.666267    7.120992   -1.246531
     26          7           0        7.869340    0.503355    0.293904
     27          6           0        8.612332    1.630791    0.122455
     28          6           0       10.066804    1.408675    0.263271
     29          6           0       10.147879   -0.116610    0.630364
     30          6           0        8.730910   -0.523961    0.475182
     31          6           0       11.097305    1.772245   -0.845970
     32          6           0       10.847274   -0.451489    2.039314
     33          6           0       10.082444   -0.424870    3.395951
     34          7           0        5.970146   -1.598125    0.292767
     35          6           0        7.038437   -2.405448    0.558701
     36          6           0        6.605912   -3.711584    0.803939
     37          6           0        5.191305   -3.646430    0.501584
     38          6           0        4.865715   -2.333142    0.226891
     39          6           0        7.434144   -4.902578    1.282478
     40          6           0        4.001897   -4.447669    0.544181
     41          8           0        3.750740   -5.583505    0.892233
     42          6           0        2.865303   -3.519243   -0.010621
     43          6           0        2.488433   -3.946392   -1.372668
     44          8           0        2.676749   -3.307095   -2.431011
     45          8           0        1.908316   -5.164742   -1.437108
     46          6           0        1.264452   -5.614968   -2.718136
     47          6           0       -4.270282   -2.094851    0.617430
     48          6           0       -5.199830   -1.416747   -0.266701
     49          6           0       -6.490602   -1.568278   -0.457120
     50          6           0       -7.376371   -2.340445    0.417612
     51          6           0       -7.249724   -0.558814   -1.346629
     52          6           0       -7.435050    0.835359   -0.795586
     53          6           0       -8.934322    1.150505   -0.872399
     54          6           0       -9.301004    2.302728    0.131516
     55          6           0       -8.469356    3.576882   -0.228730
     56          6           0       -9.025315    1.841898    1.559841
     57          6           0      -10.124894    2.088874    2.593148
     58          6           0      -11.348276    1.117720    2.459849
     59          6           0      -12.647763    1.974394    2.288414
     60          6           0      -13.170731    2.544212    3.591281
     61          6           0      -13.632238    1.123918    1.485802
     62          6           0      -13.322716    1.059345   -0.040033
     63          6           0      -13.251273   -0.415064   -0.545230
     64          6           0      -13.415622   -0.450592   -2.096592
     65          6           0      -14.582077   -1.405558   -2.465659
     66          6           0      -12.079398   -0.628388   -2.840817
     67          1           0        2.373737    3.220220   -0.891074
     68          1           0        8.935384    3.619159   -0.392547
     69          1           0        9.022797   -2.661744    1.047475
     70          1           0        1.088340   -1.208824   -1.610604
     71          1           0        0.662433    1.305584   -0.565950
     72          1           0        2.162646    1.462393   -3.064322
     73          1           0        0.613243    2.026893   -2.658488
     74          1           0        0.797346    0.332021   -3.261181
     75          1           0       -0.318564   -0.188935    0.522295
     76          1           0        0.983162   -0.922841    1.443472
     77          1           0        0.118642   -3.034795    1.033855
     78          1           0       -0.529455   -2.719000   -0.516942
     79          1           0        4.067025    6.217145    0.275207
     80          1           0        2.800863    5.299791   -0.558296
     81          1           0        3.970705    6.183384   -1.488032
     82          1           0        5.954993    6.888212   -2.038562
     83          1           0        7.486135    7.812404   -1.436800
     84          1           0        6.026607    7.578085   -0.491503
     85          1           0       10.251698    2.036397    1.134493
     86          1           0       10.693455   -0.645438   -0.150279
     87          1           0       11.767396    2.573933   -0.535399
     88          1           0       10.597508    2.139348   -1.743013
     89          1           0       11.680959    0.919105   -1.191618
     90          1           0       11.596442    0.337324    2.110557
     91          1           0       11.314025   -1.408185    1.804359
     92          1           0        9.000576   -0.318429    3.320680
     93          1           0       10.493965    0.229175    4.165226
     94          1           0       10.299584   -1.401869    3.825722
     95          1           0        7.364697   -5.748476    0.597766
     96          1           0        7.001371   -5.244772    2.222397
     97          1           0        8.474840   -4.669533    1.509275
     98          1           0        1.964906   -3.731024    0.566292
     99          1           0        0.699048   -6.444568   -2.293426
    100          1           0        1.957372   -5.922032   -3.500820
    101          1           0        0.634799   -4.817029   -3.112968
    102          1           0       -4.365833   -1.538092    1.548815
    103          1           0       -4.557488   -3.146658    0.625474
    104          1           0       -4.728579   -0.812047   -1.041720
    105          1           0       -6.789307   -3.071566    0.973281
    106          1           0       -8.222902   -2.760228   -0.126501
    107          1           0       -7.889585   -1.762801    1.185936
    108          1           0       -8.105266   -1.088005   -1.766583
    109          1           0       -6.705326   -0.417590   -2.280547
    110          1           0       -6.925567    1.487088   -1.505988
    111          1           0       -7.069726    0.914424    0.227928
    112          1           0       -9.481077    0.260097   -0.559365
    113          1           0       -9.262693    1.459737   -1.864037
    114          1           0      -10.358413    2.552457    0.048788
    115          1           0       -7.460792    3.454727    0.164714
    116          1           0       -9.021385    4.425105    0.176858
    117          1           0       -8.477769    3.688232   -1.312922
    118          1           0       -8.155587    2.447788    1.817788
    119          1           0       -8.788847    0.781941    1.648430
    120          1           0      -10.387485    3.143074    2.677182
    121          1           0       -9.604945    1.958451    3.542369
    122          1           0      -11.402444    0.474673    3.339146
    123          1           0      -11.170413    0.368839    1.688797
    124          1           0      -12.339248    2.809703    1.659166
    125          1           0      -14.205811    2.251807    3.765968
    126          1           0      -13.101611    3.631621    3.557527
    127          1           0      -12.674732    2.140297    4.473645
    128          1           0      -14.658103    1.476247    1.597102
    129          1           0      -13.717210    0.089321    1.819493
    130          1           0      -12.410578    1.639403   -0.179711
    131          1           0      -14.118303    1.541232   -0.607931
    132          1           0      -13.924482   -1.076939   -0.000481
    133          1           0      -12.272766   -0.825240   -0.293641
    134          1           0      -13.671008    0.589918   -2.296917
    135          1           0      -15.265350   -0.963346   -3.191117
    136          1           0      -15.231551   -1.747072   -1.659401
    137          1           0      -14.190626   -2.318241   -2.914936
    138          1           0      -12.057779   -1.401772   -3.608170
    139          1           0      -11.225887   -0.883036   -2.212017
    140          1           0      -11.860077    0.380683   -3.190279
 ---------------------------------------------------------------------

 SCF Done:  E(RZINDO/S) =  -474.567062338     A.U. after   19 cycles

 Excitation energies and oscillator strengths:

 Excited State   1:      Singlet-A      1.2418 eV  998.43 nm  f=0.6017  <S**2>=0.000
     175 ->178        -0.19192
     176 ->177         0.66175
 This state for optimization and/or second-order correction.
 Total Energy, E(CIS/TDA) =  -474.521427458
 Copying the excited state density for this state as the 1-particle RhoCI density.

 Excited State   2:      Singlet-A      1.9123 eV  648.34 nm  f=0.0864  <S**2>=0.000
     175 ->177         0.57161
     176 ->178         0.38933

 Excited State   3:      Singlet-A      2.8337 eV  437.54 nm  f=0.0034  <S**2>=0.000
     168 ->177        -0.11603
     168 ->179         0.16380
     168 ->180         0.16109
     169 ->177        -0.25217
     169 ->178         0.16318
     169 ->179         0.33162
     169 ->180         0.32732
     169 ->182        -0.12773
     169 ->186         0.16035
     169 ->187         0.11371

 Excited State   4:      Singlet-A      3.0194 eV  410.62 nm  f=0.0533  <S**2>=0.000
     170 ->177         0.33220
     170 ->178        -0.10811
     170 ->179         0.37454
     170 ->180        -0.26167
     170 ->186         0.20870
     170 ->187        -0.14756
     170 ->200        -0.11791
     176 ->178         0.12410

 Excited State   5:      Singlet-A      3.0686 eV  404.05 nm  f=1.1608  <S**2>=0.000
     171 ->177         0.14476
     175 ->177        -0.35566
     176 ->178         0.54063

 The electronic state is 1-A.
 Alpha  occ. eigenvalues --   -1.86872  -1.82593  -1.79815  -1.72198  -1.71951
 Alpha  occ. eigenvalues --   -1.70090  -1.68017  -1.61974  -1.59506  -1.59298
 Alpha  occ. eigenvalues --   -1.55880  -1.52706  -1.49568  -1.49035  -1.45301
 Alpha  occ. eigenvalues --   -1.43810  -1.41432  -1.39949  -1.38969  -1.38705
 Alpha  occ. eigenvalues --   -1.36624  -1.33039  -1.32951  -1.31545  -1.28413
 Alpha  occ. eigenvalues --   -1.28130  -1.25468  -1.22155  -1.21557  -1.17952
 Alpha  occ. eigenvalues --   -1.17802  -1.17248  -1.16449  -1.14543  -1.13036
 Alpha  occ. eigenvalues --   -1.12361  -1.11344  -1.10495  -1.06768  -1.04869
 Alpha  occ. eigenvalues --   -1.03162  -1.01926  -0.99476  -0.97957  -0.97765
 Alpha  occ. eigenvalues --   -0.97435  -0.95558  -0.94613  -0.93657  -0.92887
 Alpha  occ. eigenvalues --   -0.91063  -0.90261  -0.88843  -0.88112  -0.85384
 Alpha  occ. eigenvalues --   -0.84853  -0.83466  -0.83392  -0.81676  -0.80548
 Alpha  occ. eigenvalues --   -0.79855  -0.78368  -0.77913  -0.76768  -0.76175
 Alpha  occ. eigenvalues --   -0.75137  -0.75040  -0.74033  -0.73615  -0.73146
 Alpha  occ. eigenvalues --   -0.72942  -0.72682  -0.72427  -0.72378  -0.71078
 Alpha  occ. eigenvalues --   -0.70826  -0.69083  -0.68586  -0.68535  -0.68044
 Alpha  occ. eigenvalues --   -0.67738  -0.66781  -0.66386  -0.66338  -0.65153
 Alpha  occ. eigenvalues --   -0.64854  -0.64631  -0.63944  -0.63830  -0.63336
 Alpha  occ. eigenvalues --   -0.62963  -0.62739  -0.62606  -0.61894  -0.61781
 Alpha  occ. eigenvalues --   -0.61389  -0.61040  -0.60883  -0.60556  -0.60341
 Alpha  occ. eigenvalues --   -0.60087  -0.59780  -0.59287  -0.59054  -0.58357
 Alpha  occ. eigenvalues --   -0.57934  -0.57260  -0.57078  -0.56301  -0.55977
 Alpha  occ. eigenvalues --   -0.55958  -0.55263  -0.55007  -0.54929  -0.54612
 Alpha  occ. eigenvalues --   -0.54455  -0.53892  -0.53480  -0.53280  -0.53187
 Alpha  occ. eigenvalues --   -0.52785  -0.52106  -0.51960  -0.51442  -0.51388
 Alpha  occ. eigenvalues --   -0.50942  -0.50897  -0.50691  -0.50510  -0.50308
 Alpha  occ. eigenvalues --   -0.50105  -0.49708  -0.49657  -0.49521  -0.49343
 Alpha  occ. eigenvalues --   -0.49246  -0.48836  -0.48449  -0.48127  -0.47768
 Alpha  occ. eigenvalues --   -0.47281  -0.46785  -0.46630  -0.46496  -0.46468
 Alpha  occ. eigenvalues --   -0.46313  -0.45999  -0.45100  -0.44915  -0.44728
 Alpha  occ. eigenvalues --   -0.44642  -0.44555  -0.43966  -0.43774  -0.43734
 Alpha  occ. eigenvalues --   -0.43335  -0.43330  -0.42673  -0.42509  -0.42046
 Alpha  occ. eigenvalues --   -0.41690  -0.41314  -0.41025  -0.38762  -0.38558
 Alpha  occ. eigenvalues --   -0.38097  -0.36694  -0.35173  -0.34705  -0.34276
 Alpha  occ. eigenvalues --   -0.33074  -0.32440  -0.32386  -0.31877  -0.26316
 Alpha  occ. eigenvalues --   -0.21839
 Alpha virt. eigenvalues --   -0.08650  -0.01777  -0.00378   0.01125   0.01230
 Alpha virt. eigenvalues --    0.02694   0.02965   0.03431   0.04876   0.05092
 Alpha virt. eigenvalues --    0.06454   0.06898   0.07279   0.07884   0.08143

 Mulliken charges:
               1
     1  Mg   0.423817
     2  C   -0.034554
     3  C   -0.097711
     4  C   -0.062683
     5  C   -0.071984
     6  N   -0.289071
     7  C    0.110714
     8  C    0.000108
     9  C   -0.002596
    10  C    0.149220
    11  C   -0.044803
    12  C   -0.005771
    13  C    0.014211
    14  C    0.462365
    15  O   -0.531819
    16  O   -0.272739
    17  N   -0.324904
    18  C    0.112688
    19  C    0.019830
    20  C   -0.034442
    21  C    0.129876
    22  C   -0.041448
    23  C    0.331189
    24  O   -0.556066
    25  C   -0.021823
    26  N   -0.253173
    27  C    0.148375
    28  C    0.003181
    29  C   -0.004111
    30  C    0.121163
    31  C   -0.048371
    32  C   -0.029511
    33  C   -0.054585
    34  N   -0.323744
    35  C    0.097977
    36  C    0.020464
    37  C   -0.066638
    38  C    0.136017
    39  C   -0.037589
    40  C    0.330143
    41  O   -0.529167
    42  C    0.050933
    43  C    0.487398
    44  O   -0.558055
    45  O   -0.267101
    46  C    0.078720
    47  C    0.115192
    48  C   -0.065877
    49  C   -0.021412
    50  C   -0.043086
    51  C   -0.030401
    52  C   -0.021758
    53  C   -0.035732
    54  C   -0.022659
    55  C   -0.059216
    56  C   -0.033060
    57  C   -0.041411
    58  C   -0.034151
    59  C   -0.001297
    60  C   -0.052866
    61  C   -0.039219
    62  C   -0.042592
    63  C   -0.037500
    64  C   -0.012750
    65  C   -0.055140
    66  C   -0.056900
    67  H    0.026779
    68  H    0.047580
    69  H    0.031554
    70  H    0.047953
    71  H    0.022966
    72  H    0.024824
    73  H    0.015510
    74  H    0.031645
    75  H    0.020734
    76  H    0.037464
    77  H    0.040388
    78  H    0.032582
    79  H    0.029948
    80  H    0.028608
    81  H    0.024427
    82  H    0.035550
    83  H    0.049457
    84  H    0.033764
    85  H    0.034544
    86  H    0.030676
    87  H    0.024705
    88  H    0.021273
    89  H    0.022496
    90  H    0.016911
    91  H    0.024660
    92  H    0.032232
    93  H    0.025874
    94  H    0.012259
    95  H    0.037128
    96  H    0.031047
    97  H    0.022726
    98  H    0.062270
    99  H    0.036447
   100  H    0.053724
   101  H    0.043598
   102  H    0.063711
   103  H    0.058700
   104  H    0.022201
   105  H    0.017510
   106  H    0.024200
   107  H    0.026722
   108  H    0.019422
   109  H    0.004596
   110  H    0.023178
   111  H    0.035214
   112  H    0.015345
   113  H    0.019576
   114  H    0.016931
   115  H    0.029613
   116  H    0.017220
   117  H    0.014520
   118  H    0.012297
   119  H    0.021027
   120  H    0.020753
   121  H    0.004435
   122  H    0.015293
   123  H    0.022037
   124  H    0.020186
   125  H    0.015551
   126  H    0.020748
   127  H    0.019681
   128  H    0.006541
   129  H    0.017924
   130  H    0.025927
   131  H    0.018569
   132  H    0.024811
   133  H    0.011050
   134  H    0.020587
   135  H    0.014151
   136  H    0.020606
   137  H    0.015371
   138  H    0.023988
   139  H    0.015511
   140  H    0.017901
 Sum of Mulliken charges =  -0.00000

 Dipole moment (field-independent basis, Debye):
    X=             -3.4238    Y=              5.0339    Z=             -1.9572  Tot=              6.3948
 N-N= 4.302034679185D+03 E-N= 0.000000000000D+00  KE=-9.278788909788D+03
 Leave Link  601 at Fri Apr 29 21:54:07 2022, MaxMem=  6710886400 cpu:               0.8 elap:               0.0
 (Enter /sw/apps/gaussian-16.0/g16/l9999.exe)
 1\1\GINC-BP1-COMPUTE070\SP\RZINDO CIS\STO-3G\C55H74Mg1N4O6\OF15641\29-
 Apr-2022\0\\#p ZINDO=(nstates=5)\\step_501_chromophore_13 ZINDO\\0,1\M
 g,0,46.634,24.732,28.524\C,0,47.166,26.794,31.269\C,0,45.35,22.419,30.
 767\C,0,46.575,22.51,25.95\C,0,48.108,27.109,26.491\N,0,46.351,24.607,
 30.772\C,0,46.606,25.592,31.714\C,0,46.326,25.14,33.201\C,0,46.051,23.
 604,32.967\C,0,45.942,23.501,31.401\C,0,47.031,22.54,33.47\C,0,45.173,
 25.955,33.815\C,0,45.536,26.98,34.857\C,0,44.555,27.154,36.03\O,0,43.5

 Normal termination of Gaussian 16 at Fri Apr 29 21:54:07 2022.
