 Gaussian 16, Revision A.03,
 Gaussian 16:  ES64L-G16RevA.03 25-Dec-2016

 ------------------------------
 #p blyp/Def2SVP td=(nstates=5)
 ------------------------------

 -------------------------------------------------
 step_201_chromophore_1 TDDFT with blyp functional
 -------------------------------------------------
 Symbolic Z-matrix:
 Charge =  0 Multiplicity = 1

                         Standard orientation:
 ---------------------------------------------------------------------
 Center     Atomic      Atomic             Coordinates (Angstroms)
 Number     Number       Type             X           Y           Z
 ---------------------------------------------------------------------
      1         12           0        5.985897    0.385979    0.062389
      2          6           0        4.006484   -2.399032   -0.467082
      3          6           0        3.393375    2.369379   -1.190467
      4          6           0        7.972149    3.040481    0.246983
      5          6           0        8.691366   -1.622320    0.618629
      6          7           0        3.964865   -0.014783   -0.740288
      7          6           0        3.311825   -1.241492   -0.843597
      8          6           0        1.823704   -1.082777   -1.312280
      9          6           0        1.809907    0.419743   -1.767910
     10          6           0        3.127495    1.002653   -1.245788
     11          6           0        1.544546    0.685203   -3.298937
     12          6           0        0.701012   -1.467092   -0.275288
     13          6           0       -0.711161   -0.890201   -0.595254
     14          6           0       -1.917644   -1.842675   -0.637426
     15          8           0       -1.860888   -2.991181   -1.153064
     16          8           0       -3.089739   -1.367283   -0.181130
     17          7           0        5.688831    2.389556   -0.273653
     18          6           0        4.503233    3.040739   -0.662274
     19          6           0        4.720475    4.412459   -0.617323
     20          6           0        6.071754    4.681155   -0.208076
     21          6           0        6.616996    3.334668    0.035042
     22          6           0        3.639206    5.418750   -1.076643
     23          6           0        6.745621    6.040141   -0.152453
     24          8           0        7.923106    6.173136    0.107720
     25          6           0        5.995598    7.350763   -0.208602
     26          7           0        7.986007    0.734035    0.404820
     27          6           0        8.617841    1.903441    0.360128
     28          6           0       10.141716    1.779309    0.455964
     29          6           0       10.307749    0.262957    0.940785
     30          6           0        8.899050   -0.259609    0.659519
     31          6           0       10.832472    2.080926   -0.820758
     32          6           0       10.579379    0.084393    2.447505
     33          6           0       11.909568    0.660407    2.925722
     34          7           0        6.356447   -1.555855    0.230368
     35          6           0        7.402627   -2.237025    0.472903
     36          6           0        7.141826   -3.652070    0.583716
     37          6           0        5.846120   -3.784981    0.227810
     38          6           0        5.388281   -2.454089   -0.085212
     39          6           0        8.229222   -4.600110    0.911971
     40          6           0        4.801347   -4.727422   -0.052455
     41          8           0        4.842931   -5.962493   -0.028665
     42          6           0        3.575530   -3.854463   -0.586458
     43          6           0        2.453421   -4.376341    0.157447
     44          8           0        2.080595   -4.072882    1.269560
     45          8           0        1.734050   -5.267845   -0.678786
     46          6           0        0.562199   -5.876128    0.062113
     47          6           0       -4.247011   -2.226739   -0.340084
     48          6           0       -5.239353   -1.276940   -0.765192
     49          6           0       -6.508578   -1.508905   -0.931948
     50          6           0       -7.134018   -2.891785   -0.793700
     51          6           0       -7.461866   -0.343313   -1.092918
     52          6           0       -8.401272   -0.052714    0.093592
     53          6           0       -9.188766    1.307526   -0.023581
     54          6           0       -9.091192    2.320223    1.108933
     55          6           0       -7.630844    2.805422    1.209707
     56          6           0       -9.638984    1.827111    2.521968
     57          6           0      -11.153992    2.037799    2.655737
     58          6           0      -11.966675    0.699228    2.902198
     59          6           0      -13.338855    0.708595    2.293231
     60          6           0      -14.423087    0.686010    3.374734
     61          6           0      -13.470428   -0.336004    1.185920
     62          6           0      -14.533861   -0.012361    0.128312
     63          6           0      -13.991120   -0.222423   -1.299799
     64          6           0      -13.286601    1.039070   -1.837987
     65          6           0      -14.365866    2.065300   -2.230282
     66          6           0      -12.149191    0.852162   -2.883558
     67          1           0        2.641999    3.003375   -1.666846
     68          1           0        8.590794    3.938480    0.312353
     69          1           0        9.510055   -2.299952    0.870140
     70          1           0        1.590833   -1.547297   -2.270483
     71          1           0        1.025375    1.047863   -1.343652
     72          1           0        2.229396    1.478947   -3.596892
     73          1           0        0.516868    1.039035   -3.376017
     74          1           0        1.549187   -0.136386   -4.014482
     75          1           0        1.065280   -1.066740    0.671143
     76          1           0        0.512881   -2.538591   -0.222924
     77          1           0       -0.778278   -0.427420   -1.579756
     78          1           0       -0.969225   -0.151761    0.163932
     79          1           0        4.034895    5.870514   -1.986835
     80          1           0        3.489050    6.136944   -0.270919
     81          1           0        2.646907    4.991120   -1.226211
     82          1           0        5.128662    7.387147    0.450116
     83          1           0        5.737796    7.458098   -1.261905
     84          1           0        6.696683    8.049008    0.248389
     85          1           0       10.374614    2.450776    1.281570
     86          1           0       11.058134   -0.365718    0.461467
     87          1           0       10.280045    2.915032   -1.253361
     88          1           0       10.957378    1.170438   -1.407197
     89          1           0       11.819209    2.489126   -0.599493
     90          1           0       10.529794   -0.971888    2.714007
     91          1           0        9.783411    0.686955    2.884452
     92          1           0       12.574466   -0.092226    3.350954
     93          1           0       11.796059    1.412196    3.706600
     94          1           0       12.479388    1.142256    2.130680
     95          1           0        8.937783   -4.620532    0.083099
     96          1           0        7.689996   -5.544682    0.974259
     97          1           0        8.833041   -4.520667    1.816615
     98          1           0        3.555912   -4.215831   -1.614953
     99          1           0       -0.294274   -5.217373    0.208051
    100          1           0        0.757178   -6.351834    1.022569
    101          1           0        0.109096   -6.571197   -0.643507
    102          1           0       -4.491113   -2.743923    0.588197
    103          1           0       -4.141298   -2.938312   -1.158578
    104          1           0       -4.965266   -0.235121   -0.930372
    105          1           0       -7.764909   -3.014896    0.086542
    106          1           0       -6.434342   -3.724806   -0.855549
    107          1           0       -7.815716   -3.040913   -1.630854
    108          1           0       -8.236150   -0.632088   -1.802791
    109          1           0       -7.085712    0.585491   -1.520927
    110          1           0       -7.883174   -0.064433    1.052045
    111          1           0       -9.107008   -0.879268    0.021524
    112          1           0      -10.205860    0.947267   -0.177067
    113          1           0       -8.855743    1.843517   -0.913284
    114          1           0       -9.768227    3.142296    0.872908
    115          1           0       -7.324381    2.816819    2.255208
    116          1           0       -7.537732    3.827060    0.840788
    117          1           0       -6.912591    2.297014    0.566577
    118          1           0       -9.201181    2.322370    3.389164
    119          1           0       -9.440415    0.765769    2.669984
    120          1           0      -11.570618    2.582848    1.808251
    121          1           0      -11.382082    2.504256    3.613786
    122          1           0      -12.037365    0.523452    3.976244
    123          1           0      -11.360071   -0.155620    2.603287
    124          1           0      -13.569982    1.614124    1.733492
    125          1           0      -15.284255    1.288321    3.086671
    126          1           0      -14.068720    1.103234    4.317382
    127          1           0      -14.871881   -0.291672    3.548053
    128          1           0      -13.987933   -1.176745    1.647835
    129          1           0      -12.491010   -0.662710    0.837012
    130          1           0      -14.966813    0.976096    0.282111
    131          1           0      -15.359989   -0.702801    0.300621
    132          1           0      -14.727718   -0.706007   -1.942523
    133          1           0      -13.140852   -0.904250   -1.287625
    134          1           0      -12.774432    1.571336   -1.036573
    135          1           0      -15.104446    2.197481   -1.439786
    136          1           0      -14.873321    1.629792   -3.091207
    137          1           0      -13.950903    3.065249   -2.356382
    138          1           0      -11.218360    1.309766   -2.546501
    139          1           0      -12.378246    1.485108   -3.740306
    140          1           0      -12.091198   -0.208364   -3.128206
 ---------------------------------------------------------------------

 SCF Done:  E(RB-LYP) =  -3007.35995576     A.U. after   20 cycles

 Excitation energies and oscillator strengths:

 Excited State   1:      Singlet-A      1.7878 eV  693.49 nm  f=0.0502  <S**2>=0.000
     244 -> 247        0.64974
     246 -> 247       -0.27034
 This state for optimization and/or second-order correction.
 Total Energy, E(TD-HF/TD-DFT) =  -3007.29425459
 Copying the excited state density for this state as the 1-particle RhoCI density.

 Excited State   2:      Singlet-A      1.8151 eV  683.06 nm  f=0.2739  <S**2>=0.000
     244 -> 247        0.26590
     245 -> 248        0.14836
     246 -> 247        0.64054
     246 <- 247       -0.14671

 Excited State   3:      Singlet-A      2.0464 eV  605.87 nm  f=0.0499  <S**2>=0.000
     243 -> 247        0.52978
     245 -> 247       -0.43372
     246 -> 248        0.12302

 Excited State   4:      Singlet-A      2.0831 eV  595.19 nm  f=0.0602  <S**2>=0.000
     243 -> 247        0.46679
     245 -> 247        0.48206
     246 -> 248       -0.16105

 Excited State   5:      Singlet-A      2.2544 eV  549.97 nm  f=0.0001  <S**2>=0.000
     242 -> 247        0.70691

 The electronic state is 1-A.
 Alpha  occ. eigenvalues --  -46.25704 -18.83077 -18.80783 -18.76505 -18.76303
 Alpha  occ. eigenvalues --  -18.76237 -18.75236 -14.03776 -14.02661 -14.01273
 Alpha  occ. eigenvalues --  -14.00800 -10.04545 -10.02956 -10.00234  -9.99555
 Alpha  occ. eigenvalues --   -9.97867  -9.97411  -9.96655  -9.96110  -9.95963
 Alpha  occ. eigenvalues --   -9.95716  -9.95334  -9.94974  -9.94961  -9.94850
 Alpha  occ. eigenvalues --   -9.94828  -9.94526  -9.94487  -9.94341  -9.93861
 Alpha  occ. eigenvalues --   -9.93519  -9.93508  -9.93455  -9.93427  -9.93207
 Alpha  occ. eigenvalues --   -9.93114  -9.93021  -9.92849  -9.92633  -9.92632
 Alpha  occ. eigenvalues --   -9.92534  -9.92468  -9.92300  -9.92214  -9.92136
 Alpha  occ. eigenvalues --   -9.91978  -9.91815  -9.91808  -9.91788  -9.91733
 Alpha  occ. eigenvalues --   -9.91686  -9.91669  -9.91399  -9.91239  -9.91197
 Alpha  occ. eigenvalues --   -9.91148  -9.91120  -9.91107  -9.91080  -9.90942
 Alpha  occ. eigenvalues --   -9.90712  -9.90658  -9.90556  -9.90548  -9.90541
 Alpha  occ. eigenvalues --   -9.90522  -2.90722  -1.71143  -1.70580  -1.70462
 Alpha  occ. eigenvalues --   -0.99142  -0.95766  -0.92098  -0.91266  -0.89187
 Alpha  occ. eigenvalues --   -0.88476  -0.88208  -0.86717  -0.85030  -0.84133
 Alpha  occ. eigenvalues --   -0.75909  -0.74419  -0.73525  -0.73034  -0.72608
 Alpha  occ. eigenvalues --   -0.72286  -0.72239  -0.71569  -0.71262  -0.70896
 Alpha  occ. eigenvalues --   -0.69874  -0.69473  -0.68393  -0.68043  -0.67435
 Alpha  occ. eigenvalues --   -0.66915  -0.65842  -0.65304  -0.64946  -0.64446
 Alpha  occ. eigenvalues --   -0.64327  -0.62938  -0.62359  -0.61823  -0.60864
 Alpha  occ. eigenvalues --   -0.60550  -0.60340  -0.59978  -0.59596  -0.59199
 Alpha  occ. eigenvalues --   -0.58872  -0.58145  -0.57059  -0.56155  -0.54888
 Alpha  occ. eigenvalues --   -0.54726  -0.54018  -0.53226  -0.52758  -0.51633
 Alpha  occ. eigenvalues --   -0.51305  -0.51227  -0.50880  -0.50629  -0.50065
 Alpha  occ. eigenvalues --   -0.49607  -0.48416  -0.47957  -0.47219  -0.46594
 Alpha  occ. eigenvalues --   -0.46521  -0.46279  -0.45687  -0.45631  -0.44559
 Alpha  occ. eigenvalues --   -0.44335  -0.44191  -0.43391  -0.43193  -0.42515
 Alpha  occ. eigenvalues --   -0.42240  -0.41752  -0.41623  -0.41566  -0.41489
 Alpha  occ. eigenvalues --   -0.41015  -0.40947  -0.40781  -0.40385  -0.40153
 Alpha  occ. eigenvalues --   -0.39861  -0.39724  -0.39391  -0.39308  -0.39248
 Alpha  occ. eigenvalues --   -0.39180  -0.38991  -0.38631  -0.38571  -0.38270
 Alpha  occ. eigenvalues --   -0.38061  -0.37988  -0.37828  -0.37702  -0.37627
 Alpha  occ. eigenvalues --   -0.37377  -0.36926  -0.36823  -0.36598  -0.36341
 Alpha  occ. eigenvalues --   -0.36285  -0.36080  -0.35748  -0.35651  -0.35552
 Alpha  occ. eigenvalues --   -0.35417  -0.35267  -0.35151  -0.35131  -0.34949
 Alpha  occ. eigenvalues --   -0.34755  -0.34638  -0.34383  -0.34195  -0.33825
 Alpha  occ. eigenvalues --   -0.33799  -0.33619  -0.33465  -0.33318  -0.33018
 Alpha  occ. eigenvalues --   -0.32980  -0.32821  -0.32688  -0.32375  -0.32042
 Alpha  occ. eigenvalues --   -0.31818  -0.31790  -0.31639  -0.31591  -0.31462
 Alpha  occ. eigenvalues --   -0.31332  -0.31082  -0.30958  -0.30782  -0.30645
 Alpha  occ. eigenvalues --   -0.30494  -0.30348  -0.30264  -0.30049  -0.29953
 Alpha  occ. eigenvalues --   -0.29782  -0.29545  -0.29492  -0.29299  -0.29194
 Alpha  occ. eigenvalues --   -0.28784  -0.28683  -0.28445  -0.28144  -0.27855
 Alpha  occ. eigenvalues --   -0.27606  -0.27531  -0.27082  -0.26871  -0.26627
 Alpha  occ. eigenvalues --   -0.26428  -0.26320  -0.26174  -0.25999  -0.25339
 Alpha  occ. eigenvalues --   -0.25243  -0.24223  -0.24128  -0.23930  -0.23707
 Alpha  occ. eigenvalues --   -0.23544  -0.22649  -0.21751  -0.21652  -0.21449
 Alpha  occ. eigenvalues --   -0.20489  -0.20160  -0.19343  -0.18398  -0.17587
 Alpha  occ. eigenvalues --   -0.16061
 Alpha virt. eigenvalues --   -0.11876  -0.06760  -0.06261  -0.04550  -0.03164
 Alpha virt. eigenvalues --   -0.02105  -0.02012  -0.01278  -0.01006   0.00674
 Alpha virt. eigenvalues --    0.01053   0.01187   0.01680   0.02054   0.02609

 Mulliken charges:
               1
     1  Mg   0.727812
     2  C    0.049023
     3  C   -0.097014
     4  C   -0.085022
     5  C   -0.113017
     6  N   -0.250878
     7  C   -0.039019
     8  C    0.064354
     9  C   -0.058347
    10  C    0.063909
    11  C    0.099141
    12  C    0.146099
    13  C    0.124824
    14  C    0.055200
    15  O   -0.246421
    16  O   -0.238359
    17  N   -0.314622
    18  C    0.177073
    19  C   -0.163478
    20  C    0.042151
    21  C    0.107712
    22  C    0.175893
    23  C   -0.101835
    24  O   -0.162238
    25  C    0.137793
    26  N   -0.235167
    27  C    0.024261
    28  C    0.063111
    29  C   -0.014192
    30  C    0.097279
    31  C    0.185040
    32  C    0.081561
    33  C    0.081107
    34  N   -0.215278
    35  C    0.057150
    36  C   -0.189557
    37  C    0.137320
    38  C    0.056120
    39  C    0.162404
    40  C   -0.095050
    41  O   -0.132869
    42  C    0.060627
    43  C    0.129664
    44  O   -0.177930
    45  O   -0.306410
    46  C    0.223155
    47  C    0.358071
    48  C   -0.140889
    49  C   -0.099554
    50  C    0.122360
    51  C    0.121071
    52  C    0.033028
    53  C    0.078209
    54  C   -0.044263
    55  C    0.108717
    56  C    0.107803
    57  C    0.049434
    58  C    0.090399
    59  C   -0.073982
    60  C    0.102877
    61  C    0.108481
    62  C    0.078788
    63  C    0.113497
    64  C   -0.116473
    65  C    0.098683
    66  C    0.128058
    67  H   -0.065425
    68  H   -0.052981
    69  H   -0.065084
    70  H   -0.029295
    71  H   -0.021233
    72  H   -0.003666
    73  H   -0.014125
    74  H    0.000624
    75  H   -0.013908
    76  H    0.031852
    77  H    0.011334
    78  H   -0.008674
    79  H    0.010310
    80  H   -0.002607
    81  H   -0.012241
    82  H    0.000931
    83  H    0.008453
    84  H   -0.000563
    85  H   -0.031577
    86  H   -0.039127
    87  H   -0.007453
    88  H   -0.000770
    89  H   -0.014070
    90  H   -0.016795
    91  H   -0.024595
    92  H   -0.014223
    93  H   -0.009165
    94  H   -0.014238
    95  H    0.001427
    96  H    0.003847
    97  H    0.001018
    98  H    0.011505
    99  H    0.008569
   100  H    0.018978
   101  H   -0.002344
   102  H    0.013556
   103  H    0.020462
   104  H   -0.044512
   105  H    0.007298
   106  H   -0.014485
   107  H   -0.014360
   108  H   -0.049266
   109  H   -0.028951
   110  H   -0.015987
   111  H   -0.025777
   112  H   -0.021858
   113  H   -0.021528
   114  H   -0.036417
   115  H   -0.016574
   116  H   -0.026438
   117  H   -0.012249
   118  H   -0.036326
   119  H   -0.031343
   120  H   -0.011383
   121  H   -0.029667
   122  H   -0.046790
   123  H   -0.044049
   124  H   -0.033739
   125  H   -0.028795
   126  H   -0.015427
   127  H   -0.023201
   128  H   -0.047076
   129  H   -0.018272
   130  H   -0.027671
   131  H   -0.044767
   132  H   -0.034178
   133  H   -0.045788
   134  H   -0.033956
   135  H   -0.028623
   136  H   -0.019040
   137  H   -0.019314
   138  H   -0.014162
   139  H   -0.032263
   140  H   -0.009176
 Sum of Mulliken charges =  -0.00000

 Dipole moment (field-independent basis, Debye):
    X=             -2.3890    Y=              3.3675    Z=             -0.4770  Tot=              4.1563
 Quadrupole moment (field-independent basis, Debye-Ang):
   XX=           -370.5678   YY=           -438.9102   ZZ=           -404.6970
   XY=             -3.5400   XZ=              0.1857   YZ=             -3.8876

 Normal termination of Gaussian 16 at Fri Apr 29 07:19:19 2022.
