 Gaussian 16, Revision A.03,
 Gaussian 16:  ES64L-G16RevA.03 25-Dec-2016

 -----------------------------------
 #p cam-b3lyp/Def2SVP td=(nstates=5)
 -----------------------------------

 ------------------------------------------------------
 step_201_chromophore_1 TDDFT with cam-b3lyp functional
 ------------------------------------------------------
 Symbolic Z-matrix:
 Charge =  0 Multiplicity = 1

                         Standard orientation:
 ---------------------------------------------------------------------
 Center     Atomic      Atomic             Coordinates (Angstroms)
 Number     Number       Type             X           Y           Z
 ---------------------------------------------------------------------
      1         12           0        5.985897    0.385979    0.062389
      2          6           0        4.006484   -2.399032   -0.467082
      3          6           0        3.393375    2.369379   -1.190467
      4          6           0        7.972149    3.040481    0.246983
      5          6           0        8.691366   -1.622320    0.618629
      6          7           0        3.964865   -0.014783   -0.740288
      7          6           0        3.311825   -1.241492   -0.843597
      8          6           0        1.823704   -1.082777   -1.312280
      9          6           0        1.809907    0.419743   -1.767910
     10          6           0        3.127495    1.002653   -1.245788
     11          6           0        1.544546    0.685203   -3.298937
     12          6           0        0.701012   -1.467092   -0.275288
     13          6           0       -0.711161   -0.890201   -0.595254
     14          6           0       -1.917644   -1.842675   -0.637426
     15          8           0       -1.860888   -2.991181   -1.153064
     16          8           0       -3.089739   -1.367283   -0.181130
     17          7           0        5.688831    2.389556   -0.273653
     18          6           0        4.503233    3.040739   -0.662274
     19          6           0        4.720475    4.412459   -0.617323
     20          6           0        6.071754    4.681155   -0.208076
     21          6           0        6.616996    3.334668    0.035042
     22          6           0        3.639206    5.418750   -1.076643
     23          6           0        6.745621    6.040141   -0.152453
     24          8           0        7.923106    6.173136    0.107720
     25          6           0        5.995598    7.350763   -0.208602
     26          7           0        7.986007    0.734035    0.404820
     27          6           0        8.617841    1.903441    0.360128
     28          6           0       10.141716    1.779309    0.455964
     29          6           0       10.307749    0.262957    0.940785
     30          6           0        8.899050   -0.259609    0.659519
     31          6           0       10.832472    2.080926   -0.820758
     32          6           0       10.579379    0.084393    2.447505
     33          6           0       11.909568    0.660407    2.925722
     34          7           0        6.356447   -1.555855    0.230368
     35          6           0        7.402627   -2.237025    0.472903
     36          6           0        7.141826   -3.652070    0.583716
     37          6           0        5.846120   -3.784981    0.227810
     38          6           0        5.388281   -2.454089   -0.085212
     39          6           0        8.229222   -4.600110    0.911971
     40          6           0        4.801347   -4.727422   -0.052455
     41          8           0        4.842931   -5.962493   -0.028665
     42          6           0        3.575530   -3.854463   -0.586458
     43          6           0        2.453421   -4.376341    0.157447
     44          8           0        2.080595   -4.072882    1.269560
     45          8           0        1.734050   -5.267845   -0.678786
     46          6           0        0.562199   -5.876128    0.062113
     47          6           0       -4.247011   -2.226739   -0.340084
     48          6           0       -5.239353   -1.276940   -0.765192
     49          6           0       -6.508578   -1.508905   -0.931948
     50          6           0       -7.134018   -2.891785   -0.793700
     51          6           0       -7.461866   -0.343313   -1.092918
     52          6           0       -8.401272   -0.052714    0.093592
     53          6           0       -9.188766    1.307526   -0.023581
     54          6           0       -9.091192    2.320223    1.108933
     55          6           0       -7.630844    2.805422    1.209707
     56          6           0       -9.638984    1.827111    2.521968
     57          6           0      -11.153992    2.037799    2.655737
     58          6           0      -11.966675    0.699228    2.902198
     59          6           0      -13.338855    0.708595    2.293231
     60          6           0      -14.423087    0.686010    3.374734
     61          6           0      -13.470428   -0.336004    1.185920
     62          6           0      -14.533861   -0.012361    0.128312
     63          6           0      -13.991120   -0.222423   -1.299799
     64          6           0      -13.286601    1.039070   -1.837987
     65          6           0      -14.365866    2.065300   -2.230282
     66          6           0      -12.149191    0.852162   -2.883558
     67          1           0        2.641999    3.003375   -1.666846
     68          1           0        8.590794    3.938480    0.312353
     69          1           0        9.510055   -2.299952    0.870140
     70          1           0        1.590833   -1.547297   -2.270483
     71          1           0        1.025375    1.047863   -1.343652
     72          1           0        2.229396    1.478947   -3.596892
     73          1           0        0.516868    1.039035   -3.376017
     74          1           0        1.549187   -0.136386   -4.014482
     75          1           0        1.065280   -1.066740    0.671143
     76          1           0        0.512881   -2.538591   -0.222924
     77          1           0       -0.778278   -0.427420   -1.579756
     78          1           0       -0.969225   -0.151761    0.163932
     79          1           0        4.034895    5.870514   -1.986835
     80          1           0        3.489050    6.136944   -0.270919
     81          1           0        2.646907    4.991120   -1.226211
     82          1           0        5.128662    7.387147    0.450116
     83          1           0        5.737796    7.458098   -1.261905
     84          1           0        6.696683    8.049008    0.248389
     85          1           0       10.374614    2.450776    1.281570
     86          1           0       11.058134   -0.365718    0.461467
     87          1           0       10.280045    2.915032   -1.253361
     88          1           0       10.957378    1.170438   -1.407197
     89          1           0       11.819209    2.489126   -0.599493
     90          1           0       10.529794   -0.971888    2.714007
     91          1           0        9.783411    0.686955    2.884452
     92          1           0       12.574466   -0.092226    3.350954
     93          1           0       11.796059    1.412196    3.706600
     94          1           0       12.479388    1.142256    2.130680
     95          1           0        8.937783   -4.620532    0.083099
     96          1           0        7.689996   -5.544682    0.974259
     97          1           0        8.833041   -4.520667    1.816615
     98          1           0        3.555912   -4.215831   -1.614953
     99          1           0       -0.294274   -5.217373    0.208051
    100          1           0        0.757178   -6.351834    1.022569
    101          1           0        0.109096   -6.571197   -0.643507
    102          1           0       -4.491113   -2.743923    0.588197
    103          1           0       -4.141298   -2.938312   -1.158578
    104          1           0       -4.965266   -0.235121   -0.930372
    105          1           0       -7.764909   -3.014896    0.086542
    106          1           0       -6.434342   -3.724806   -0.855549
    107          1           0       -7.815716   -3.040913   -1.630854
    108          1           0       -8.236150   -0.632088   -1.802791
    109          1           0       -7.085712    0.585491   -1.520927
    110          1           0       -7.883174   -0.064433    1.052045
    111          1           0       -9.107008   -0.879268    0.021524
    112          1           0      -10.205860    0.947267   -0.177067
    113          1           0       -8.855743    1.843517   -0.913284
    114          1           0       -9.768227    3.142296    0.872908
    115          1           0       -7.324381    2.816819    2.255208
    116          1           0       -7.537732    3.827060    0.840788
    117          1           0       -6.912591    2.297014    0.566577
    118          1           0       -9.201181    2.322370    3.389164
    119          1           0       -9.440415    0.765769    2.669984
    120          1           0      -11.570618    2.582848    1.808251
    121          1           0      -11.382082    2.504256    3.613786
    122          1           0      -12.037365    0.523452    3.976244
    123          1           0      -11.360071   -0.155620    2.603287
    124          1           0      -13.569982    1.614124    1.733492
    125          1           0      -15.284255    1.288321    3.086671
    126          1           0      -14.068720    1.103234    4.317382
    127          1           0      -14.871881   -0.291672    3.548053
    128          1           0      -13.987933   -1.176745    1.647835
    129          1           0      -12.491010   -0.662710    0.837012
    130          1           0      -14.966813    0.976096    0.282111
    131          1           0      -15.359989   -0.702801    0.300621
    132          1           0      -14.727718   -0.706007   -1.942523
    133          1           0      -13.140852   -0.904250   -1.287625
    134          1           0      -12.774432    1.571336   -1.036573
    135          1           0      -15.104446    2.197481   -1.439786
    136          1           0      -14.873321    1.629792   -3.091207
    137          1           0      -13.950903    3.065249   -2.356382
    138          1           0      -11.218360    1.309766   -2.546501
    139          1           0      -12.378246    1.485108   -3.740306
    140          1           0      -12.091198   -0.208364   -3.128206
 ---------------------------------------------------------------------

 SCF Done:  E(RCAM-B3LYP) =  -3007.16769829     A.U. after   17 cycles

 Excitation energies and oscillator strengths:

 Excited State   1:      Singlet-A      1.6898 eV  733.73 nm  f=0.3932  <S**2>=0.000
     245 -> 248        0.16300
     246 -> 247        0.68968
     245 <- 248        0.10318
 This state for optimization and/or second-order correction.
 Total Energy, E(TD-HF/TD-DFT) =  -3007.10560014
 Copying the excited state density for this state as the 1-particle RhoCI density.

 Excited State   2:      Singlet-A      2.2642 eV  547.58 nm  f=0.1542  <S**2>=0.000
     245 -> 247        0.65196
     246 -> 248       -0.25879

 Excited State   3:      Singlet-A      3.3324 eV  372.06 nm  f=0.0081  <S**2>=0.000
     244 -> 247        0.68573

 Excited State   4:      Singlet-A      3.5044 eV  353.79 nm  f=0.0047  <S**2>=0.000
     239 -> 247        0.18776
     239 -> 249       -0.13000
     240 -> 247        0.44703
     240 -> 248       -0.14389
     240 -> 249       -0.27248
     240 -> 250        0.10790
     241 -> 247        0.28722
     241 -> 249       -0.14940

 Excited State   5:      Singlet-A      3.6299 eV  341.57 nm  f=0.0053  <S**2>=0.000
     242 -> 247        0.57522
     242 -> 249        0.24549
     242 -> 250        0.27683

 The electronic state is 1-A.
 Alpha  occ. eigenvalues --  -46.87134 -19.25986 -19.23886 -19.19975 -19.19665
 Alpha  occ. eigenvalues --  -19.19139 -19.18260 -14.42957 -14.41245 -14.39859
 Alpha  occ. eigenvalues --  -14.39131 -10.39894 -10.38679 -10.35874 -10.34548
 Alpha  occ. eigenvalues --  -10.32112 -10.31820 -10.31009 -10.30573 -10.30087
 Alpha  occ. eigenvalues --  -10.29994 -10.29876 -10.29251 -10.29118 -10.29092
 Alpha  occ. eigenvalues --  -10.29026 -10.28936 -10.28603 -10.28436 -10.28382
 Alpha  occ. eigenvalues --  -10.27821 -10.27628 -10.27491 -10.27375 -10.27365
 Alpha  occ. eigenvalues --  -10.27313 -10.27066 -10.26720 -10.26603 -10.26280
 Alpha  occ. eigenvalues --  -10.26266 -10.26228 -10.26197 -10.26156 -10.26062
 Alpha  occ. eigenvalues --  -10.25771 -10.25634 -10.25543 -10.25530 -10.25518
 Alpha  occ. eigenvalues --  -10.25452 -10.25439 -10.25219 -10.24916 -10.24887
 Alpha  occ. eigenvalues --  -10.24828 -10.24787 -10.24735 -10.24735 -10.24529
 Alpha  occ. eigenvalues --  -10.24407 -10.24354 -10.24263 -10.24217 -10.24194
 Alpha  occ. eigenvalues --  -10.24156  -3.16073  -1.90964  -1.90509  -1.90422
 Alpha  occ. eigenvalues --   -1.17581  -1.14558  -1.10371  -1.09888  -1.07126
 Alpha  occ. eigenvalues --   -1.06312  -1.06239  -1.04280  -1.02570  -1.01671
 Alpha  occ. eigenvalues --   -0.93310  -0.91345  -0.90376  -0.89726  -0.89400
 Alpha  occ. eigenvalues --   -0.89020  -0.88791  -0.88372  -0.87882  -0.87477
 Alpha  occ. eigenvalues --   -0.86373  -0.85823  -0.84692  -0.84267  -0.83579
 Alpha  occ. eigenvalues --   -0.83006  -0.81907  -0.81257  -0.80912  -0.80386
 Alpha  occ. eigenvalues --   -0.80156  -0.78679  -0.77981  -0.77280  -0.76256
 Alpha  occ. eigenvalues --   -0.75962  -0.75728  -0.75276  -0.74904  -0.74438
 Alpha  occ. eigenvalues --   -0.74016  -0.73307  -0.71976  -0.71000  -0.69684
 Alpha  occ. eigenvalues --   -0.69235  -0.68614  -0.67675  -0.67203  -0.65886
 Alpha  occ. eigenvalues --   -0.65505  -0.65267  -0.64862  -0.64613  -0.64033
 Alpha  occ. eigenvalues --   -0.63621  -0.62292  -0.61728  -0.61109  -0.60242
 Alpha  occ. eigenvalues --   -0.60041  -0.59905  -0.59168  -0.59078  -0.58274
 Alpha  occ. eigenvalues --   -0.57801  -0.57556  -0.56541  -0.56383  -0.55545
 Alpha  occ. eigenvalues --   -0.55145  -0.55003  -0.54744  -0.54445  -0.54327
 Alpha  occ. eigenvalues --   -0.54006  -0.53796  -0.53621  -0.53086  -0.52870
 Alpha  occ. eigenvalues --   -0.52768  -0.52412  -0.52302  -0.52085  -0.51908
 Alpha  occ. eigenvalues --   -0.51769  -0.51546  -0.51070  -0.50948  -0.50741
 Alpha  occ. eigenvalues --   -0.50702  -0.50442  -0.50255  -0.50011  -0.49820
 Alpha  occ. eigenvalues --   -0.49697  -0.49550  -0.49067  -0.48992  -0.48625
 Alpha  occ. eigenvalues --   -0.48523  -0.48373  -0.48170  -0.47939  -0.47630
 Alpha  occ. eigenvalues --   -0.47596  -0.47474  -0.47318  -0.47148  -0.46803
 Alpha  occ. eigenvalues --   -0.46732  -0.46428  -0.46313  -0.46138  -0.45605
 Alpha  occ. eigenvalues --   -0.45538  -0.45334  -0.45267  -0.45040  -0.44791
 Alpha  occ. eigenvalues --   -0.44578  -0.44516  -0.44338  -0.44057  -0.43718
 Alpha  occ. eigenvalues --   -0.43520  -0.43319  -0.43208  -0.43096  -0.43038
 Alpha  occ. eigenvalues --   -0.42848  -0.42821  -0.42606  -0.42262  -0.42188
 Alpha  occ. eigenvalues --   -0.42044  -0.41955  -0.41804  -0.41555  -0.41483
 Alpha  occ. eigenvalues --   -0.41116  -0.40793  -0.40643  -0.40432  -0.40304
 Alpha  occ. eigenvalues --   -0.39862  -0.39586  -0.39404  -0.39264  -0.38743
 Alpha  occ. eigenvalues --   -0.38466  -0.38349  -0.38128  -0.37867  -0.37382
 Alpha  occ. eigenvalues --   -0.37335  -0.37122  -0.36941  -0.36881  -0.36378
 Alpha  occ. eigenvalues --   -0.35906  -0.35735  -0.34846  -0.34727  -0.34215
 Alpha  occ. eigenvalues --   -0.33973  -0.33749  -0.33293  -0.31889  -0.31437
 Alpha  occ. eigenvalues --   -0.31283  -0.30503  -0.30016  -0.29658  -0.24367
 Alpha  occ. eigenvalues --   -0.21440
 Alpha virt. eigenvalues --   -0.09055  -0.01321   0.00213   0.02417   0.03315
 Alpha virt. eigenvalues --    0.04713   0.05325   0.05429   0.06421   0.06484
 Alpha virt. eigenvalues --    0.07208   0.08182   0.08374   0.08407   0.09342

 Mulliken charges:
               1
     1  Mg   0.866391
     2  C    0.030790
     3  C   -0.101339
     4  C   -0.106941
     5  C   -0.115778
     6  N   -0.316001
     7  C   -0.004881
     8  C    0.023635
     9  C   -0.111811
    10  C    0.076061
    11  C    0.044829
    12  C    0.093190
    13  C    0.052772
    14  C    0.141903
    15  O   -0.291444
    16  O   -0.304493
    17  N   -0.400559
    18  C    0.174875
    19  C   -0.170129
    20  C   -0.032564
    21  C    0.139744
    22  C    0.119983
    23  C   -0.021861
    24  O   -0.204865
    25  C    0.057656
    26  N   -0.313629
    27  C    0.041737
    28  C    0.005788
    29  C   -0.069620
    30  C    0.110354
    31  C    0.124867
    32  C    0.030321
    33  C    0.017144
    34  N   -0.308489
    35  C    0.065959
    36  C   -0.177233
    37  C    0.054806
    38  C    0.081577
    39  C    0.105478
    40  C    0.008769
    41  O   -0.169273
    42  C   -0.021121
    43  C    0.214725
    44  O   -0.212388
    45  O   -0.368943
    46  C    0.183934
    47  C    0.315625
    48  C   -0.152458
    49  C   -0.129403
    50  C    0.061804
    51  C    0.064551
    52  C   -0.017074
    53  C    0.035233
    54  C   -0.100932
    55  C    0.048361
    56  C    0.053907
    57  C   -0.002293
    58  C    0.037866
    59  C   -0.130333
    60  C    0.047745
    61  C    0.057748
    62  C    0.024122
    63  C    0.054690
    64  C   -0.174611
    65  C    0.043758
    66  C    0.068754
    67  H   -0.030329
    68  H   -0.012264
    69  H   -0.029193
    70  H    0.007301
    71  H    0.013295
    72  H    0.021666
    73  H    0.008275
    74  H    0.025490
    75  H    0.018574
    76  H    0.058400
    77  H    0.039361
    78  H    0.026945
    79  H    0.035329
    80  H    0.022350
    81  H    0.014986
    82  H    0.028172
    83  H    0.033816
    84  H    0.033873
    85  H    0.005104
    86  H   -0.003096
    87  H    0.018581
    88  H    0.022958
    89  H    0.010690
    90  H    0.011352
    91  H    0.003879
    92  H    0.010508
    93  H    0.015292
    94  H    0.008461
    95  H    0.028907
    96  H    0.032213
    97  H    0.028686
    98  H    0.057423
    99  H    0.030532
   100  H    0.042973
   101  H    0.023454
   102  H    0.040702
   103  H    0.054150
   104  H   -0.007756
   105  H    0.031055
   106  H    0.010874
   107  H    0.011050
   108  H   -0.019977
   109  H   -0.000218
   110  H    0.009751
   111  H   -0.000586
   112  H   -0.000533
   113  H    0.004948
   114  H   -0.003406
   115  H    0.008417
   116  H   -0.000577
   117  H    0.009093
   118  H   -0.005625
   119  H   -0.005031
   120  H    0.012440
   121  H   -0.000353
   122  H   -0.016139
   123  H   -0.016490
   124  H   -0.004207
   125  H   -0.004286
   126  H    0.008708
   127  H    0.000728
   128  H   -0.017024
   129  H    0.006830
   130  H   -0.003219
   131  H   -0.012682
   132  H   -0.003814
   133  H   -0.017216
   134  H   -0.006425
   135  H   -0.004432
   136  H    0.004402
   137  H    0.005177
   138  H    0.007934
   139  H   -0.005365
   140  H    0.014152
 Sum of Mulliken charges =  -0.00000

 Dipole moment (field-independent basis, Debye):
    X=             -2.7488    Y=              3.3232    Z=             -0.5183  Tot=              4.3437
 Quadrupole moment (field-independent basis, Debye-Ang):
   XX=           -370.1498   YY=           -435.2755   ZZ=           -404.7127
   XY=             -4.7936   XZ=              0.7201   YZ=             -4.6772

 Normal termination of Gaussian 16 at Fri Apr 29 06:27:56 2022.
