 Gaussian 16, Revision A.03,
 Gaussian 16:  ES64L-G16RevA.03 25-Dec-2016

 ---------------------------------
 #p PBE1PBE/Def2SVP td=(nstates=5)
 ---------------------------------

 ----------------------------------------------------
 step_201_chromophore_1 TDDFT with PBE1PBE functional
 ----------------------------------------------------
 Symbolic Z-matrix:
 Charge =  0 Multiplicity = 1

                         Standard orientation:
 ---------------------------------------------------------------------
 Center     Atomic      Atomic             Coordinates (Angstroms)
 Number     Number       Type             X           Y           Z
 ---------------------------------------------------------------------
      1         12           0        5.985897    0.385979    0.062389
      2          6           0        4.006484   -2.399032   -0.467082
      3          6           0        3.393375    2.369379   -1.190467
      4          6           0        7.972149    3.040481    0.246983
      5          6           0        8.691366   -1.622320    0.618629
      6          7           0        3.964865   -0.014783   -0.740288
      7          6           0        3.311825   -1.241492   -0.843597
      8          6           0        1.823704   -1.082777   -1.312280
      9          6           0        1.809907    0.419743   -1.767910
     10          6           0        3.127495    1.002653   -1.245788
     11          6           0        1.544546    0.685203   -3.298937
     12          6           0        0.701012   -1.467092   -0.275288
     13          6           0       -0.711161   -0.890201   -0.595254
     14          6           0       -1.917644   -1.842675   -0.637426
     15          8           0       -1.860888   -2.991181   -1.153064
     16          8           0       -3.089739   -1.367283   -0.181130
     17          7           0        5.688831    2.389556   -0.273653
     18          6           0        4.503233    3.040739   -0.662274
     19          6           0        4.720475    4.412459   -0.617323
     20          6           0        6.071754    4.681155   -0.208076
     21          6           0        6.616996    3.334668    0.035042
     22          6           0        3.639206    5.418750   -1.076643
     23          6           0        6.745621    6.040141   -0.152453
     24          8           0        7.923106    6.173136    0.107720
     25          6           0        5.995598    7.350763   -0.208602
     26          7           0        7.986007    0.734035    0.404820
     27          6           0        8.617841    1.903441    0.360128
     28          6           0       10.141716    1.779309    0.455964
     29          6           0       10.307749    0.262957    0.940785
     30          6           0        8.899050   -0.259609    0.659519
     31          6           0       10.832472    2.080926   -0.820758
     32          6           0       10.579379    0.084393    2.447505
     33          6           0       11.909568    0.660407    2.925722
     34          7           0        6.356447   -1.555855    0.230368
     35          6           0        7.402627   -2.237025    0.472903
     36          6           0        7.141826   -3.652070    0.583716
     37          6           0        5.846120   -3.784981    0.227810
     38          6           0        5.388281   -2.454089   -0.085212
     39          6           0        8.229222   -4.600110    0.911971
     40          6           0        4.801347   -4.727422   -0.052455
     41          8           0        4.842931   -5.962493   -0.028665
     42          6           0        3.575530   -3.854463   -0.586458
     43          6           0        2.453421   -4.376341    0.157447
     44          8           0        2.080595   -4.072882    1.269560
     45          8           0        1.734050   -5.267845   -0.678786
     46          6           0        0.562199   -5.876128    0.062113
     47          6           0       -4.247011   -2.226739   -0.340084
     48          6           0       -5.239353   -1.276940   -0.765192
     49          6           0       -6.508578   -1.508905   -0.931948
     50          6           0       -7.134018   -2.891785   -0.793700
     51          6           0       -7.461866   -0.343313   -1.092918
     52          6           0       -8.401272   -0.052714    0.093592
     53          6           0       -9.188766    1.307526   -0.023581
     54          6           0       -9.091192    2.320223    1.108933
     55          6           0       -7.630844    2.805422    1.209707
     56          6           0       -9.638984    1.827111    2.521968
     57          6           0      -11.153992    2.037799    2.655737
     58          6           0      -11.966675    0.699228    2.902198
     59          6           0      -13.338855    0.708595    2.293231
     60          6           0      -14.423087    0.686010    3.374734
     61          6           0      -13.470428   -0.336004    1.185920
     62          6           0      -14.533861   -0.012361    0.128312
     63          6           0      -13.991120   -0.222423   -1.299799
     64          6           0      -13.286601    1.039070   -1.837987
     65          6           0      -14.365866    2.065300   -2.230282
     66          6           0      -12.149191    0.852162   -2.883558
     67          1           0        2.641999    3.003375   -1.666846
     68          1           0        8.590794    3.938480    0.312353
     69          1           0        9.510055   -2.299952    0.870140
     70          1           0        1.590833   -1.547297   -2.270483
     71          1           0        1.025375    1.047863   -1.343652
     72          1           0        2.229396    1.478947   -3.596892
     73          1           0        0.516868    1.039035   -3.376017
     74          1           0        1.549187   -0.136386   -4.014482
     75          1           0        1.065280   -1.066740    0.671143
     76          1           0        0.512881   -2.538591   -0.222924
     77          1           0       -0.778278   -0.427420   -1.579756
     78          1           0       -0.969225   -0.151761    0.163932
     79          1           0        4.034895    5.870514   -1.986835
     80          1           0        3.489050    6.136944   -0.270919
     81          1           0        2.646907    4.991120   -1.226211
     82          1           0        5.128662    7.387147    0.450116
     83          1           0        5.737796    7.458098   -1.261905
     84          1           0        6.696683    8.049008    0.248389
     85          1           0       10.374614    2.450776    1.281570
     86          1           0       11.058134   -0.365718    0.461467
     87          1           0       10.280045    2.915032   -1.253361
     88          1           0       10.957378    1.170438   -1.407197
     89          1           0       11.819209    2.489126   -0.599493
     90          1           0       10.529794   -0.971888    2.714007
     91          1           0        9.783411    0.686955    2.884452
     92          1           0       12.574466   -0.092226    3.350954
     93          1           0       11.796059    1.412196    3.706600
     94          1           0       12.479388    1.142256    2.130680
     95          1           0        8.937783   -4.620532    0.083099
     96          1           0        7.689996   -5.544682    0.974259
     97          1           0        8.833041   -4.520667    1.816615
     98          1           0        3.555912   -4.215831   -1.614953
     99          1           0       -0.294274   -5.217373    0.208051
    100          1           0        0.757178   -6.351834    1.022569
    101          1           0        0.109096   -6.571197   -0.643507
    102          1           0       -4.491113   -2.743923    0.588197
    103          1           0       -4.141298   -2.938312   -1.158578
    104          1           0       -4.965266   -0.235121   -0.930372
    105          1           0       -7.764909   -3.014896    0.086542
    106          1           0       -6.434342   -3.724806   -0.855549
    107          1           0       -7.815716   -3.040913   -1.630854
    108          1           0       -8.236150   -0.632088   -1.802791
    109          1           0       -7.085712    0.585491   -1.520927
    110          1           0       -7.883174   -0.064433    1.052045
    111          1           0       -9.107008   -0.879268    0.021524
    112          1           0      -10.205860    0.947267   -0.177067
    113          1           0       -8.855743    1.843517   -0.913284
    114          1           0       -9.768227    3.142296    0.872908
    115          1           0       -7.324381    2.816819    2.255208
    116          1           0       -7.537732    3.827060    0.840788
    117          1           0       -6.912591    2.297014    0.566577
    118          1           0       -9.201181    2.322370    3.389164
    119          1           0       -9.440415    0.765769    2.669984
    120          1           0      -11.570618    2.582848    1.808251
    121          1           0      -11.382082    2.504256    3.613786
    122          1           0      -12.037365    0.523452    3.976244
    123          1           0      -11.360071   -0.155620    2.603287
    124          1           0      -13.569982    1.614124    1.733492
    125          1           0      -15.284255    1.288321    3.086671
    126          1           0      -14.068720    1.103234    4.317382
    127          1           0      -14.871881   -0.291672    3.548053
    128          1           0      -13.987933   -1.176745    1.647835
    129          1           0      -12.491010   -0.662710    0.837012
    130          1           0      -14.966813    0.976096    0.282111
    131          1           0      -15.359989   -0.702801    0.300621
    132          1           0      -14.727718   -0.706007   -1.942523
    133          1           0      -13.140852   -0.904250   -1.287625
    134          1           0      -12.774432    1.571336   -1.036573
    135          1           0      -15.104446    2.197481   -1.439786
    136          1           0      -14.873321    1.629792   -3.091207
    137          1           0      -13.950903    3.065249   -2.356382
    138          1           0      -11.218360    1.309766   -2.546501
    139          1           0      -12.378246    1.485108   -3.740306
    140          1           0      -12.091198   -0.208364   -3.128206
 ---------------------------------------------------------------------

 SCF Done:  E(RPBE1PBE) =  -3005.35469794     A.U. after   15 cycles

 Excitation energies and oscillator strengths:

 Excited State   1:      Singlet-A      1.8479 eV  670.93 nm  f=0.3817  <S**2>=0.000
     245 -> 248        0.15410
     246 -> 247        0.69738
     246 <- 247       -0.11607
 This state for optimization and/or second-order correction.
 Total Energy, E(TD-HF/TD-DFT) =  -3005.28678719
 Copying the excited state density for this state as the 1-particle RhoCI density.

 Excited State   2:      Singlet-A      2.2711 eV  545.91 nm  f=0.1463  <S**2>=0.000
     245 -> 247        0.65931
     246 -> 248       -0.23587

 Excited State   3:      Singlet-A      2.9539 eV  419.73 nm  f=0.0019  <S**2>=0.000
     243 -> 247       -0.16652
     244 -> 247        0.66365

 Excited State   4:      Singlet-A      3.0139 eV  411.37 nm  f=0.0077  <S**2>=0.000
     242 -> 247        0.68134

 Excited State   5:      Singlet-A      3.0609 eV  405.06 nm  f=0.0002  <S**2>=0.000
     241 -> 247        0.66144
     241 -> 248       -0.11340
     241 -> 249       -0.16487

 The electronic state is 1-A.
 Alpha  occ. eigenvalues --  -46.90556 -19.26668 -19.24477 -19.20071 -19.19751
 Alpha  occ. eigenvalues --  -19.19467 -19.18599 -14.42379 -14.40896 -14.39368
 Alpha  occ. eigenvalues --  -14.38901 -10.36937 -10.35558 -10.32919 -10.31794
 Alpha  occ. eigenvalues --  -10.29799 -10.29204 -10.28857 -10.28260 -10.27750
 Alpha  occ. eigenvalues --  -10.27525 -10.27277 -10.26877 -10.26797 -10.26791
 Alpha  occ. eigenvalues --  -10.26765 -10.26725 -10.26206 -10.26089 -10.25922
 Alpha  occ. eigenvalues --  -10.25591 -10.25244 -10.25155 -10.25142 -10.25052
 Alpha  occ. eigenvalues --  -10.24919 -10.24641 -10.24560 -10.24108 -10.23987
 Alpha  occ. eigenvalues --  -10.23956 -10.23904 -10.23831 -10.23539 -10.23421
 Alpha  occ. eigenvalues --  -10.23315 -10.23179 -10.23098 -10.23083 -10.22999
 Alpha  occ. eigenvalues --  -10.22997 -10.22953 -10.22665 -10.22482 -10.22465
 Alpha  occ. eigenvalues --  -10.22421 -10.22388 -10.22350 -10.22157 -10.22118
 Alpha  occ. eigenvalues --  -10.21921 -10.21888 -10.21794 -10.21766 -10.21653
 Alpha  occ. eigenvalues --  -10.21542  -3.13064  -1.85899  -1.85421  -1.85337
 Alpha  occ. eigenvalues --   -1.12417  -1.09167  -1.05231  -1.04492  -1.01775
 Alpha  occ. eigenvalues --   -1.01142  -1.00979  -0.98964  -0.97232  -0.96295
 Alpha  occ. eigenvalues --   -0.87556  -0.85514  -0.84472  -0.84081  -0.83560
 Alpha  occ. eigenvalues --   -0.83167  -0.83129  -0.82640  -0.81996  -0.81804
 Alpha  occ. eigenvalues --   -0.80689  -0.80072  -0.78931  -0.78534  -0.77852
 Alpha  occ. eigenvalues --   -0.77226  -0.76169  -0.75459  -0.75203  -0.74673
 Alpha  occ. eigenvalues --   -0.74337  -0.72911  -0.72318  -0.71585  -0.70430
 Alpha  occ. eigenvalues --   -0.70222  -0.69816  -0.69595  -0.69037  -0.68618
 Alpha  occ. eigenvalues --   -0.68300  -0.67686  -0.66363  -0.65355  -0.64129
 Alpha  occ. eigenvalues --   -0.63635  -0.62848  -0.62006  -0.61594  -0.60361
 Alpha  occ. eigenvalues --   -0.59731  -0.59684  -0.59345  -0.59148  -0.58515
 Alpha  occ. eigenvalues --   -0.57763  -0.56474  -0.55968  -0.55594  -0.54708
 Alpha  occ. eigenvalues --   -0.54658  -0.54355  -0.53777  -0.53657  -0.52577
 Alpha  occ. eigenvalues --   -0.52318  -0.52046  -0.51118  -0.50809  -0.49964
 Alpha  occ. eigenvalues --   -0.49651  -0.49603  -0.49265  -0.48926  -0.48738
 Alpha  occ. eigenvalues --   -0.48556  -0.48335  -0.48004  -0.47519  -0.47413
 Alpha  occ. eigenvalues --   -0.47267  -0.46947  -0.46870  -0.46649  -0.46449
 Alpha  occ. eigenvalues --   -0.46325  -0.46045  -0.45661  -0.45496  -0.45312
 Alpha  occ. eigenvalues --   -0.45265  -0.44973  -0.44812  -0.44652  -0.44384
 Alpha  occ. eigenvalues --   -0.44339  -0.44156  -0.43641  -0.43530  -0.43231
 Alpha  occ. eigenvalues --   -0.43071  -0.42984  -0.42800  -0.42541  -0.42338
 Alpha  occ. eigenvalues --   -0.42260  -0.42129  -0.41978  -0.41765  -0.41397
 Alpha  occ. eigenvalues --   -0.41386  -0.41094  -0.41043  -0.40915  -0.40348
 Alpha  occ. eigenvalues --   -0.40198  -0.39961  -0.39882  -0.39709  -0.39534
 Alpha  occ. eigenvalues --   -0.39315  -0.39234  -0.39166  -0.38877  -0.38492
 Alpha  occ. eigenvalues --   -0.38295  -0.38106  -0.37941  -0.37891  -0.37781
 Alpha  occ. eigenvalues --   -0.37710  -0.37608  -0.37391  -0.37034  -0.36974
 Alpha  occ. eigenvalues --   -0.36789  -0.36712  -0.36673  -0.36429  -0.36221
 Alpha  occ. eigenvalues --   -0.35885  -0.35675  -0.35371  -0.35262  -0.35080
 Alpha  occ. eigenvalues --   -0.34765  -0.34444  -0.34230  -0.34179  -0.33741
 Alpha  occ. eigenvalues --   -0.33289  -0.33195  -0.33126  -0.32694  -0.32400
 Alpha  occ. eigenvalues --   -0.32194  -0.32030  -0.31910  -0.31794  -0.31272
 Alpha  occ. eigenvalues --   -0.30798  -0.30544  -0.30097  -0.29607  -0.29125
 Alpha  occ. eigenvalues --   -0.28863  -0.28679  -0.28501  -0.27437  -0.26861
 Alpha  occ. eigenvalues --   -0.26222  -0.25482  -0.25282  -0.25273  -0.21289
 Alpha  occ. eigenvalues --   -0.19035
 Alpha virt. eigenvalues --   -0.11506  -0.04946  -0.04012  -0.01995   0.00096
 Alpha virt. eigenvalues --    0.00501   0.00888   0.01186   0.02019   0.03288
 Alpha virt. eigenvalues --    0.03936   0.03954   0.04768   0.04869   0.05600

 Mulliken charges:
               1
     1  Mg   1.024390
     2  C    0.024850
     3  C   -0.097966
     4  C   -0.096651
     5  C   -0.086820
     6  N   -0.418753
     7  C    0.065210
     8  C   -0.038107
     9  C   -0.183906
    10  C    0.114499
    11  C   -0.010735
    12  C    0.032435
    13  C   -0.023115
    14  C    0.209714
    15  O   -0.321333
    16  O   -0.338982
    17  N   -0.515577
    18  C    0.199292
    19  C   -0.198363
    20  C   -0.083121
    21  C    0.179357
    22  C    0.060747
    23  C    0.030286
    24  O   -0.240221
    25  C   -0.017471
    26  N   -0.421223
    27  C    0.070797
    28  C   -0.069125
    29  C   -0.145149
    30  C    0.134409
    31  C    0.065815
    32  C   -0.029343
    33  C   -0.051482
    34  N   -0.444367
    35  C    0.088682
    36  C   -0.190731
    37  C    0.003426
    38  C    0.111684
    39  C    0.050236
    40  C    0.105024
    41  O   -0.215390
    42  C   -0.127774
    43  C    0.301159
    44  O   -0.248847
    45  O   -0.398332
    46  C    0.125689
    47  C    0.273379
    48  C   -0.155037
    49  C   -0.180612
    50  C    0.001992
    51  C   -0.001453
    52  C   -0.077832
    53  C   -0.022933
    54  C   -0.193019
    55  C   -0.011498
    56  C    0.003923
    57  C   -0.066954
    58  C   -0.015075
    59  C   -0.217345
    60  C   -0.008806
    61  C    0.005870
    62  C   -0.038527
    63  C   -0.006825
    64  C   -0.266645
    65  C   -0.017324
    66  C    0.005015
    67  H    0.000674
    68  H    0.020401
    69  H    0.001057
    70  H    0.045172
    71  H    0.051209
    72  H    0.049430
    73  H    0.034842
    74  H    0.051825
    75  H    0.051373
    76  H    0.097989
    77  H    0.072514
    78  H    0.058489
    79  H    0.063955
    80  H    0.050666
    81  H    0.041893
    82  H    0.054881
    83  H    0.061233
    84  H    0.061215
    85  H    0.041858
    86  H    0.032556
    87  H    0.047372
    88  H    0.050578
    89  H    0.039501
    90  H    0.044102
    91  H    0.038375
    92  H    0.038719
    93  H    0.042813
    94  H    0.036306
    95  H    0.056583
    96  H    0.061452
    97  H    0.054577
    98  H    0.094191
    99  H    0.053119
   100  H    0.065063
   101  H    0.045733
   102  H    0.066763
   103  H    0.080563
   104  H    0.022333
   105  H    0.057584
   106  H    0.037637
   107  H    0.038955
   108  H    0.015626
   109  H    0.029229
   110  H    0.042049
   111  H    0.032261
   112  H    0.039433
   113  H    0.037024
   114  H    0.035078
   115  H    0.035480
   116  H    0.027665
   117  H    0.037298
   118  H    0.026378
   119  H    0.027468
   120  H    0.042958
   121  H    0.034113
   122  H    0.016600
   123  H    0.015184
   124  H    0.034708
   125  H    0.023210
   126  H    0.035885
   127  H    0.027453
   128  H    0.018064
   129  H    0.037509
   130  H    0.026943
   131  H    0.020954
   132  H    0.027659
   133  H    0.016921
   134  H    0.035750
   135  H    0.023907
   136  H    0.033068
   137  H    0.033157
   138  H    0.036840
   139  H    0.022946
   140  H    0.040515
 Sum of Mulliken charges =  -0.00000

 Dipole moment (field-independent basis, Debye):
    X=             -2.6193    Y=              3.5914    Z=             -0.5024  Tot=              4.4734
 Quadrupole moment (field-independent basis, Debye-Ang):
   XX=           -362.3857   YY=           -432.4608   ZZ=           -402.1712
   XY=             -3.3338   XZ=              1.2473   YZ=             -4.7902

 Normal termination of Gaussian 16 at Fri Apr 29 06:41:35 2022.
