 Gaussian 16, Revision A.03,
 Gaussian 16:  ES64L-G16RevA.03 25-Dec-2016

 --------------------------------
 #p wB97XD/Def2SVP td=(nstates=5)
 --------------------------------

 ---------------------------------------------------
 step_201_chromophore_1 TDDFT with wB97XD functional
 ---------------------------------------------------
 Symbolic Z-matrix:
 Charge =  0 Multiplicity = 1

                         Standard orientation:
 ---------------------------------------------------------------------
 Center     Atomic      Atomic             Coordinates (Angstroms)
 Number     Number       Type             X           Y           Z
 ---------------------------------------------------------------------
      1         12           0        5.985897    0.385979    0.062389
      2          6           0        4.006484   -2.399032   -0.467082
      3          6           0        3.393375    2.369379   -1.190467
      4          6           0        7.972149    3.040481    0.246983
      5          6           0        8.691366   -1.622320    0.618629
      6          7           0        3.964865   -0.014783   -0.740288
      7          6           0        3.311825   -1.241492   -0.843597
      8          6           0        1.823704   -1.082777   -1.312280
      9          6           0        1.809907    0.419743   -1.767910
     10          6           0        3.127495    1.002653   -1.245788
     11          6           0        1.544546    0.685203   -3.298937
     12          6           0        0.701012   -1.467092   -0.275288
     13          6           0       -0.711161   -0.890201   -0.595254
     14          6           0       -1.917644   -1.842675   -0.637426
     15          8           0       -1.860888   -2.991181   -1.153064
     16          8           0       -3.089739   -1.367283   -0.181130
     17          7           0        5.688831    2.389556   -0.273653
     18          6           0        4.503233    3.040739   -0.662274
     19          6           0        4.720475    4.412459   -0.617323
     20          6           0        6.071754    4.681155   -0.208076
     21          6           0        6.616996    3.334668    0.035042
     22          6           0        3.639206    5.418750   -1.076643
     23          6           0        6.745621    6.040141   -0.152453
     24          8           0        7.923106    6.173136    0.107720
     25          6           0        5.995598    7.350763   -0.208602
     26          7           0        7.986007    0.734035    0.404820
     27          6           0        8.617841    1.903441    0.360128
     28          6           0       10.141716    1.779309    0.455964
     29          6           0       10.307749    0.262957    0.940785
     30          6           0        8.899050   -0.259609    0.659519
     31          6           0       10.832472    2.080926   -0.820758
     32          6           0       10.579379    0.084393    2.447505
     33          6           0       11.909568    0.660407    2.925722
     34          7           0        6.356447   -1.555855    0.230368
     35          6           0        7.402627   -2.237025    0.472903
     36          6           0        7.141826   -3.652070    0.583716
     37          6           0        5.846120   -3.784981    0.227810
     38          6           0        5.388281   -2.454089   -0.085212
     39          6           0        8.229222   -4.600110    0.911971
     40          6           0        4.801347   -4.727422   -0.052455
     41          8           0        4.842931   -5.962493   -0.028665
     42          6           0        3.575530   -3.854463   -0.586458
     43          6           0        2.453421   -4.376341    0.157447
     44          8           0        2.080595   -4.072882    1.269560
     45          8           0        1.734050   -5.267845   -0.678786
     46          6           0        0.562199   -5.876128    0.062113
     47          6           0       -4.247011   -2.226739   -0.340084
     48          6           0       -5.239353   -1.276940   -0.765192
     49          6           0       -6.508578   -1.508905   -0.931948
     50          6           0       -7.134018   -2.891785   -0.793700
     51          6           0       -7.461866   -0.343313   -1.092918
     52          6           0       -8.401272   -0.052714    0.093592
     53          6           0       -9.188766    1.307526   -0.023581
     54          6           0       -9.091192    2.320223    1.108933
     55          6           0       -7.630844    2.805422    1.209707
     56          6           0       -9.638984    1.827111    2.521968
     57          6           0      -11.153992    2.037799    2.655737
     58          6           0      -11.966675    0.699228    2.902198
     59          6           0      -13.338855    0.708595    2.293231
     60          6           0      -14.423087    0.686010    3.374734
     61          6           0      -13.470428   -0.336004    1.185920
     62          6           0      -14.533861   -0.012361    0.128312
     63          6           0      -13.991120   -0.222423   -1.299799
     64          6           0      -13.286601    1.039070   -1.837987
     65          6           0      -14.365866    2.065300   -2.230282
     66          6           0      -12.149191    0.852162   -2.883558
     67          1           0        2.641999    3.003375   -1.666846
     68          1           0        8.590794    3.938480    0.312353
     69          1           0        9.510055   -2.299952    0.870140
     70          1           0        1.590833   -1.547297   -2.270483
     71          1           0        1.025375    1.047863   -1.343652
     72          1           0        2.229396    1.478947   -3.596892
     73          1           0        0.516868    1.039035   -3.376017
     74          1           0        1.549187   -0.136386   -4.014482
     75          1           0        1.065280   -1.066740    0.671143
     76          1           0        0.512881   -2.538591   -0.222924
     77          1           0       -0.778278   -0.427420   -1.579756
     78          1           0       -0.969225   -0.151761    0.163932
     79          1           0        4.034895    5.870514   -1.986835
     80          1           0        3.489050    6.136944   -0.270919
     81          1           0        2.646907    4.991120   -1.226211
     82          1           0        5.128662    7.387147    0.450116
     83          1           0        5.737796    7.458098   -1.261905
     84          1           0        6.696683    8.049008    0.248389
     85          1           0       10.374614    2.450776    1.281570
     86          1           0       11.058134   -0.365718    0.461467
     87          1           0       10.280045    2.915032   -1.253361
     88          1           0       10.957378    1.170438   -1.407197
     89          1           0       11.819209    2.489126   -0.599493
     90          1           0       10.529794   -0.971888    2.714007
     91          1           0        9.783411    0.686955    2.884452
     92          1           0       12.574466   -0.092226    3.350954
     93          1           0       11.796059    1.412196    3.706600
     94          1           0       12.479388    1.142256    2.130680
     95          1           0        8.937783   -4.620532    0.083099
     96          1           0        7.689996   -5.544682    0.974259
     97          1           0        8.833041   -4.520667    1.816615
     98          1           0        3.555912   -4.215831   -1.614953
     99          1           0       -0.294274   -5.217373    0.208051
    100          1           0        0.757178   -6.351834    1.022569
    101          1           0        0.109096   -6.571197   -0.643507
    102          1           0       -4.491113   -2.743923    0.588197
    103          1           0       -4.141298   -2.938312   -1.158578
    104          1           0       -4.965266   -0.235121   -0.930372
    105          1           0       -7.764909   -3.014896    0.086542
    106          1           0       -6.434342   -3.724806   -0.855549
    107          1           0       -7.815716   -3.040913   -1.630854
    108          1           0       -8.236150   -0.632088   -1.802791
    109          1           0       -7.085712    0.585491   -1.520927
    110          1           0       -7.883174   -0.064433    1.052045
    111          1           0       -9.107008   -0.879268    0.021524
    112          1           0      -10.205860    0.947267   -0.177067
    113          1           0       -8.855743    1.843517   -0.913284
    114          1           0       -9.768227    3.142296    0.872908
    115          1           0       -7.324381    2.816819    2.255208
    116          1           0       -7.537732    3.827060    0.840788
    117          1           0       -6.912591    2.297014    0.566577
    118          1           0       -9.201181    2.322370    3.389164
    119          1           0       -9.440415    0.765769    2.669984
    120          1           0      -11.570618    2.582848    1.808251
    121          1           0      -11.382082    2.504256    3.613786
    122          1           0      -12.037365    0.523452    3.976244
    123          1           0      -11.360071   -0.155620    2.603287
    124          1           0      -13.569982    1.614124    1.733492
    125          1           0      -15.284255    1.288321    3.086671
    126          1           0      -14.068720    1.103234    4.317382
    127          1           0      -14.871881   -0.291672    3.548053
    128          1           0      -13.987933   -1.176745    1.647835
    129          1           0      -12.491010   -0.662710    0.837012
    130          1           0      -14.966813    0.976096    0.282111
    131          1           0      -15.359989   -0.702801    0.300621
    132          1           0      -14.727718   -0.706007   -1.942523
    133          1           0      -13.140852   -0.904250   -1.287625
    134          1           0      -12.774432    1.571336   -1.036573
    135          1           0      -15.104446    2.197481   -1.439786
    136          1           0      -14.873321    1.629792   -3.091207
    137          1           0      -13.950903    3.065249   -2.356382
    138          1           0      -11.218360    1.309766   -2.546501
    139          1           0      -12.378246    1.485108   -3.740306
    140          1           0      -12.091198   -0.208364   -3.128206
 ---------------------------------------------------------------------

 SCF Done:  E(RwB97XD) =  -3007.86461254     A.U. after   17 cycles

 Excitation energies and oscillator strengths:

 Excited State   1:      Singlet-A      1.6340 eV  758.80 nm  f=0.3919  <S**2>=0.000
     245 -> 248        0.16827
     246 -> 247        0.68722
     245 <- 248        0.11155
 This state for optimization and/or second-order correction.
 Total Energy, E(TD-HF/TD-DFT) =  -3007.80456573
 Copying the excited state density for this state as the 1-particle RhoCI density.

 Excited State   2:      Singlet-A      2.2125 eV  560.37 nm  f=0.1504  <S**2>=0.000
     245 -> 247        0.64985
     246 -> 248       -0.26124

 Excited State   3:      Singlet-A      3.3674 eV  368.19 nm  f=0.0081  <S**2>=0.000
     244 -> 247        0.67373

 Excited State   4:      Singlet-A      3.5256 eV  351.67 nm  f=0.0058  <S**2>=0.000
     239 -> 247        0.11695
     240 -> 247       -0.20337
     240 -> 249        0.15246
     241 -> 247        0.49573
     241 -> 248       -0.15824
     241 -> 249       -0.30879
     241 -> 250        0.11148

 Excited State   5:      Singlet-A      3.6604 eV  338.71 nm  f=0.5900  <S**2>=0.000
     240 -> 247        0.19918
     241 -> 247        0.12579
     245 -> 247        0.23946
     246 -> 248        0.61201
     245 <- 247       -0.10804

 The electronic state is 1-A.
 Alpha  occ. eigenvalues --  -46.93501 -19.31237 -19.29150 -19.25076 -19.24624
 Alpha  occ. eigenvalues --  -19.24105 -19.23245 -14.47623 -14.45822 -14.44459
 Alpha  occ. eigenvalues --  -14.43743 -10.43712 -10.42552 -10.39945 -10.38479
 Alpha  occ. eigenvalues --  -10.36190 -10.35700 -10.35030 -10.34605 -10.33998
 Alpha  occ. eigenvalues --  -10.33954 -10.33870 -10.33271 -10.33267 -10.33105
 Alpha  occ. eigenvalues --  -10.33071 -10.32923 -10.32545 -10.32503 -10.32437
 Alpha  occ. eigenvalues --  -10.31929 -10.31774 -10.31490 -10.31424 -10.31423
 Alpha  occ. eigenvalues --  -10.31326 -10.30996 -10.30787 -10.30472 -10.30272
 Alpha  occ. eigenvalues --  -10.30258 -10.30194 -10.30186 -10.30003 -10.29986
 Alpha  occ. eigenvalues --  -10.29855 -10.29494 -10.29485 -10.29475 -10.29459
 Alpha  occ. eigenvalues --  -10.29379 -10.29274 -10.29035 -10.28838 -10.28826
 Alpha  occ. eigenvalues --  -10.28752 -10.28709 -10.28703 -10.28547 -10.28355
 Alpha  occ. eigenvalues --  -10.28321 -10.28290 -10.28147 -10.28124 -10.28091
 Alpha  occ. eigenvalues --  -10.27980  -3.19824  -1.93416  -1.92940  -1.92851
 Alpha  occ. eigenvalues --   -1.19793  -1.16720  -1.12552  -1.12163  -1.09219
 Alpha  occ. eigenvalues --   -1.08500  -1.08476  -1.06268  -1.04578  -1.03698
 Alpha  occ. eigenvalues --   -0.95328  -0.93181  -0.92131  -0.91619  -0.91240
 Alpha  occ. eigenvalues --   -0.90815  -0.90670  -0.90337  -0.89655  -0.89418
 Alpha  occ. eigenvalues --   -0.88292  -0.87709  -0.86572  -0.86165  -0.85460
 Alpha  occ. eigenvalues --   -0.84865  -0.83825  -0.83125  -0.82851  -0.82335
 Alpha  occ. eigenvalues --   -0.82006  -0.80601  -0.79913  -0.79180  -0.78114
 Alpha  occ. eigenvalues --   -0.77891  -0.77518  -0.77205  -0.76717  -0.76278
 Alpha  occ. eigenvalues --   -0.75926  -0.75301  -0.73918  -0.72947  -0.71715
 Alpha  occ. eigenvalues --   -0.71149  -0.70481  -0.69576  -0.69149  -0.67879
 Alpha  occ. eigenvalues --   -0.67345  -0.67185  -0.66835  -0.66612  -0.65990
 Alpha  occ. eigenvalues --   -0.65428  -0.64115  -0.63587  -0.63137  -0.62228
 Alpha  occ. eigenvalues --   -0.62038  -0.61848  -0.61166  -0.61049  -0.60234
 Alpha  occ. eigenvalues --   -0.59760  -0.59504  -0.58527  -0.58293  -0.57435
 Alpha  occ. eigenvalues --   -0.57097  -0.56986  -0.56665  -0.56353  -0.56206
 Alpha  occ. eigenvalues --   -0.55960  -0.55729  -0.55464  -0.54988  -0.54830
 Alpha  occ. eigenvalues --   -0.54707  -0.54289  -0.54252  -0.54016  -0.53833
 Alpha  occ. eigenvalues --   -0.53684  -0.53417  -0.52977  -0.52836  -0.52670
 Alpha  occ. eigenvalues --   -0.52645  -0.52320  -0.52157  -0.51907  -0.51718
 Alpha  occ. eigenvalues --   -0.51625  -0.51489  -0.50954  -0.50873  -0.50535
 Alpha  occ. eigenvalues --   -0.50446  -0.50272  -0.50063  -0.49857  -0.49572
 Alpha  occ. eigenvalues --   -0.49520  -0.49438  -0.49240  -0.49032  -0.48681
 Alpha  occ. eigenvalues --   -0.48659  -0.48305  -0.48252  -0.48058  -0.47532
 Alpha  occ. eigenvalues --   -0.47433  -0.47245  -0.47131  -0.46906  -0.46716
 Alpha  occ. eigenvalues --   -0.46509  -0.46405  -0.46246  -0.46006  -0.45704
 Alpha  occ. eigenvalues --   -0.45452  -0.45229  -0.45078  -0.45034  -0.44906
 Alpha  occ. eigenvalues --   -0.44788  -0.44767  -0.44522  -0.44152  -0.44123
 Alpha  occ. eigenvalues --   -0.43988  -0.43823  -0.43784  -0.43454  -0.43355
 Alpha  occ. eigenvalues --   -0.42982  -0.42709  -0.42491  -0.42345  -0.42174
 Alpha  occ. eigenvalues --   -0.41747  -0.41487  -0.41262  -0.41169  -0.40638
 Alpha  occ. eigenvalues --   -0.40314  -0.40186  -0.40063  -0.39710  -0.39264
 Alpha  occ. eigenvalues --   -0.39216  -0.39057  -0.38972  -0.38850  -0.38266
 Alpha  occ. eigenvalues --   -0.37759  -0.37748  -0.36842  -0.36550  -0.36201
 Alpha  occ. eigenvalues --   -0.35818  -0.35653  -0.35526  -0.34093  -0.33567
 Alpha  occ. eigenvalues --   -0.33416  -0.32405  -0.32036  -0.31815  -0.26303
 Alpha  occ. eigenvalues --   -0.23262
 Alpha virt. eigenvalues --   -0.07398   0.00599   0.02252   0.04528   0.06412
 Alpha virt. eigenvalues --    0.06969   0.07518   0.07743   0.08709   0.09403
 Alpha virt. eigenvalues --    0.10504   0.10674   0.11472   0.11604   0.12445

 Mulliken charges:
               1
     1  Mg   1.011041
     2  C    0.020126
     3  C   -0.109318
     4  C   -0.116618
     5  C   -0.115745
     6  N   -0.383745
     7  C    0.031182
     8  C   -0.015716
     9  C   -0.159558
    10  C    0.099657
    11  C    0.000035
    12  C    0.052256
    13  C   -0.009043
    14  C    0.201692
    15  O   -0.320329
    16  O   -0.337483
    17  N   -0.483477
    18  C    0.187800
    19  C   -0.187240
    20  C   -0.078505
    21  C    0.167630
    22  C    0.073776
    23  C    0.026116
    24  O   -0.236443
    25  C   -0.005163
    26  N   -0.388505
    27  C    0.063145
    28  C   -0.045566
    29  C   -0.119310
    30  C    0.129298
    31  C    0.075039
    32  C   -0.014308
    33  C   -0.038498
    34  N   -0.404183
    35  C    0.082104
    36  C   -0.185364
    37  C    0.007738
    38  C    0.104751
    39  C    0.057542
    40  C    0.085870
    41  O   -0.204316
    42  C   -0.087418
    43  C    0.276949
    44  O   -0.240834
    45  O   -0.398041
    46  C    0.141135
    47  C    0.283222
    48  C   -0.164345
    49  C   -0.164559
    50  C    0.013312
    51  C    0.021490
    52  C   -0.061759
    53  C    0.000909
    54  C   -0.159077
    55  C    0.000630
    56  C    0.015800
    57  C   -0.047583
    58  C    0.001798
    59  C   -0.183483
    60  C    0.002498
    61  C    0.020226
    62  C   -0.020455
    63  C    0.012612
    64  C   -0.233904
    65  C   -0.005248
    66  C    0.019143
    67  H   -0.006744
    68  H    0.013986
    69  H   -0.004453
    70  H    0.034378
    71  H    0.038479
    72  H    0.042684
    73  H    0.028768
    74  H    0.046973
    75  H    0.045238
    76  H    0.079913
    77  H    0.063616
    78  H    0.054270
    79  H    0.058030
    80  H    0.043774
    81  H    0.037713
    82  H    0.049372
    83  H    0.055581
    84  H    0.059475
    85  H    0.032097
    86  H    0.023905
    87  H    0.040754
    88  H    0.044785
    89  H    0.033700
    90  H    0.035969
    91  H    0.028324
    92  H    0.033499
    93  H    0.037580
    94  H    0.028782
    95  H    0.052314
    96  H    0.057546
    97  H    0.051690
    98  H    0.088793
    99  H    0.049917
   100  H    0.061383
   101  H    0.042678
   102  H    0.063414
   103  H    0.075414
   104  H    0.019058
   105  H    0.052478
   106  H    0.033127
   107  H    0.033097
   108  H    0.004729
   109  H    0.021454
   110  H    0.030529
   111  H    0.022615
   112  H    0.020287
   113  H    0.026886
   114  H    0.023460
   115  H    0.029694
   116  H    0.022511
   117  H    0.028669
   118  H    0.019585
   119  H    0.015258
   120  H    0.031003
   121  H    0.025882
   122  H    0.008279
   123  H    0.003215
   124  H    0.016337
   125  H    0.017713
   126  H    0.029446
   127  H    0.021309
   128  H    0.007290
   129  H    0.026527
   130  H    0.014096
   131  H    0.014643
   132  H    0.021748
   133  H    0.004163
   134  H    0.017749
   135  H    0.017081
   136  H    0.025662
   137  H    0.028071
   138  H    0.028994
   139  H    0.017235
   140  H    0.035142
 Sum of Mulliken charges =  -0.00000

 Dipole moment (field-independent basis, Debye):
    X=             -2.7968    Y=              3.3053    Z=             -0.4968  Tot=              4.3582
 Quadrupole moment (field-independent basis, Debye-Ang):
   XX=           -364.5901   YY=           -430.8632   ZZ=           -401.8435
   XY=             -5.0738   XZ=              1.2182   YZ=             -4.9666

 Normal termination of Gaussian 16 at Fri Apr 29 07:07:04 2022.
