 Gaussian 16, Revision A.03,
 Gaussian 16:  ES64L-G16RevA.03 25-Dec-2016

 --------------------
 #p ZINDO=(nstates=5)
 --------------------

 ----------------------------
 step_201_chromophore_1 ZINDO
 ----------------------------
 Symbolic Z-matrix:
 Charge =  0 Multiplicity = 1

                         Standard orientation:
 ---------------------------------------------------------------------
 Center     Atomic      Atomic             Coordinates (Angstroms)
 Number     Number       Type             X           Y           Z
 ---------------------------------------------------------------------
      1         12           0        5.985897    0.385979    0.062389
      2          6           0        4.006484   -2.399032   -0.467082
      3          6           0        3.393375    2.369379   -1.190467
      4          6           0        7.972149    3.040481    0.246983
      5          6           0        8.691366   -1.622320    0.618629
      6          7           0        3.964865   -0.014783   -0.740288
      7          6           0        3.311825   -1.241492   -0.843597
      8          6           0        1.823704   -1.082777   -1.312280
      9          6           0        1.809907    0.419743   -1.767910
     10          6           0        3.127495    1.002653   -1.245788
     11          6           0        1.544546    0.685203   -3.298937
     12          6           0        0.701012   -1.467092   -0.275288
     13          6           0       -0.711161   -0.890201   -0.595254
     14          6           0       -1.917644   -1.842675   -0.637426
     15          8           0       -1.860888   -2.991181   -1.153064
     16          8           0       -3.089739   -1.367283   -0.181130
     17          7           0        5.688831    2.389556   -0.273653
     18          6           0        4.503233    3.040739   -0.662274
     19          6           0        4.720475    4.412459   -0.617323
     20          6           0        6.071754    4.681155   -0.208076
     21          6           0        6.616996    3.334668    0.035042
     22          6           0        3.639206    5.418750   -1.076643
     23          6           0        6.745621    6.040141   -0.152453
     24          8           0        7.923106    6.173136    0.107720
     25          6           0        5.995598    7.350763   -0.208602
     26          7           0        7.986007    0.734035    0.404820
     27          6           0        8.617841    1.903441    0.360128
     28          6           0       10.141716    1.779309    0.455964
     29          6           0       10.307749    0.262957    0.940785
     30          6           0        8.899050   -0.259609    0.659519
     31          6           0       10.832472    2.080926   -0.820758
     32          6           0       10.579379    0.084393    2.447505
     33          6           0       11.909568    0.660407    2.925722
     34          7           0        6.356447   -1.555855    0.230368
     35          6           0        7.402627   -2.237025    0.472903
     36          6           0        7.141826   -3.652070    0.583716
     37          6           0        5.846120   -3.784981    0.227810
     38          6           0        5.388281   -2.454089   -0.085212
     39          6           0        8.229222   -4.600110    0.911971
     40          6           0        4.801347   -4.727422   -0.052455
     41          8           0        4.842931   -5.962493   -0.028665
     42          6           0        3.575530   -3.854463   -0.586458
     43          6           0        2.453421   -4.376341    0.157447
     44          8           0        2.080595   -4.072882    1.269560
     45          8           0        1.734050   -5.267845   -0.678786
     46          6           0        0.562199   -5.876128    0.062113
     47          6           0       -4.247011   -2.226739   -0.340084
     48          6           0       -5.239353   -1.276940   -0.765192
     49          6           0       -6.508578   -1.508905   -0.931948
     50          6           0       -7.134018   -2.891785   -0.793700
     51          6           0       -7.461866   -0.343313   -1.092918
     52          6           0       -8.401272   -0.052714    0.093592
     53          6           0       -9.188766    1.307526   -0.023581
     54          6           0       -9.091192    2.320223    1.108933
     55          6           0       -7.630844    2.805422    1.209707
     56          6           0       -9.638984    1.827111    2.521968
     57          6           0      -11.153992    2.037799    2.655737
     58          6           0      -11.966675    0.699228    2.902198
     59          6           0      -13.338855    0.708595    2.293231
     60          6           0      -14.423087    0.686010    3.374734
     61          6           0      -13.470428   -0.336004    1.185920
     62          6           0      -14.533861   -0.012361    0.128312
     63          6           0      -13.991120   -0.222423   -1.299799
     64          6           0      -13.286601    1.039070   -1.837987
     65          6           0      -14.365866    2.065300   -2.230282
     66          6           0      -12.149191    0.852162   -2.883558
     67          1           0        2.641999    3.003375   -1.666846
     68          1           0        8.590794    3.938480    0.312353
     69          1           0        9.510055   -2.299952    0.870140
     70          1           0        1.590833   -1.547297   -2.270483
     71          1           0        1.025375    1.047863   -1.343652
     72          1           0        2.229396    1.478947   -3.596892
     73          1           0        0.516868    1.039035   -3.376017
     74          1           0        1.549187   -0.136386   -4.014482
     75          1           0        1.065280   -1.066740    0.671143
     76          1           0        0.512881   -2.538591   -0.222924
     77          1           0       -0.778278   -0.427420   -1.579756
     78          1           0       -0.969225   -0.151761    0.163932
     79          1           0        4.034895    5.870514   -1.986835
     80          1           0        3.489050    6.136944   -0.270919
     81          1           0        2.646907    4.991120   -1.226211
     82          1           0        5.128662    7.387147    0.450116
     83          1           0        5.737796    7.458098   -1.261905
     84          1           0        6.696683    8.049008    0.248389
     85          1           0       10.374614    2.450776    1.281570
     86          1           0       11.058134   -0.365718    0.461467
     87          1           0       10.280045    2.915032   -1.253361
     88          1           0       10.957378    1.170438   -1.407197
     89          1           0       11.819209    2.489126   -0.599493
     90          1           0       10.529794   -0.971888    2.714007
     91          1           0        9.783411    0.686955    2.884452
     92          1           0       12.574466   -0.092226    3.350954
     93          1           0       11.796059    1.412196    3.706600
     94          1           0       12.479388    1.142256    2.130680
     95          1           0        8.937783   -4.620532    0.083099
     96          1           0        7.689996   -5.544682    0.974259
     97          1           0        8.833041   -4.520667    1.816615
     98          1           0        3.555912   -4.215831   -1.614953
     99          1           0       -0.294274   -5.217373    0.208051
    100          1           0        0.757178   -6.351834    1.022569
    101          1           0        0.109096   -6.571197   -0.643507
    102          1           0       -4.491113   -2.743923    0.588197
    103          1           0       -4.141298   -2.938312   -1.158578
    104          1           0       -4.965266   -0.235121   -0.930372
    105          1           0       -7.764909   -3.014896    0.086542
    106          1           0       -6.434342   -3.724806   -0.855549
    107          1           0       -7.815716   -3.040913   -1.630854
    108          1           0       -8.236150   -0.632088   -1.802791
    109          1           0       -7.085712    0.585491   -1.520927
    110          1           0       -7.883174   -0.064433    1.052045
    111          1           0       -9.107008   -0.879268    0.021524
    112          1           0      -10.205860    0.947267   -0.177067
    113          1           0       -8.855743    1.843517   -0.913284
    114          1           0       -9.768227    3.142296    0.872908
    115          1           0       -7.324381    2.816819    2.255208
    116          1           0       -7.537732    3.827060    0.840788
    117          1           0       -6.912591    2.297014    0.566577
    118          1           0       -9.201181    2.322370    3.389164
    119          1           0       -9.440415    0.765769    2.669984
    120          1           0      -11.570618    2.582848    1.808251
    121          1           0      -11.382082    2.504256    3.613786
    122          1           0      -12.037365    0.523452    3.976244
    123          1           0      -11.360071   -0.155620    2.603287
    124          1           0      -13.569982    1.614124    1.733492
    125          1           0      -15.284255    1.288321    3.086671
    126          1           0      -14.068720    1.103234    4.317382
    127          1           0      -14.871881   -0.291672    3.548053
    128          1           0      -13.987933   -1.176745    1.647835
    129          1           0      -12.491010   -0.662710    0.837012
    130          1           0      -14.966813    0.976096    0.282111
    131          1           0      -15.359989   -0.702801    0.300621
    132          1           0      -14.727718   -0.706007   -1.942523
    133          1           0      -13.140852   -0.904250   -1.287625
    134          1           0      -12.774432    1.571336   -1.036573
    135          1           0      -15.104446    2.197481   -1.439786
    136          1           0      -14.873321    1.629792   -3.091207
    137          1           0      -13.950903    3.065249   -2.356382
    138          1           0      -11.218360    1.309766   -2.546501
    139          1           0      -12.378246    1.485108   -3.740306
    140          1           0      -12.091198   -0.208364   -3.128206
 ---------------------------------------------------------------------

 SCF Done:  E(RZINDO/S) =  -474.665428182     A.U. after   19 cycles

 Excitation energies and oscillator strengths:

 Excited State   1:      Singlet-A      1.2497 eV  992.15 nm  f=0.6324  <S**2>=0.000
     175 ->178         0.15662
     176 ->177         0.66750
 This state for optimization and/or second-order correction.
 Total Energy, E(CIS/TDA) =  -474.619504121
 Copying the excited state density for this state as the 1-particle RhoCI density.

 Excited State   2:      Singlet-A      1.9803 eV  626.10 nm  f=0.0662  <S**2>=0.000
     175 ->177         0.55692
     176 ->178        -0.38193
     176 ->179         0.14859

 Excited State   3:      Singlet-A      2.8941 eV  428.40 nm  f=0.0017  <S**2>=0.000
     168 ->177         0.34545
     168 ->178        -0.33239
     168 ->179        -0.35843
     168 ->180         0.16208
     168 ->185         0.17868

 Excited State   4:      Singlet-A      2.9262 eV  423.70 nm  f=0.0140  <S**2>=0.000
     170 ->177         0.26308
     170 ->179         0.26963
     170 ->180         0.41766
     170 ->182        -0.10931
     170 ->185        -0.16135
     170 ->188         0.21982
     176 ->178        -0.10547
     176 ->179        -0.10937

 Excited State   5:      Singlet-A      2.9538 eV  419.75 nm  f=0.5018  <S**2>=0.000
     175 ->177         0.28163
     176 ->178         0.52685
     176 ->179         0.28187

 The electronic state is 1-A.
 Alpha  occ. eigenvalues --   -1.89684  -1.83753  -1.78673  -1.75543  -1.71631
 Alpha  occ. eigenvalues --   -1.70272  -1.66652  -1.61546  -1.60129  -1.58269
 Alpha  occ. eigenvalues --   -1.55951  -1.52509  -1.49401  -1.48341  -1.47695
 Alpha  occ. eigenvalues --   -1.44053  -1.42079  -1.41182  -1.39272  -1.39045
 Alpha  occ. eigenvalues --   -1.36975  -1.35359  -1.33606  -1.31078  -1.30311
 Alpha  occ. eigenvalues --   -1.28269  -1.25890  -1.21411  -1.20288  -1.18823
 Alpha  occ. eigenvalues --   -1.17995  -1.16608  -1.15521  -1.14616  -1.14005
 Alpha  occ. eigenvalues --   -1.12526  -1.11467  -1.10212  -1.05539  -1.04416
 Alpha  occ. eigenvalues --   -1.04243  -1.01531  -0.99812  -0.98575  -0.98217
 Alpha  occ. eigenvalues --   -0.95891  -0.94652  -0.93880  -0.93478  -0.91914
 Alpha  occ. eigenvalues --   -0.91344  -0.89671  -0.88519  -0.86993  -0.86571
 Alpha  occ. eigenvalues --   -0.85816  -0.84699  -0.83196  -0.81793  -0.80328
 Alpha  occ. eigenvalues --   -0.78985  -0.78424  -0.78171  -0.76900  -0.76471
 Alpha  occ. eigenvalues --   -0.76298  -0.75354  -0.75215  -0.74615  -0.73864
 Alpha  occ. eigenvalues --   -0.73459  -0.72561  -0.71654  -0.71456  -0.70495
 Alpha  occ. eigenvalues --   -0.69757  -0.69470  -0.69449  -0.68681  -0.68490
 Alpha  occ. eigenvalues --   -0.67751  -0.67257  -0.67098  -0.66202  -0.65877
 Alpha  occ. eigenvalues --   -0.65002  -0.64645  -0.64061  -0.63786  -0.63589
 Alpha  occ. eigenvalues --   -0.62908  -0.62818  -0.62295  -0.62026  -0.61649
 Alpha  occ. eigenvalues --   -0.61471  -0.60965  -0.60671  -0.59758  -0.59546
 Alpha  occ. eigenvalues --   -0.58870  -0.58644  -0.58379  -0.58253  -0.57934
 Alpha  occ. eigenvalues --   -0.57658  -0.57391  -0.57167  -0.56730  -0.56372
 Alpha  occ. eigenvalues --   -0.56057  -0.55861  -0.55383  -0.55123  -0.54622
 Alpha  occ. eigenvalues --   -0.54351  -0.54144  -0.53428  -0.53023  -0.52719
 Alpha  occ. eigenvalues --   -0.52543  -0.52284  -0.52062  -0.51645  -0.51369
 Alpha  occ. eigenvalues --   -0.51046  -0.50866  -0.50015  -0.49888  -0.49842
 Alpha  occ. eigenvalues --   -0.49588  -0.49457  -0.49283  -0.49065  -0.48791
 Alpha  occ. eigenvalues --   -0.48681  -0.48206  -0.48158  -0.47734  -0.47439
 Alpha  occ. eigenvalues --   -0.47333  -0.47164  -0.47031  -0.46874  -0.46537
 Alpha  occ. eigenvalues --   -0.46358  -0.45939  -0.45630  -0.45576  -0.45333
 Alpha  occ. eigenvalues --   -0.45024  -0.44911  -0.44606  -0.44466  -0.43674
 Alpha  occ. eigenvalues --   -0.43475  -0.43203  -0.43131  -0.42106  -0.42080
 Alpha  occ. eigenvalues --   -0.41874  -0.41131  -0.40840  -0.39385  -0.38591
 Alpha  occ. eigenvalues --   -0.38299  -0.37308  -0.35830  -0.35246  -0.34188
 Alpha  occ. eigenvalues --   -0.33945  -0.33173  -0.32368  -0.32264  -0.27125
 Alpha  occ. eigenvalues --   -0.22039
 Alpha virt. eigenvalues --   -0.08857  -0.02014  -0.00454   0.01432   0.01776
 Alpha virt. eigenvalues --    0.02622   0.02874   0.03070   0.04919   0.05450
 Alpha virt. eigenvalues --    0.06330   0.06742   0.07674   0.07817   0.08281

 Mulliken charges:
               1
     1  Mg   0.420819
     2  C   -0.033771
     3  C   -0.048856
     4  C   -0.062950
     5  C   -0.107579
     6  N   -0.286804
     7  C    0.127179
     8  C    0.005739
     9  C   -0.004293
    10  C    0.091044
    11  C   -0.057126
    12  C   -0.016225
    13  C    0.008516
    14  C    0.459170
    15  O   -0.554630
    16  O   -0.254777
    17  N   -0.329448
    18  C    0.077460
    19  C    0.002799
    20  C   -0.072538
    21  C    0.148688
    22  C   -0.052098
    23  C    0.323110
    24  O   -0.530884
    25  C   -0.033492
    26  N   -0.287817
    27  C    0.145864
    28  C    0.008514
    29  C   -0.008857
    30  C    0.147690
    31  C   -0.043564
    32  C   -0.025170
    33  C   -0.058730
    34  N   -0.277067
    35  C    0.141113
    36  C    0.045326
    37  C   -0.029991
    38  C    0.091489
    39  C   -0.040193
    40  C    0.335428
    41  O   -0.510830
    42  C    0.061128
    43  C    0.499404
    44  O   -0.521160
    45  O   -0.275454
    46  C    0.068517
    47  C    0.117269
    48  C   -0.067314
    49  C   -0.018729
    50  C   -0.046542
    51  C   -0.027345
    52  C   -0.032228
    53  C   -0.031387
    54  C   -0.004401
    55  C   -0.059059
    56  C   -0.038788
    57  C   -0.047325
    58  C   -0.036272
    59  C   -0.005816
    60  C   -0.055883
    61  C   -0.039660
    62  C   -0.032773
    63  C   -0.029488
    64  C   -0.016241
    65  C   -0.059248
    66  C   -0.061046
    67  H    0.025402
    68  H    0.031261
    69  H    0.026708
    70  H    0.035138
    71  H    0.024867
    72  H    0.025198
    73  H    0.011346
    74  H    0.028870
    75  H    0.033511
    76  H    0.049451
    77  H    0.049449
    78  H    0.030355
    79  H    0.033435
    80  H    0.024934
    81  H    0.023800
    82  H    0.030409
    83  H    0.044840
    84  H    0.042391
    85  H    0.035240
    86  H    0.031610
    87  H    0.031586
    88  H    0.030410
    89  H    0.013970
    90  H    0.025969
    91  H    0.024247
    92  H    0.015317
    93  H    0.018567
    94  H    0.016839
    95  H    0.032622
    96  H    0.026006
    97  H    0.037657
    98  H    0.061805
    99  H    0.043699
   100  H    0.054663
   101  H    0.024310
   102  H    0.053885
   103  H    0.064944
   104  H    0.029433
   105  H    0.029591
   106  H    0.022653
   107  H    0.018387
   108  H    0.007384
   109  H    0.025966
   110  H    0.021564
   111  H    0.019310
   112  H    0.012847
   113  H    0.017021
   114  H    0.020277
   115  H    0.020769
   116  H    0.009865
   117  H    0.023331
   118  H    0.019525
   119  H    0.019956
   120  H    0.029189
   121  H    0.018265
   122  H    0.012282
   123  H    0.014219
   124  H    0.017330
   125  H    0.008446
   126  H    0.018818
   127  H    0.018573
   128  H    0.010596
   129  H    0.030385
   130  H    0.025516
   131  H    0.009753
   132  H    0.024689
   133  H    0.008069
   134  H    0.012084
   135  H    0.013321
   136  H    0.020605
   137  H    0.016793
   138  H    0.021905
   139  H    0.015927
   140  H    0.028221
 Sum of Mulliken charges =  -0.00000

 Dipole moment (field-independent basis, Debye):
    X=             -2.9232    Y=              3.4384    Z=             -1.9091  Tot=              4.9003
 N-N= 4.260323639713D+03 E-N= 0.000000000000D+00  KE=-9.195278352720D+03
 Leave Link  601 at Fri Apr 29 07:19:25 2022, MaxMem=  6710886400 cpu:               1.6 elap:               0.1
 (Enter /sw/apps/gaussian-16.0/g16/l9999.exe)
 1\1\GINC-BP1-COMPUTE139\SP\RZINDO CIS\STO-3G\C55H74Mg1N4O6\OF15641\29-
 Apr-2022\0\\#p ZINDO=(nstates=5)\\step_201_chromophore_1 ZINDO\\0,1\Mg
 ,0,-1.232,17.266,26.73\C,0,-1.644,15.091,29.386\C,0,-1.738,19.931,28.9
 36\C,0,-1.171,19.364,24.157\C,0,-1.43,14.654,24.539\N,0,-1.657,17.44,2
 8.893\C,0,-1.755,16.415,29.832\C,0,-1.902,16.963,31.294\C,0,-2.189,18.
 482,31.019\C,0,-1.88,18.679,29.531\C,0,-3.602,19.02,31.465\C,0,-0.709,
 16.687,32.286\C,0,-0.683,17.6,33.549\C,0,-0.584,16.952,34.94\O,0,-1.21

 Normal termination of Gaussian 16 at Fri Apr 29 07:19:25 2022.
