 Gaussian 16, Revision A.03,
 Gaussian 16:  ES64L-G16RevA.03 25-Dec-2016

 ------------------------------
 #p blyp/Def2SVP td=(nstates=5)
 ------------------------------

 -------------------------------------------------
 step_201_chromophore_2 TDDFT with blyp functional
 -------------------------------------------------
 Symbolic Z-matrix:
 Charge =  0 Multiplicity = 1

                         Standard orientation:
 ---------------------------------------------------------------------
 Center     Atomic      Atomic             Coordinates (Angstroms)
 Number     Number       Type             X           Y           Z
 ---------------------------------------------------------------------
      1         12           0       -4.524363    1.314109    0.670492
      2          6           0       -4.971371   -2.223359    0.599048
      3          6           0       -2.027758    0.936103    2.902163
      4          6           0       -3.424690    4.386388   -0.097584
      5          6           0       -6.718969    1.477200   -2.122909
      6          7           0       -3.480904   -0.447643    1.358557
      7          6           0       -3.843704   -1.745251    1.366530
      8          6           0       -3.047570   -2.594255    2.220986
      9          6           0       -2.290239   -1.615342    3.194925
     10          6           0       -2.630465   -0.293760    2.480638
     11          6           0       -2.799007   -1.679213    4.702697
     12          6           0       -2.177078   -3.703447    1.620689
     13          6           0       -2.196893   -3.870847    0.088875
     14          6           0       -0.949561   -4.484995   -0.560989
     15          8           0       -0.268816   -5.473623   -0.199267
     16          8           0       -0.452069   -3.779235   -1.690025
     17          7           0       -3.128240    2.580561    1.448526
     18          6           0       -2.258726    2.246875    2.457990
     19          6           0       -1.553754    3.427352    2.882850
     20          6           0       -2.005358    4.530145    2.080110
     21          6           0       -2.893384    3.871929    1.086123
     22          6           0       -0.546283    3.432925    4.033961
     23          6           0       -1.574406    6.044259    2.102933
     24          8           0       -0.757105    6.417303    2.946761
     25          6           0       -2.068864    7.054157    1.206839
     26          7           0       -4.903108    2.727191   -0.979385
     27          6           0       -4.292287    3.879484   -1.052159
     28          6           0       -4.849332    4.708963   -2.243181
     29          6           0       -6.033234    3.869658   -2.809479
     30          6           0       -5.872154    2.551570   -1.925223
     31          6           0       -5.254304    6.241188   -2.072978
     32          6           0       -6.129794    3.479276   -4.298651
     33          6           0       -7.461836    3.913011   -4.937839
     34          7           0       -5.708198    0.006497   -0.477012
     35          6           0       -6.631900    0.227370   -1.447453
     36          6           0       -7.498297   -0.946697   -1.581901
     37          6           0       -6.852353   -1.973236   -0.840345
     38          6           0       -5.777103   -1.321846   -0.193403
     39          6           0       -8.688695   -1.076167   -2.613023
     40          6           0       -6.902672   -3.325366   -0.507393
     41          8           0       -7.630574   -4.250180   -0.978746
     42          6           0       -5.755067   -3.569056    0.466631
     43          6           0       -6.282041   -3.941107    1.803524
     44          8           0       -6.454239   -5.125785    2.076986
     45          8           0       -6.318648   -2.940317    2.779214
     46          6           0       -6.456725   -3.268693    4.211704
     47          6           0        0.816705   -4.282475   -2.343968
     48          6           0        1.834459   -3.140595   -2.156153
     49          6           0        2.965598   -2.877632   -2.812355
     50          6           0        3.512603   -3.767070   -4.004010
     51          6           0        3.845487   -1.627442   -2.427373
     52          6           0        4.886188   -1.886054   -1.340141
     53          6           0        6.354797   -2.085391   -1.889587
     54          6           0        7.223319   -0.761996   -1.896300
     55          6           0        7.066520   -0.091699   -3.264867
     56          6           0        8.719778   -1.022981   -1.531974
     57          6           0        9.420594    0.189586   -0.825926
     58          6           0        9.492389    0.132200    0.716441
     59          6           0       10.917716   -0.226008    1.231535
     60          6           0       10.965809   -1.182304    2.410186
     61          6           0       11.782126    1.086507    1.447704
     62          6           0       13.330298    0.778219    1.504236
     63          6           0       13.912607    1.134442    0.096999
     64          6           0       15.455184    1.203189    0.125378
     65          6           0       15.970669    2.592238   -0.159751
     66          6           0       16.070539    0.020002   -0.725843
     67          1           0       -1.360669    0.764451    3.749408
     68          1           0       -3.133345    5.412280   -0.334478
     69          1           0       -7.496310    1.590362   -2.881920
     70          1           0       -3.773521   -3.114197    2.845658
     71          1           0       -1.211246   -1.769263    3.175218
     72          1           0       -3.358979   -0.777724    4.949585
     73          1           0       -1.908853   -1.810212    5.318484
     74          1           0       -3.349980   -2.600698    4.890668
     75          1           0       -2.240015   -4.667381    2.125641
     76          1           0       -1.116484   -3.516605    1.791162
     77          1           0       -2.478985   -2.969149   -0.454297
     78          1           0       -2.948832   -4.648157   -0.045862
     79          1           0       -0.614679    4.344037    4.629485
     80          1           0        0.483960    3.236868    3.738544
     81          1           0       -0.845112    2.562655    4.619560
     82          1           0       -1.684333    8.049668    1.432291
     83          1           0       -3.155487    7.136869    1.206643
     84          1           0       -1.744402    6.889425    0.180121
     85          1           0       -4.006898    4.717668   -2.934899
     86          1           0       -6.919456    4.337950   -2.379630
     87          1           0       -5.746972    6.396507   -1.112646
     88          1           0       -5.900466    6.616490   -2.865272
     89          1           0       -4.402255    6.919138   -2.116529
     90          1           0       -5.848335    2.434655   -4.433637
     91          1           0       -5.420137    4.142896   -4.792024
     92          1           0       -8.071252    3.017427   -5.055763
     93          1           0       -7.355865    4.276927   -5.959383
     94          1           0       -8.064948    4.585866   -4.327957
     95          1           0       -8.409048   -0.881253   -3.648675
     96          1           0       -9.510659   -0.411573   -2.347144
     97          1           0       -9.014421   -2.112804   -2.534017
     98          1           0       -5.156222   -4.330479   -0.034006
     99          1           0       -7.516809   -3.144311    4.431580
    100          1           0       -5.902474   -2.456413    4.681465
    101          1           0       -6.086779   -4.240868    4.537490
    102          1           0        0.584303   -4.331419   -3.407426
    103          1           0        1.174775   -5.271768   -2.060406
    104          1           0        1.594131   -2.411485   -1.382426
    105          1           0        3.081229   -3.359586   -4.919168
    106          1           0        3.249591   -4.815023   -3.860329
    107          1           0        4.594439   -3.653550   -4.070228
    108          1           0        3.098084   -0.912532   -2.082958
    109          1           0        4.259476   -1.211307   -3.345853
    110          1           0        4.651214   -2.822648   -0.835396
    111          1           0        4.795785   -1.149785   -0.541977
    112          1           0        6.229879   -2.411609   -2.922189
    113          1           0        6.941190   -2.824405   -1.343715
    114          1           0        6.756547   -0.034975   -1.231770
    115          1           0        7.079252   -0.740045   -4.140063
    116          1           0        7.907616    0.584164   -3.417838
    117          1           0        6.168605    0.518953   -3.164758
    118          1           0        9.321681   -1.054551   -2.440576
    119          1           0        8.882644   -1.954575   -0.989376
    120          1           0        8.729600    1.013951   -1.003001
    121          1           0       10.415280    0.391787   -1.223231
    122          1           0        8.846028   -0.654032    1.107224
    123          1           0        9.250553    1.058841    1.237484
    124          1           0       11.479283   -0.843064    0.529391
    125          1           0       11.333742   -2.172081    2.143052
    126          1           0        9.961964   -1.297117    2.820158
    127          1           0       11.726143   -0.802088    3.092682
    128          1           0       11.583983    1.456701    2.453098
    129          1           0       11.492941    1.901325    0.784234
    130          1           0       13.453658   -0.288794    1.690082
    131          1           0       13.801373    1.347965    2.305100
    132          1           0       13.541328    2.005383   -0.442626
    133          1           0       13.578801    0.261943   -0.464401
    134          1           0       15.709505    0.945668    1.153947
    135          1           0       15.225678    3.320934   -0.481552
    136          1           0       16.746139    2.435969   -0.908819
    137          1           0       16.294713    2.946462    0.818159
    138          1           0       16.933806   -0.310920   -0.148927
    139          1           0       16.400846    0.321216   -1.719845
    140          1           0       15.316482   -0.765522   -0.764314
 ---------------------------------------------------------------------

 SCF Done:  E(RB-LYP) =  -3007.35163088     A.U. after   20 cycles

 Excitation energies and oscillator strengths:

 Excited State   1:      Singlet-A      1.7687 eV  700.99 nm  f=0.2987  <S**2>=0.000
     245 -> 248        0.19347
     246 -> 247        0.68659
     246 <- 247       -0.15422
 This state for optimization and/or second-order correction.
 Total Energy, E(TD-HF/TD-DFT) =  -3007.28663221
 Copying the excited state density for this state as the 1-particle RhoCI density.

 Excited State   2:      Singlet-A      1.8389 eV  674.24 nm  f=0.0205  <S**2>=0.000
     243 -> 247       -0.28871
     244 -> 247        0.50267
     245 -> 247        0.38123

 Excited State   3:      Singlet-A      1.8709 eV  662.69 nm  f=0.0007  <S**2>=0.000
     243 -> 247        0.60215
     244 -> 247        0.36738

 Excited State   4:      Singlet-A      1.9910 eV  622.73 nm  f=0.0551  <S**2>=0.000
     243 -> 247        0.22526
     244 -> 247       -0.32031
     245 -> 247        0.52923
     246 -> 248       -0.22410

 Excited State   5:      Singlet-A      2.1510 eV  576.41 nm  f=0.0005  <S**2>=0.000
     242 -> 247        0.70633

 The electronic state is 1-A.
 Alpha  occ. eigenvalues --  -46.27951 -18.82519 -18.81050 -18.76512 -18.76321
 Alpha  occ. eigenvalues --  -18.75711 -18.75603 -14.04389 -14.03260 -14.01472
 Alpha  occ. eigenvalues --  -14.01268 -10.04474 -10.04346 -10.00495  -9.99443
 Alpha  occ. eigenvalues --   -9.99036  -9.98002  -9.97615  -9.97385  -9.96863
 Alpha  occ. eigenvalues --   -9.96552  -9.96522  -9.95982  -9.95797  -9.95236
 Alpha  occ. eigenvalues --   -9.95140  -9.95074  -9.94605  -9.94547  -9.94516
 Alpha  occ. eigenvalues --   -9.94309  -9.94213  -9.94203  -9.94031  -9.93962
 Alpha  occ. eigenvalues --   -9.93792  -9.93697  -9.93588  -9.93391  -9.93211
 Alpha  occ. eigenvalues --   -9.93072  -9.92716  -9.92636  -9.92634  -9.92512
 Alpha  occ. eigenvalues --   -9.92321  -9.92308  -9.92221  -9.91999  -9.91963
 Alpha  occ. eigenvalues --   -9.91618  -9.91406  -9.91388  -9.91333  -9.91241
 Alpha  occ. eigenvalues --   -9.91241  -9.91202  -9.91174  -9.91051  -9.90866
 Alpha  occ. eigenvalues --   -9.90829  -9.90740  -9.90697  -9.90509  -9.90399
 Alpha  occ. eigenvalues --   -9.90327  -2.92617  -1.72986  -1.72528  -1.72334
 Alpha  occ. eigenvalues --   -0.97109  -0.95075  -0.91507  -0.89623  -0.89078
 Alpha  occ. eigenvalues --   -0.87389  -0.87000  -0.86884  -0.86198  -0.85636
 Alpha  occ. eigenvalues --   -0.76134  -0.73726  -0.72943  -0.72819  -0.72276
 Alpha  occ. eigenvalues --   -0.72084  -0.71413  -0.71198  -0.70523  -0.69923
 Alpha  occ. eigenvalues --   -0.69358  -0.69183  -0.68045  -0.67704  -0.67465
 Alpha  occ. eigenvalues --   -0.66831  -0.66099  -0.65696  -0.65153  -0.64405
 Alpha  occ. eigenvalues --   -0.63672  -0.62837  -0.62678  -0.62061  -0.61342
 Alpha  occ. eigenvalues --   -0.60300  -0.60219  -0.60191  -0.59520  -0.58671
 Alpha  occ. eigenvalues --   -0.58260  -0.57841  -0.57421  -0.56322  -0.55442
 Alpha  occ. eigenvalues --   -0.54941  -0.53488  -0.53178  -0.52109  -0.51992
 Alpha  occ. eigenvalues --   -0.51678  -0.51270  -0.50723  -0.50595  -0.50183
 Alpha  occ. eigenvalues --   -0.49385  -0.48584  -0.48527  -0.48282  -0.46640
 Alpha  occ. eigenvalues --   -0.46449  -0.45713  -0.45553  -0.45405  -0.44950
 Alpha  occ. eigenvalues --   -0.44902  -0.44234  -0.43654  -0.42814  -0.42621
 Alpha  occ. eigenvalues --   -0.42227  -0.41681  -0.41001  -0.40826  -0.40785
 Alpha  occ. eigenvalues --   -0.40553  -0.40274  -0.40171  -0.40028  -0.39959
 Alpha  occ. eigenvalues --   -0.39867  -0.39759  -0.39704  -0.39597  -0.39146
 Alpha  occ. eigenvalues --   -0.38945  -0.38858  -0.38626  -0.38431  -0.38287
 Alpha  occ. eigenvalues --   -0.38176  -0.37991  -0.37875  -0.37733  -0.37311
 Alpha  occ. eigenvalues --   -0.37215  -0.37036  -0.36790  -0.36739  -0.36653
 Alpha  occ. eigenvalues --   -0.36526  -0.36438  -0.35888  -0.35774  -0.35639
 Alpha  occ. eigenvalues --   -0.35430  -0.35285  -0.35244  -0.35018  -0.34813
 Alpha  occ. eigenvalues --   -0.34599  -0.34588  -0.34449  -0.34427  -0.34169
 Alpha  occ. eigenvalues --   -0.33971  -0.33903  -0.33830  -0.33654  -0.33355
 Alpha  occ. eigenvalues --   -0.33186  -0.33124  -0.32853  -0.32638  -0.32490
 Alpha  occ. eigenvalues --   -0.32214  -0.31975  -0.31941  -0.31595  -0.31575
 Alpha  occ. eigenvalues --   -0.31388  -0.31305  -0.31079  -0.31019  -0.30825
 Alpha  occ. eigenvalues --   -0.30597  -0.30493  -0.30372  -0.30135  -0.30055
 Alpha  occ. eigenvalues --   -0.29827  -0.29659  -0.29405  -0.29377  -0.29140
 Alpha  occ. eigenvalues --   -0.29119  -0.28810  -0.28476  -0.27721  -0.27522
 Alpha  occ. eigenvalues --   -0.27201  -0.27094  -0.26849  -0.26717  -0.26614
 Alpha  occ. eigenvalues --   -0.26490  -0.26271  -0.25837  -0.25602  -0.25176
 Alpha  occ. eigenvalues --   -0.24883  -0.24466  -0.24137  -0.23762  -0.23482
 Alpha  occ. eigenvalues --   -0.22932  -0.22544  -0.21309  -0.21168  -0.20960
 Alpha  occ. eigenvalues --   -0.20735  -0.19963  -0.18860  -0.18808  -0.17708
 Alpha  occ. eigenvalues --   -0.16178
 Alpha virt. eigenvalues --   -0.12062  -0.07364  -0.07165  -0.05479  -0.04347
 Alpha virt. eigenvalues --   -0.03723  -0.03341  -0.02423  -0.00683  -0.00193
 Alpha virt. eigenvalues --    0.00975   0.01238   0.01767   0.02702   0.02820

 Mulliken charges:
               1
     1  Mg   0.710423
     2  C   -0.036322
     3  C   -0.060280
     4  C   -0.057339
     5  C   -0.064600
     6  N   -0.231887
     7  C   -0.078956
     8  C    0.106310
     9  C   -0.036415
    10  C    0.002954
    11  C    0.122076
    12  C    0.101277
    13  C    0.118866
    14  C    0.082857
    15  O   -0.219346
    16  O   -0.309341
    17  N   -0.308187
    18  C    0.181795
    19  C   -0.158710
    20  C    0.034839
    21  C    0.121869
    22  C    0.179934
    23  C   -0.062642
    24  O   -0.170351
    25  C    0.155983
    26  N   -0.167357
    27  C   -0.020206
    28  C    0.059701
    29  C   -0.002583
    30  C   -0.012336
    31  C    0.101273
    32  C    0.128464
    33  C    0.051956
    34  N   -0.233728
    35  C    0.097453
    36  C   -0.181959
    37  C    0.144640
    38  C    0.055791
    39  C    0.146821
    40  C   -0.100989
    41  O   -0.169771
    42  C    0.096089
    43  C    0.150795
    44  O   -0.176417
    45  O   -0.302992
    46  C    0.217499
    47  C    0.322868
    48  C   -0.085052
    49  C   -0.181037
    50  C    0.120217
    51  C    0.117756
    52  C    0.108491
    53  C    0.098312
    54  C   -0.076690
    55  C    0.099384
    56  C    0.119457
    57  C    0.065109
    58  C    0.136706
    59  C   -0.125366
    60  C    0.117513
    61  C    0.107548
    62  C    0.046566
    63  C    0.071078
    64  C   -0.107149
    65  C    0.142722
    66  C    0.096686
    67  H   -0.063235
    68  H   -0.105128
    69  H   -0.062111
    70  H   -0.034993
    71  H   -0.007259
    72  H    0.010724
    73  H   -0.007023
    74  H   -0.004048
    75  H   -0.010677
    76  H   -0.026643
    77  H    0.025380
    78  H    0.020559
    79  H    0.013740
    80  H    0.005488
    81  H   -0.023631
    82  H   -0.012870
    83  H    0.008981
    84  H    0.022462
    85  H   -0.028545
    86  H   -0.017557
    87  H   -0.003412
    88  H   -0.003689
    89  H   -0.010226
    90  H    0.002095
    91  H   -0.025680
    92  H   -0.014348
    93  H   -0.009309
    94  H   -0.004125
    95  H    0.007898
    96  H   -0.004331
    97  H    0.009882
    98  H    0.015895
    99  H    0.021592
   100  H    0.012823
   101  H    0.032218
   102  H   -0.004371
   103  H    0.030828
   104  H   -0.040893
   105  H    0.007923
   106  H   -0.001153
   107  H   -0.011954
   108  H   -0.034257
   109  H   -0.026757
   110  H   -0.029751
   111  H   -0.030075
   112  H   -0.030807
   113  H   -0.036883
   114  H   -0.033905
   115  H   -0.012040
   116  H   -0.029271
   117  H   -0.010738
   118  H   -0.039742
   119  H   -0.031268
   120  H   -0.033498
   121  H   -0.018267
   122  H   -0.045618
   123  H   -0.032596
   124  H   -0.043807
   125  H   -0.023561
   126  H   -0.018433
   127  H   -0.021941
   128  H   -0.045564
   129  H   -0.031245
   130  H   -0.023933
   131  H   -0.025263
   132  H   -0.031677
   133  H   -0.044271
   134  H   -0.037205
   135  H   -0.016113
   136  H   -0.016683
   137  H   -0.015399
   138  H   -0.016516
   139  H   -0.010685
   140  H   -0.015577
 Sum of Mulliken charges =  -0.00000

 Dipole moment (field-independent basis, Debye):
    X=              0.1688    Y=              5.8207    Z=             -0.1137  Tot=              5.8242
 Quadrupole moment (field-independent basis, Debye-Ang):
   XX=           -412.1768   YY=           -446.9338   ZZ=           -381.9278
   XY=            -58.9666   XZ=            -10.1670   YZ=            -25.2569

 Normal termination of Gaussian 16 at Fri Apr 29 08:44:02 2022.
