 Gaussian 16, Revision A.03,
 Gaussian 16:  ES64L-G16RevA.03 25-Dec-2016

 -----------------------------------
 #p cam-b3lyp/Def2SVP td=(nstates=5)
 -----------------------------------

 ------------------------------------------------------
 step_201_chromophore_2 TDDFT with cam-b3lyp functional
 ------------------------------------------------------
 Symbolic Z-matrix:
 Charge =  0 Multiplicity = 1

                         Standard orientation:
 ---------------------------------------------------------------------
 Center     Atomic      Atomic             Coordinates (Angstroms)
 Number     Number       Type             X           Y           Z
 ---------------------------------------------------------------------
      1         12           0       -4.524363    1.314109    0.670492
      2          6           0       -4.971371   -2.223359    0.599048
      3          6           0       -2.027758    0.936103    2.902163
      4          6           0       -3.424690    4.386388   -0.097584
      5          6           0       -6.718969    1.477200   -2.122909
      6          7           0       -3.480904   -0.447643    1.358557
      7          6           0       -3.843704   -1.745251    1.366530
      8          6           0       -3.047570   -2.594255    2.220986
      9          6           0       -2.290239   -1.615342    3.194925
     10          6           0       -2.630465   -0.293760    2.480638
     11          6           0       -2.799007   -1.679213    4.702697
     12          6           0       -2.177078   -3.703447    1.620689
     13          6           0       -2.196893   -3.870847    0.088875
     14          6           0       -0.949561   -4.484995   -0.560989
     15          8           0       -0.268816   -5.473623   -0.199267
     16          8           0       -0.452069   -3.779235   -1.690025
     17          7           0       -3.128240    2.580561    1.448526
     18          6           0       -2.258726    2.246875    2.457990
     19          6           0       -1.553754    3.427352    2.882850
     20          6           0       -2.005358    4.530145    2.080110
     21          6           0       -2.893384    3.871929    1.086123
     22          6           0       -0.546283    3.432925    4.033961
     23          6           0       -1.574406    6.044259    2.102933
     24          8           0       -0.757105    6.417303    2.946761
     25          6           0       -2.068864    7.054157    1.206839
     26          7           0       -4.903108    2.727191   -0.979385
     27          6           0       -4.292287    3.879484   -1.052159
     28          6           0       -4.849332    4.708963   -2.243181
     29          6           0       -6.033234    3.869658   -2.809479
     30          6           0       -5.872154    2.551570   -1.925223
     31          6           0       -5.254304    6.241188   -2.072978
     32          6           0       -6.129794    3.479276   -4.298651
     33          6           0       -7.461836    3.913011   -4.937839
     34          7           0       -5.708198    0.006497   -0.477012
     35          6           0       -6.631900    0.227370   -1.447453
     36          6           0       -7.498297   -0.946697   -1.581901
     37          6           0       -6.852353   -1.973236   -0.840345
     38          6           0       -5.777103   -1.321846   -0.193403
     39          6           0       -8.688695   -1.076167   -2.613023
     40          6           0       -6.902672   -3.325366   -0.507393
     41          8           0       -7.630574   -4.250180   -0.978746
     42          6           0       -5.755067   -3.569056    0.466631
     43          6           0       -6.282041   -3.941107    1.803524
     44          8           0       -6.454239   -5.125785    2.076986
     45          8           0       -6.318648   -2.940317    2.779214
     46          6           0       -6.456725   -3.268693    4.211704
     47          6           0        0.816705   -4.282475   -2.343968
     48          6           0        1.834459   -3.140595   -2.156153
     49          6           0        2.965598   -2.877632   -2.812355
     50          6           0        3.512603   -3.767070   -4.004010
     51          6           0        3.845487   -1.627442   -2.427373
     52          6           0        4.886188   -1.886054   -1.340141
     53          6           0        6.354797   -2.085391   -1.889587
     54          6           0        7.223319   -0.761996   -1.896300
     55          6           0        7.066520   -0.091699   -3.264867
     56          6           0        8.719778   -1.022981   -1.531974
     57          6           0        9.420594    0.189586   -0.825926
     58          6           0        9.492389    0.132200    0.716441
     59          6           0       10.917716   -0.226008    1.231535
     60          6           0       10.965809   -1.182304    2.410186
     61          6           0       11.782126    1.086507    1.447704
     62          6           0       13.330298    0.778219    1.504236
     63          6           0       13.912607    1.134442    0.096999
     64          6           0       15.455184    1.203189    0.125378
     65          6           0       15.970669    2.592238   -0.159751
     66          6           0       16.070539    0.020002   -0.725843
     67          1           0       -1.360669    0.764451    3.749408
     68          1           0       -3.133345    5.412280   -0.334478
     69          1           0       -7.496310    1.590362   -2.881920
     70          1           0       -3.773521   -3.114197    2.845658
     71          1           0       -1.211246   -1.769263    3.175218
     72          1           0       -3.358979   -0.777724    4.949585
     73          1           0       -1.908853   -1.810212    5.318484
     74          1           0       -3.349980   -2.600698    4.890668
     75          1           0       -2.240015   -4.667381    2.125641
     76          1           0       -1.116484   -3.516605    1.791162
     77          1           0       -2.478985   -2.969149   -0.454297
     78          1           0       -2.948832   -4.648157   -0.045862
     79          1           0       -0.614679    4.344037    4.629485
     80          1           0        0.483960    3.236868    3.738544
     81          1           0       -0.845112    2.562655    4.619560
     82          1           0       -1.684333    8.049668    1.432291
     83          1           0       -3.155487    7.136869    1.206643
     84          1           0       -1.744402    6.889425    0.180121
     85          1           0       -4.006898    4.717668   -2.934899
     86          1           0       -6.919456    4.337950   -2.379630
     87          1           0       -5.746972    6.396507   -1.112646
     88          1           0       -5.900466    6.616490   -2.865272
     89          1           0       -4.402255    6.919138   -2.116529
     90          1           0       -5.848335    2.434655   -4.433637
     91          1           0       -5.420137    4.142896   -4.792024
     92          1           0       -8.071252    3.017427   -5.055763
     93          1           0       -7.355865    4.276927   -5.959383
     94          1           0       -8.064948    4.585866   -4.327957
     95          1           0       -8.409048   -0.881253   -3.648675
     96          1           0       -9.510659   -0.411573   -2.347144
     97          1           0       -9.014421   -2.112804   -2.534017
     98          1           0       -5.156222   -4.330479   -0.034006
     99          1           0       -7.516809   -3.144311    4.431580
    100          1           0       -5.902474   -2.456413    4.681465
    101          1           0       -6.086779   -4.240868    4.537490
    102          1           0        0.584303   -4.331419   -3.407426
    103          1           0        1.174775   -5.271768   -2.060406
    104          1           0        1.594131   -2.411485   -1.382426
    105          1           0        3.081229   -3.359586   -4.919168
    106          1           0        3.249591   -4.815023   -3.860329
    107          1           0        4.594439   -3.653550   -4.070228
    108          1           0        3.098084   -0.912532   -2.082958
    109          1           0        4.259476   -1.211307   -3.345853
    110          1           0        4.651214   -2.822648   -0.835396
    111          1           0        4.795785   -1.149785   -0.541977
    112          1           0        6.229879   -2.411609   -2.922189
    113          1           0        6.941190   -2.824405   -1.343715
    114          1           0        6.756547   -0.034975   -1.231770
    115          1           0        7.079252   -0.740045   -4.140063
    116          1           0        7.907616    0.584164   -3.417838
    117          1           0        6.168605    0.518953   -3.164758
    118          1           0        9.321681   -1.054551   -2.440576
    119          1           0        8.882644   -1.954575   -0.989376
    120          1           0        8.729600    1.013951   -1.003001
    121          1           0       10.415280    0.391787   -1.223231
    122          1           0        8.846028   -0.654032    1.107224
    123          1           0        9.250553    1.058841    1.237484
    124          1           0       11.479283   -0.843064    0.529391
    125          1           0       11.333742   -2.172081    2.143052
    126          1           0        9.961964   -1.297117    2.820158
    127          1           0       11.726143   -0.802088    3.092682
    128          1           0       11.583983    1.456701    2.453098
    129          1           0       11.492941    1.901325    0.784234
    130          1           0       13.453658   -0.288794    1.690082
    131          1           0       13.801373    1.347965    2.305100
    132          1           0       13.541328    2.005383   -0.442626
    133          1           0       13.578801    0.261943   -0.464401
    134          1           0       15.709505    0.945668    1.153947
    135          1           0       15.225678    3.320934   -0.481552
    136          1           0       16.746139    2.435969   -0.908819
    137          1           0       16.294713    2.946462    0.818159
    138          1           0       16.933806   -0.310920   -0.148927
    139          1           0       16.400846    0.321216   -1.719845
    140          1           0       15.316482   -0.765522   -0.764314
 ---------------------------------------------------------------------

 SCF Done:  E(RCAM-B3LYP) =  -3007.13048381     A.U. after   19 cycles

 Excitation energies and oscillator strengths:

 Excited State   1:      Singlet-A      1.6672 eV  743.66 nm  f=0.3773  <S**2>=0.000
     245 -> 248        0.18070
     246 -> 247        0.68571
     245 <- 248        0.10986
 This state for optimization and/or second-order correction.
 Total Energy, E(TD-HF/TD-DFT) =  -3007.06921498
 Copying the excited state density for this state as the 1-particle RhoCI density.

 Excited State   2:      Singlet-A      2.2173 eV  559.17 nm  f=0.0937  <S**2>=0.000
     245 -> 247        0.63264
     246 -> 248       -0.30305

 Excited State   3:      Singlet-A      3.3142 eV  374.09 nm  f=0.0089  <S**2>=0.000
     240 -> 247        0.13426
     240 -> 249        0.11434
     241 -> 247        0.46473
     241 -> 249        0.30857
     241 -> 251       -0.14067
     243 -> 247       -0.26809
     246 -> 248        0.12866

 Excited State   4:      Singlet-A      3.3701 eV  367.89 nm  f=0.0191  <S**2>=0.000
     242 -> 247        0.50414
     243 -> 247       -0.41492
     246 -> 248       -0.16990

 Excited State   5:      Singlet-A      3.4322 eV  361.23 nm  f=0.2664  <S**2>=0.000
     240 -> 247       -0.16580
     241 -> 247       -0.18850
     241 -> 249       -0.12060
     242 -> 247       -0.15116
     243 -> 247       -0.33939
     245 -> 247        0.19679
     246 -> 248        0.47149

 The electronic state is 1-A.
 Alpha  occ. eigenvalues --  -46.89569 -19.25423 -19.23813 -19.19647 -19.19318
 Alpha  occ. eigenvalues --  -19.19094 -19.18632 -14.43413 -14.42065 -14.40064
 Alpha  occ. eigenvalues --  -14.39617 -10.39963 -10.39805 -10.35817 -10.34717
 Alpha  occ. eigenvalues --  -10.33029 -10.32357 -10.32018 -10.31805 -10.31442
 Alpha  occ. eigenvalues --  -10.31206 -10.30841 -10.30523 -10.29854 -10.29479
 Alpha  occ. eigenvalues --  -10.29346 -10.29313 -10.29050 -10.28882 -10.28693
 Alpha  occ. eigenvalues --  -10.28632 -10.28529 -10.28279 -10.28158 -10.27978
 Alpha  occ. eigenvalues --  -10.27976 -10.27867 -10.27621 -10.27223 -10.27073
 Alpha  occ. eigenvalues --  -10.26892 -10.26843 -10.26740 -10.26570 -10.26343
 Alpha  occ. eigenvalues --  -10.26193 -10.25969 -10.25925 -10.25700 -10.25688
 Alpha  occ. eigenvalues --  -10.25255 -10.25250 -10.25139 -10.25135 -10.25097
 Alpha  occ. eigenvalues --  -10.24945 -10.24918 -10.24851 -10.24756 -10.24599
 Alpha  occ. eigenvalues --  -10.24503 -10.24323 -10.24319 -10.24059 -10.24017
 Alpha  occ. eigenvalues --  -10.23997  -3.18134  -1.92981  -1.92605  -1.92443
 Alpha  occ. eigenvalues --   -1.15592  -1.13407  -1.10053  -1.07664  -1.07136
 Alpha  occ. eigenvalues --   -1.05156  -1.04694  -1.04619  -1.03808  -1.03217
 Alpha  occ. eigenvalues --   -0.93258  -0.90515  -0.89708  -0.89635  -0.89049
 Alpha  occ. eigenvalues --   -0.88790  -0.88080  -0.87800  -0.87096  -0.86495
 Alpha  occ. eigenvalues --   -0.86019  -0.85566  -0.84349  -0.83850  -0.83696
 Alpha  occ. eigenvalues --   -0.83081  -0.82113  -0.81593  -0.80909  -0.80240
 Alpha  occ. eigenvalues --   -0.79353  -0.78412  -0.78232  -0.77778  -0.76814
 Alpha  occ. eigenvalues --   -0.75657  -0.75574  -0.75552  -0.74822  -0.73786
 Alpha  occ. eigenvalues --   -0.73464  -0.72832  -0.72386  -0.71160  -0.70079
 Alpha  occ. eigenvalues --   -0.69597  -0.68043  -0.67692  -0.66492  -0.66044
 Alpha  occ. eigenvalues --   -0.65973  -0.65271  -0.64880  -0.64629  -0.63898
 Alpha  occ. eigenvalues --   -0.63361  -0.62544  -0.62150  -0.62116  -0.60325
 Alpha  occ. eigenvalues --   -0.60070  -0.59193  -0.59054  -0.58763  -0.58427
 Alpha  occ. eigenvalues --   -0.58237  -0.57521  -0.56947  -0.56050  -0.55631
 Alpha  occ. eigenvalues --   -0.55279  -0.54575  -0.53847  -0.53709  -0.53637
 Alpha  occ. eigenvalues --   -0.53242  -0.53192  -0.53044  -0.52789  -0.52677
 Alpha  occ. eigenvalues --   -0.52564  -0.52368  -0.52243  -0.52202  -0.51540
 Alpha  occ. eigenvalues --   -0.51495  -0.51417  -0.51085  -0.50925  -0.50683
 Alpha  occ. eigenvalues --   -0.50514  -0.50395  -0.50317  -0.50142  -0.49969
 Alpha  occ. eigenvalues --   -0.49606  -0.49461  -0.49220  -0.48928  -0.48798
 Alpha  occ. eigenvalues --   -0.48633  -0.48516  -0.48439  -0.47989  -0.47752
 Alpha  occ. eigenvalues --   -0.47604  -0.47308  -0.47248  -0.46891  -0.46698
 Alpha  occ. eigenvalues --   -0.46584  -0.46488  -0.46323  -0.46219  -0.46071
 Alpha  occ. eigenvalues --   -0.45856  -0.45729  -0.45577  -0.45381  -0.45200
 Alpha  occ. eigenvalues --   -0.45140  -0.44704  -0.44400  -0.44248  -0.44094
 Alpha  occ. eigenvalues --   -0.43786  -0.43572  -0.43479  -0.43140  -0.43002
 Alpha  occ. eigenvalues --   -0.42886  -0.42693  -0.42615  -0.42362  -0.42193
 Alpha  occ. eigenvalues --   -0.42019  -0.41959  -0.41805  -0.41717  -0.41563
 Alpha  occ. eigenvalues --   -0.41516  -0.41209  -0.40816  -0.40478  -0.40231
 Alpha  occ. eigenvalues --   -0.40225  -0.39818  -0.39607  -0.38737  -0.38645
 Alpha  occ. eigenvalues --   -0.38246  -0.38003  -0.37573  -0.37542  -0.37293
 Alpha  occ. eigenvalues --   -0.37222  -0.37142  -0.36676  -0.36518  -0.36338
 Alpha  occ. eigenvalues --   -0.35742  -0.34852  -0.34744  -0.34493  -0.33972
 Alpha  occ. eigenvalues --   -0.33474  -0.33383  -0.33320  -0.31709  -0.31313
 Alpha  occ. eigenvalues --   -0.30960  -0.30295  -0.30074  -0.29713  -0.24584
 Alpha  occ. eigenvalues --   -0.21452
 Alpha virt. eigenvalues --   -0.09185  -0.02313  -0.00742   0.00584   0.01465
 Alpha virt. eigenvalues --    0.03964   0.04410   0.04940   0.06683   0.06919
 Alpha virt. eigenvalues --    0.07258   0.07957   0.08449   0.08970   0.08997

 Mulliken charges:
               1
     1  Mg   0.842432
     2  C   -0.052570
     3  C   -0.073011
     4  C   -0.083501
     5  C   -0.072117
     6  N   -0.297203
     7  C   -0.042894
     8  C    0.048996
     9  C   -0.084574
    10  C    0.018115
    11  C    0.065481
    12  C    0.051121
    13  C    0.039094
    14  C    0.173885
    15  O   -0.261371
    16  O   -0.375804
    17  N   -0.398758
    18  C    0.183842
    19  C   -0.161410
    20  C   -0.027838
    21  C    0.151853
    22  C    0.128351
    23  C    0.018489
    24  O   -0.208757
    25  C    0.062958
    26  N   -0.242744
    27  C    0.013613
    28  C    0.002261
    29  C   -0.055384
    30  C    0.010886
    31  C    0.045244
    32  C    0.061253
    33  C   -0.007694
    34  N   -0.321696
    35  C    0.097180
    36  C   -0.164512
    37  C    0.058781
    38  C    0.089274
    39  C    0.096438
    40  C   -0.007348
    41  O   -0.209904
    42  C    0.019221
    43  C    0.239169
    44  O   -0.213567
    45  O   -0.366954
    46  C    0.179875
    47  C    0.292303
    48  C   -0.107814
    49  C   -0.202151
    50  C    0.064414
    51  C    0.058706
    52  C    0.049157
    53  C    0.047921
    54  C   -0.130491
    55  C    0.042207
    56  C    0.064245
    57  C    0.012963
    58  C    0.080160
    59  C   -0.174074
    60  C    0.057667
    61  C    0.050262
    62  C   -0.006372
    63  C    0.021913
    64  C   -0.166168
    65  C    0.079628
    66  C    0.041342
    67  H   -0.027026
    68  H   -0.068475
    69  H   -0.026868
    70  H    0.000468
    71  H    0.027701
    72  H    0.035049
    73  H    0.018262
    74  H    0.017949
    75  H    0.022625
    76  H    0.004898
    77  H    0.061416
    78  H    0.048707
    79  H    0.043436
    80  H    0.033694
    81  H    0.000043
    82  H    0.025457
    83  H    0.037436
    84  H    0.049271
    85  H    0.006987
    86  H    0.015944
    87  H    0.020134
    88  H    0.021296
    89  H    0.012420
    90  H    0.033486
    91  H    0.003525
    92  H    0.007676
    93  H    0.016170
    94  H    0.018521
    95  H    0.031422
    96  H    0.020386
    97  H    0.037583
    98  H    0.057085
    99  H    0.045167
   100  H    0.032934
   101  H    0.055809
   102  H    0.023364
   103  H    0.061050
   104  H   -0.007581
   105  H    0.031844
   106  H    0.021290
   107  H    0.010053
   108  H   -0.002022
   109  H    0.001110
   110  H    0.001575
   111  H   -0.000889
   112  H   -0.008353
   113  H   -0.006263
   114  H   -0.003896
   115  H    0.011785
   116  H   -0.004334
   117  H    0.012371
   118  H   -0.009422
   119  H   -0.004203
   120  H   -0.005744
   121  H    0.007536
   122  H   -0.016895
   123  H   -0.003407
   124  H   -0.013946
   125  H    0.001806
   126  H    0.006351
   127  H    0.001912
   128  H   -0.015127
   129  H   -0.002718
   130  H    0.001924
   131  H    0.002637
   132  H   -0.004283
   133  H   -0.017460
   134  H   -0.004978
   135  H    0.008305
   136  H    0.006966
   137  H    0.008411
   138  H    0.007355
   139  H    0.011957
   140  H    0.007304
 Sum of Mulliken charges =  -0.00000

 Dipole moment (field-independent basis, Debye):
    X=              0.3701    Y=              6.4686    Z=              0.2333  Tot=              6.4834
 Quadrupole moment (field-independent basis, Debye-Ang):
   XX=           -414.1588   YY=           -444.3040   ZZ=           -379.6668
   XY=            -61.9948   XZ=            -10.4233   YZ=            -26.1991

 Normal termination of Gaussian 16 at Fri Apr 29 07:47:17 2022.
