 Gaussian 16, Revision A.03,
 Gaussian 16:  ES64L-G16RevA.03 25-Dec-2016

 ---------------------------------
 #p PBE1PBE/Def2SVP td=(nstates=5)
 ---------------------------------

 ----------------------------------------------------
 step_201_chromophore_2 TDDFT with PBE1PBE functional
 ----------------------------------------------------
 Symbolic Z-matrix:
 Charge =  0 Multiplicity = 1

                         Standard orientation:
 ---------------------------------------------------------------------
 Center     Atomic      Atomic             Coordinates (Angstroms)
 Number     Number       Type             X           Y           Z
 ---------------------------------------------------------------------
      1         12           0       -4.524363    1.314109    0.670492
      2          6           0       -4.971371   -2.223359    0.599048
      3          6           0       -2.027758    0.936103    2.902163
      4          6           0       -3.424690    4.386388   -0.097584
      5          6           0       -6.718969    1.477200   -2.122909
      6          7           0       -3.480904   -0.447643    1.358557
      7          6           0       -3.843704   -1.745251    1.366530
      8          6           0       -3.047570   -2.594255    2.220986
      9          6           0       -2.290239   -1.615342    3.194925
     10          6           0       -2.630465   -0.293760    2.480638
     11          6           0       -2.799007   -1.679213    4.702697
     12          6           0       -2.177078   -3.703447    1.620689
     13          6           0       -2.196893   -3.870847    0.088875
     14          6           0       -0.949561   -4.484995   -0.560989
     15          8           0       -0.268816   -5.473623   -0.199267
     16          8           0       -0.452069   -3.779235   -1.690025
     17          7           0       -3.128240    2.580561    1.448526
     18          6           0       -2.258726    2.246875    2.457990
     19          6           0       -1.553754    3.427352    2.882850
     20          6           0       -2.005358    4.530145    2.080110
     21          6           0       -2.893384    3.871929    1.086123
     22          6           0       -0.546283    3.432925    4.033961
     23          6           0       -1.574406    6.044259    2.102933
     24          8           0       -0.757105    6.417303    2.946761
     25          6           0       -2.068864    7.054157    1.206839
     26          7           0       -4.903108    2.727191   -0.979385
     27          6           0       -4.292287    3.879484   -1.052159
     28          6           0       -4.849332    4.708963   -2.243181
     29          6           0       -6.033234    3.869658   -2.809479
     30          6           0       -5.872154    2.551570   -1.925223
     31          6           0       -5.254304    6.241188   -2.072978
     32          6           0       -6.129794    3.479276   -4.298651
     33          6           0       -7.461836    3.913011   -4.937839
     34          7           0       -5.708198    0.006497   -0.477012
     35          6           0       -6.631900    0.227370   -1.447453
     36          6           0       -7.498297   -0.946697   -1.581901
     37          6           0       -6.852353   -1.973236   -0.840345
     38          6           0       -5.777103   -1.321846   -0.193403
     39          6           0       -8.688695   -1.076167   -2.613023
     40          6           0       -6.902672   -3.325366   -0.507393
     41          8           0       -7.630574   -4.250180   -0.978746
     42          6           0       -5.755067   -3.569056    0.466631
     43          6           0       -6.282041   -3.941107    1.803524
     44          8           0       -6.454239   -5.125785    2.076986
     45          8           0       -6.318648   -2.940317    2.779214
     46          6           0       -6.456725   -3.268693    4.211704
     47          6           0        0.816705   -4.282475   -2.343968
     48          6           0        1.834459   -3.140595   -2.156153
     49          6           0        2.965598   -2.877632   -2.812355
     50          6           0        3.512603   -3.767070   -4.004010
     51          6           0        3.845487   -1.627442   -2.427373
     52          6           0        4.886188   -1.886054   -1.340141
     53          6           0        6.354797   -2.085391   -1.889587
     54          6           0        7.223319   -0.761996   -1.896300
     55          6           0        7.066520   -0.091699   -3.264867
     56          6           0        8.719778   -1.022981   -1.531974
     57          6           0        9.420594    0.189586   -0.825926
     58          6           0        9.492389    0.132200    0.716441
     59          6           0       10.917716   -0.226008    1.231535
     60          6           0       10.965809   -1.182304    2.410186
     61          6           0       11.782126    1.086507    1.447704
     62          6           0       13.330298    0.778219    1.504236
     63          6           0       13.912607    1.134442    0.096999
     64          6           0       15.455184    1.203189    0.125378
     65          6           0       15.970669    2.592238   -0.159751
     66          6           0       16.070539    0.020002   -0.725843
     67          1           0       -1.360669    0.764451    3.749408
     68          1           0       -3.133345    5.412280   -0.334478
     69          1           0       -7.496310    1.590362   -2.881920
     70          1           0       -3.773521   -3.114197    2.845658
     71          1           0       -1.211246   -1.769263    3.175218
     72          1           0       -3.358979   -0.777724    4.949585
     73          1           0       -1.908853   -1.810212    5.318484
     74          1           0       -3.349980   -2.600698    4.890668
     75          1           0       -2.240015   -4.667381    2.125641
     76          1           0       -1.116484   -3.516605    1.791162
     77          1           0       -2.478985   -2.969149   -0.454297
     78          1           0       -2.948832   -4.648157   -0.045862
     79          1           0       -0.614679    4.344037    4.629485
     80          1           0        0.483960    3.236868    3.738544
     81          1           0       -0.845112    2.562655    4.619560
     82          1           0       -1.684333    8.049668    1.432291
     83          1           0       -3.155487    7.136869    1.206643
     84          1           0       -1.744402    6.889425    0.180121
     85          1           0       -4.006898    4.717668   -2.934899
     86          1           0       -6.919456    4.337950   -2.379630
     87          1           0       -5.746972    6.396507   -1.112646
     88          1           0       -5.900466    6.616490   -2.865272
     89          1           0       -4.402255    6.919138   -2.116529
     90          1           0       -5.848335    2.434655   -4.433637
     91          1           0       -5.420137    4.142896   -4.792024
     92          1           0       -8.071252    3.017427   -5.055763
     93          1           0       -7.355865    4.276927   -5.959383
     94          1           0       -8.064948    4.585866   -4.327957
     95          1           0       -8.409048   -0.881253   -3.648675
     96          1           0       -9.510659   -0.411573   -2.347144
     97          1           0       -9.014421   -2.112804   -2.534017
     98          1           0       -5.156222   -4.330479   -0.034006
     99          1           0       -7.516809   -3.144311    4.431580
    100          1           0       -5.902474   -2.456413    4.681465
    101          1           0       -6.086779   -4.240868    4.537490
    102          1           0        0.584303   -4.331419   -3.407426
    103          1           0        1.174775   -5.271768   -2.060406
    104          1           0        1.594131   -2.411485   -1.382426
    105          1           0        3.081229   -3.359586   -4.919168
    106          1           0        3.249591   -4.815023   -3.860329
    107          1           0        4.594439   -3.653550   -4.070228
    108          1           0        3.098084   -0.912532   -2.082958
    109          1           0        4.259476   -1.211307   -3.345853
    110          1           0        4.651214   -2.822648   -0.835396
    111          1           0        4.795785   -1.149785   -0.541977
    112          1           0        6.229879   -2.411609   -2.922189
    113          1           0        6.941190   -2.824405   -1.343715
    114          1           0        6.756547   -0.034975   -1.231770
    115          1           0        7.079252   -0.740045   -4.140063
    116          1           0        7.907616    0.584164   -3.417838
    117          1           0        6.168605    0.518953   -3.164758
    118          1           0        9.321681   -1.054551   -2.440576
    119          1           0        8.882644   -1.954575   -0.989376
    120          1           0        8.729600    1.013951   -1.003001
    121          1           0       10.415280    0.391787   -1.223231
    122          1           0        8.846028   -0.654032    1.107224
    123          1           0        9.250553    1.058841    1.237484
    124          1           0       11.479283   -0.843064    0.529391
    125          1           0       11.333742   -2.172081    2.143052
    126          1           0        9.961964   -1.297117    2.820158
    127          1           0       11.726143   -0.802088    3.092682
    128          1           0       11.583983    1.456701    2.453098
    129          1           0       11.492941    1.901325    0.784234
    130          1           0       13.453658   -0.288794    1.690082
    131          1           0       13.801373    1.347965    2.305100
    132          1           0       13.541328    2.005383   -0.442626
    133          1           0       13.578801    0.261943   -0.464401
    134          1           0       15.709505    0.945668    1.153947
    135          1           0       15.225678    3.320934   -0.481552
    136          1           0       16.746139    2.435969   -0.908819
    137          1           0       16.294713    2.946462    0.818159
    138          1           0       16.933806   -0.310920   -0.148927
    139          1           0       16.400846    0.321216   -1.719845
    140          1           0       15.316482   -0.765522   -0.764314
 ---------------------------------------------------------------------

 SCF Done:  E(RPBE1PBE) =  -3005.31921184     A.U. after   15 cycles

 Excitation energies and oscillator strengths:

 Excited State   1:      Singlet-A      1.8186 eV  681.74 nm  f=0.3661  <S**2>=0.000
     245 -> 248        0.17522
     246 -> 247        0.69376
     246 <- 247       -0.11173
 This state for optimization and/or second-order correction.
 Total Energy, E(TD-HF/TD-DFT) =  -3005.25237817
 Copying the excited state density for this state as the 1-particle RhoCI density.

 Excited State   2:      Singlet-A      2.2095 eV  561.14 nm  f=0.0920  <S**2>=0.000
     245 -> 247        0.64812
     246 -> 248       -0.26922

 Excited State   3:      Singlet-A      2.8686 eV  432.22 nm  f=0.0002  <S**2>=0.000
     241 -> 247        0.32867
     241 -> 249        0.12846
     242 -> 247        0.53523
     242 -> 249        0.15968
     243 -> 247       -0.19912

 Excited State   4:      Singlet-A      2.9748 eV  416.78 nm  f=0.0029  <S**2>=0.000
     242 -> 247        0.19759
     243 -> 247        0.65222

 Excited State   5:      Singlet-A      3.1200 eV  397.38 nm  f=0.0032  <S**2>=0.000
     240 -> 247       -0.26197
     241 -> 247        0.52931
     242 -> 247       -0.29878
     243 -> 247        0.10768
     246 -> 248        0.15216

 The electronic state is 1-A.
 Alpha  occ. eigenvalues --  -46.92969 -19.26104 -19.24563 -19.19891 -19.19625
 Alpha  occ. eigenvalues --  -19.19216 -19.19012 -14.42904 -14.41564 -14.39643
 Alpha  occ. eigenvalues --  -14.39335 -10.37011 -10.36889 -10.32873 -10.31917
 Alpha  occ. eigenvalues --  -10.30268 -10.30051 -10.29619 -10.29462 -10.29017
 Alpha  occ. eigenvalues --  -10.28727 -10.28704 -10.28061 -10.27734 -10.27167
 Alpha  occ. eigenvalues --  -10.27138 -10.27133 -10.26797 -10.26575 -10.26560
 Alpha  occ. eigenvalues --  -10.26431 -10.26048 -10.25986 -10.25897 -10.25854
 Alpha  occ. eigenvalues --  -10.25570 -10.25502 -10.25111 -10.24762 -10.24693
 Alpha  occ. eigenvalues --  -10.24552 -10.24446 -10.24442 -10.23864 -10.23823
 Alpha  occ. eigenvalues --  -10.23532 -10.23390 -10.23382 -10.23349 -10.23251
 Alpha  occ. eigenvalues --  -10.23089 -10.22796 -10.22700 -10.22683 -10.22679
 Alpha  occ. eigenvalues --  -10.22643 -10.22479 -10.22425 -10.22390 -10.22187
 Alpha  occ. eigenvalues --  -10.22048 -10.21721 -10.21702 -10.21593 -10.21429
 Alpha  occ. eigenvalues --  -10.21375  -3.15111  -1.87897  -1.87500  -1.87342
 Alpha  occ. eigenvalues --   -1.10353  -1.08205  -1.04698  -1.02468  -1.01966
 Alpha  occ. eigenvalues --   -0.99779  -0.99568  -0.99231  -0.98503  -0.97891
 Alpha  occ. eigenvalues --   -0.87675  -0.84790  -0.84001  -0.83698  -0.83134
 Alpha  occ. eigenvalues --   -0.83060  -0.82205  -0.82093  -0.81212  -0.80757
 Alpha  occ. eigenvalues --   -0.80230  -0.79941  -0.78599  -0.78114  -0.77832
 Alpha  occ. eigenvalues --   -0.77276  -0.76298  -0.75869  -0.75251  -0.74415
 Alpha  occ. eigenvalues --   -0.73590  -0.72742  -0.72512  -0.72035  -0.71101
 Alpha  occ. eigenvalues --   -0.69988  -0.69668  -0.69666  -0.68950  -0.68116
 Alpha  occ. eigenvalues --   -0.67651  -0.67249  -0.66808  -0.65488  -0.64449
 Alpha  occ. eigenvalues --   -0.64119  -0.62279  -0.62094  -0.60692  -0.60488
 Alpha  occ. eigenvalues --   -0.60376  -0.59870  -0.59233  -0.59030  -0.58450
 Alpha  occ. eigenvalues --   -0.57488  -0.56723  -0.56706  -0.56302  -0.54863
 Alpha  occ. eigenvalues --   -0.54623  -0.53779  -0.53486  -0.53293  -0.53037
 Alpha  occ. eigenvalues --   -0.52678  -0.52001  -0.51472  -0.50525  -0.50302
 Alpha  occ. eigenvalues --   -0.49784  -0.49074  -0.48467  -0.48208  -0.48147
 Alpha  occ. eigenvalues --   -0.47851  -0.47630  -0.47601  -0.47211  -0.47068
 Alpha  occ. eigenvalues --   -0.47028  -0.46927  -0.46832  -0.46666  -0.46100
 Alpha  occ. eigenvalues --   -0.45998  -0.45971  -0.45741  -0.45503  -0.45284
 Alpha  occ. eigenvalues --   -0.45066  -0.44912  -0.44856  -0.44742  -0.44487
 Alpha  occ. eigenvalues --   -0.44235  -0.44106  -0.43761  -0.43583  -0.43357
 Alpha  occ. eigenvalues --   -0.43265  -0.43182  -0.43094  -0.42584  -0.42372
 Alpha  occ. eigenvalues --   -0.42257  -0.41942  -0.41873  -0.41582  -0.41361
 Alpha  occ. eigenvalues --   -0.41280  -0.41237  -0.41030  -0.40807  -0.40783
 Alpha  occ. eigenvalues --   -0.40600  -0.40495  -0.40137  -0.40087  -0.39971
 Alpha  occ. eigenvalues --   -0.39857  -0.39334  -0.39116  -0.39076  -0.38910
 Alpha  occ. eigenvalues --   -0.38530  -0.38386  -0.38117  -0.37960  -0.37846
 Alpha  occ. eigenvalues --   -0.37639  -0.37528  -0.37430  -0.37195  -0.36967
 Alpha  occ. eigenvalues --   -0.36848  -0.36762  -0.36690  -0.36564  -0.36443
 Alpha  occ. eigenvalues --   -0.36381  -0.35965  -0.35781  -0.35254  -0.35217
 Alpha  occ. eigenvalues --   -0.34981  -0.34587  -0.34549  -0.33695  -0.33446
 Alpha  occ. eigenvalues --   -0.33212  -0.32850  -0.32443  -0.32362  -0.32313
 Alpha  occ. eigenvalues --   -0.32257  -0.32037  -0.31625  -0.31307  -0.31130
 Alpha  occ. eigenvalues --   -0.30681  -0.30006  -0.29785  -0.29412  -0.29165
 Alpha  occ. eigenvalues --   -0.28714  -0.28269  -0.28180  -0.26986  -0.26420
 Alpha  occ. eigenvalues --   -0.26004  -0.25734  -0.25568  -0.24952  -0.21496
 Alpha  occ. eigenvalues --   -0.19112
 Alpha virt. eigenvalues --   -0.11675  -0.05779  -0.04944  -0.02950  -0.02106
 Alpha virt. eigenvalues --   -0.00617  -0.00201   0.00391   0.02464   0.02815
 Alpha virt. eigenvalues --    0.03845   0.04095   0.04559   0.05584   0.05760

 Mulliken charges:
               1
     1  Mg   0.985226
     2  C   -0.043560
     3  C   -0.062200
     4  C   -0.088086
     5  C   -0.064622
     6  N   -0.397673
     7  C    0.007386
     8  C   -0.013843
     9  C   -0.158536
    10  C    0.045712
    11  C    0.007206
    12  C    0.006221
    13  C   -0.048076
    14  C    0.245442
    15  O   -0.293685
    16  O   -0.404220
    17  N   -0.515287
    18  C    0.198160
    19  C   -0.186647
    20  C   -0.066154
    21  C    0.177243
    22  C    0.070324
    23  C    0.067499
    24  O   -0.243887
    25  C   -0.012622
    26  N   -0.353973
    27  C    0.062373
    28  C   -0.067891
    29  C   -0.128774
    30  C    0.051051
    31  C   -0.018860
    32  C   -0.009896
    33  C   -0.076354
    34  N   -0.445254
    35  C    0.114456
    36  C   -0.155208
    37  C    0.013401
    38  C    0.132920
    39  C    0.038659
    40  C    0.071326
    41  O   -0.253232
    42  C   -0.091963
    43  C    0.330308
    44  O   -0.248145
    45  O   -0.397990
    46  C    0.123361
    47  C    0.250356
    48  C   -0.115827
    49  C   -0.243690
    50  C   -0.002520
    51  C   -0.008399
    52  C   -0.011919
    53  C   -0.011818
    54  C   -0.213116
    55  C   -0.016730
    56  C    0.009771
    57  C   -0.053276
    58  C    0.023312
    59  C   -0.252592
    60  C   -0.001724
    61  C   -0.006232
    62  C   -0.075811
    63  C   -0.028644
    64  C   -0.253982
    65  C    0.018191
    66  C   -0.022260
    67  H    0.003836
    68  H   -0.029390
    69  H    0.007504
    70  H    0.048533
    71  H    0.062696
    72  H    0.061787
    73  H    0.045812
    74  H    0.044799
    75  H    0.052201
    76  H    0.038678
    77  H    0.094264
    78  H    0.084355
    79  H    0.070159
    80  H    0.060878
    81  H    0.027501
    82  H    0.053473
    83  H    0.064093
    84  H    0.074040
    85  H    0.045913
    86  H    0.054667
    87  H    0.048417
    88  H    0.049219
    89  H    0.039375
    90  H    0.065107
    91  H    0.039136
    92  H    0.035122
    93  H    0.043992
    94  H    0.044973
    95  H    0.058274
    96  H    0.048565
    97  H    0.065908
    98  H    0.094470
    99  H    0.067814
   100  H    0.056569
   101  H    0.075355
   102  H    0.051349
   103  H    0.085214
   104  H    0.022541
   105  H    0.059746
   106  H    0.048173
   107  H    0.039201
   108  H    0.030889
   109  H    0.034747
   110  H    0.035285
   111  H    0.030345
   112  H    0.027386
   113  H    0.025850
   114  H    0.033443
   115  H    0.037859
   116  H    0.024549
   117  H    0.040498
   118  H    0.024399
   119  H    0.026417
   120  H    0.027778
   121  H    0.039032
   122  H    0.016383
   123  H    0.028947
   124  H    0.025226
   125  H    0.029222
   126  H    0.033589
   127  H    0.029576
   128  H    0.019352
   129  H    0.028933
   130  H    0.035351
   131  H    0.034973
   132  H    0.026454
   133  H    0.016934
   134  H    0.033718
   135  H    0.034611
   136  H    0.034408
   137  H    0.035833
   138  H    0.035327
   139  H    0.038905
   140  H    0.034735
 Sum of Mulliken charges =  -0.00000

 Dipole moment (field-independent basis, Debye):
    X=              0.2088    Y=              6.3828    Z=              0.0883  Tot=              6.3868
 Quadrupole moment (field-independent basis, Debye-Ang):
   XX=           -409.1975   YY=           -441.4568   ZZ=           -375.9402
   XY=            -62.4700   XZ=             -8.7917   YZ=            -27.3305

 Normal termination of Gaussian 16 at Fri Apr 29 08:06:46 2022.
