 Gaussian 16, Revision A.03,
 Gaussian 16:  ES64L-G16RevA.03 25-Dec-2016

 --------------------------------
 #p wB97XD/Def2SVP td=(nstates=5)
 --------------------------------

 ---------------------------------------------------
 step_201_chromophore_2 TDDFT with wB97XD functional
 ---------------------------------------------------
 Symbolic Z-matrix:
 Charge =  0 Multiplicity = 1

                         Standard orientation:
 ---------------------------------------------------------------------
 Center     Atomic      Atomic             Coordinates (Angstroms)
 Number     Number       Type             X           Y           Z
 ---------------------------------------------------------------------
      1         12           0       -4.524363    1.314109    0.670492
      2          6           0       -4.971371   -2.223359    0.599048
      3          6           0       -2.027758    0.936103    2.902163
      4          6           0       -3.424690    4.386388   -0.097584
      5          6           0       -6.718969    1.477200   -2.122909
      6          7           0       -3.480904   -0.447643    1.358557
      7          6           0       -3.843704   -1.745251    1.366530
      8          6           0       -3.047570   -2.594255    2.220986
      9          6           0       -2.290239   -1.615342    3.194925
     10          6           0       -2.630465   -0.293760    2.480638
     11          6           0       -2.799007   -1.679213    4.702697
     12          6           0       -2.177078   -3.703447    1.620689
     13          6           0       -2.196893   -3.870847    0.088875
     14          6           0       -0.949561   -4.484995   -0.560989
     15          8           0       -0.268816   -5.473623   -0.199267
     16          8           0       -0.452069   -3.779235   -1.690025
     17          7           0       -3.128240    2.580561    1.448526
     18          6           0       -2.258726    2.246875    2.457990
     19          6           0       -1.553754    3.427352    2.882850
     20          6           0       -2.005358    4.530145    2.080110
     21          6           0       -2.893384    3.871929    1.086123
     22          6           0       -0.546283    3.432925    4.033961
     23          6           0       -1.574406    6.044259    2.102933
     24          8           0       -0.757105    6.417303    2.946761
     25          6           0       -2.068864    7.054157    1.206839
     26          7           0       -4.903108    2.727191   -0.979385
     27          6           0       -4.292287    3.879484   -1.052159
     28          6           0       -4.849332    4.708963   -2.243181
     29          6           0       -6.033234    3.869658   -2.809479
     30          6           0       -5.872154    2.551570   -1.925223
     31          6           0       -5.254304    6.241188   -2.072978
     32          6           0       -6.129794    3.479276   -4.298651
     33          6           0       -7.461836    3.913011   -4.937839
     34          7           0       -5.708198    0.006497   -0.477012
     35          6           0       -6.631900    0.227370   -1.447453
     36          6           0       -7.498297   -0.946697   -1.581901
     37          6           0       -6.852353   -1.973236   -0.840345
     38          6           0       -5.777103   -1.321846   -0.193403
     39          6           0       -8.688695   -1.076167   -2.613023
     40          6           0       -6.902672   -3.325366   -0.507393
     41          8           0       -7.630574   -4.250180   -0.978746
     42          6           0       -5.755067   -3.569056    0.466631
     43          6           0       -6.282041   -3.941107    1.803524
     44          8           0       -6.454239   -5.125785    2.076986
     45          8           0       -6.318648   -2.940317    2.779214
     46          6           0       -6.456725   -3.268693    4.211704
     47          6           0        0.816705   -4.282475   -2.343968
     48          6           0        1.834459   -3.140595   -2.156153
     49          6           0        2.965598   -2.877632   -2.812355
     50          6           0        3.512603   -3.767070   -4.004010
     51          6           0        3.845487   -1.627442   -2.427373
     52          6           0        4.886188   -1.886054   -1.340141
     53          6           0        6.354797   -2.085391   -1.889587
     54          6           0        7.223319   -0.761996   -1.896300
     55          6           0        7.066520   -0.091699   -3.264867
     56          6           0        8.719778   -1.022981   -1.531974
     57          6           0        9.420594    0.189586   -0.825926
     58          6           0        9.492389    0.132200    0.716441
     59          6           0       10.917716   -0.226008    1.231535
     60          6           0       10.965809   -1.182304    2.410186
     61          6           0       11.782126    1.086507    1.447704
     62          6           0       13.330298    0.778219    1.504236
     63          6           0       13.912607    1.134442    0.096999
     64          6           0       15.455184    1.203189    0.125378
     65          6           0       15.970669    2.592238   -0.159751
     66          6           0       16.070539    0.020002   -0.725843
     67          1           0       -1.360669    0.764451    3.749408
     68          1           0       -3.133345    5.412280   -0.334478
     69          1           0       -7.496310    1.590362   -2.881920
     70          1           0       -3.773521   -3.114197    2.845658
     71          1           0       -1.211246   -1.769263    3.175218
     72          1           0       -3.358979   -0.777724    4.949585
     73          1           0       -1.908853   -1.810212    5.318484
     74          1           0       -3.349980   -2.600698    4.890668
     75          1           0       -2.240015   -4.667381    2.125641
     76          1           0       -1.116484   -3.516605    1.791162
     77          1           0       -2.478985   -2.969149   -0.454297
     78          1           0       -2.948832   -4.648157   -0.045862
     79          1           0       -0.614679    4.344037    4.629485
     80          1           0        0.483960    3.236868    3.738544
     81          1           0       -0.845112    2.562655    4.619560
     82          1           0       -1.684333    8.049668    1.432291
     83          1           0       -3.155487    7.136869    1.206643
     84          1           0       -1.744402    6.889425    0.180121
     85          1           0       -4.006898    4.717668   -2.934899
     86          1           0       -6.919456    4.337950   -2.379630
     87          1           0       -5.746972    6.396507   -1.112646
     88          1           0       -5.900466    6.616490   -2.865272
     89          1           0       -4.402255    6.919138   -2.116529
     90          1           0       -5.848335    2.434655   -4.433637
     91          1           0       -5.420137    4.142896   -4.792024
     92          1           0       -8.071252    3.017427   -5.055763
     93          1           0       -7.355865    4.276927   -5.959383
     94          1           0       -8.064948    4.585866   -4.327957
     95          1           0       -8.409048   -0.881253   -3.648675
     96          1           0       -9.510659   -0.411573   -2.347144
     97          1           0       -9.014421   -2.112804   -2.534017
     98          1           0       -5.156222   -4.330479   -0.034006
     99          1           0       -7.516809   -3.144311    4.431580
    100          1           0       -5.902474   -2.456413    4.681465
    101          1           0       -6.086779   -4.240868    4.537490
    102          1           0        0.584303   -4.331419   -3.407426
    103          1           0        1.174775   -5.271768   -2.060406
    104          1           0        1.594131   -2.411485   -1.382426
    105          1           0        3.081229   -3.359586   -4.919168
    106          1           0        3.249591   -4.815023   -3.860329
    107          1           0        4.594439   -3.653550   -4.070228
    108          1           0        3.098084   -0.912532   -2.082958
    109          1           0        4.259476   -1.211307   -3.345853
    110          1           0        4.651214   -2.822648   -0.835396
    111          1           0        4.795785   -1.149785   -0.541977
    112          1           0        6.229879   -2.411609   -2.922189
    113          1           0        6.941190   -2.824405   -1.343715
    114          1           0        6.756547   -0.034975   -1.231770
    115          1           0        7.079252   -0.740045   -4.140063
    116          1           0        7.907616    0.584164   -3.417838
    117          1           0        6.168605    0.518953   -3.164758
    118          1           0        9.321681   -1.054551   -2.440576
    119          1           0        8.882644   -1.954575   -0.989376
    120          1           0        8.729600    1.013951   -1.003001
    121          1           0       10.415280    0.391787   -1.223231
    122          1           0        8.846028   -0.654032    1.107224
    123          1           0        9.250553    1.058841    1.237484
    124          1           0       11.479283   -0.843064    0.529391
    125          1           0       11.333742   -2.172081    2.143052
    126          1           0        9.961964   -1.297117    2.820158
    127          1           0       11.726143   -0.802088    3.092682
    128          1           0       11.583983    1.456701    2.453098
    129          1           0       11.492941    1.901325    0.784234
    130          1           0       13.453658   -0.288794    1.690082
    131          1           0       13.801373    1.347965    2.305100
    132          1           0       13.541328    2.005383   -0.442626
    133          1           0       13.578801    0.261943   -0.464401
    134          1           0       15.709505    0.945668    1.153947
    135          1           0       15.225678    3.320934   -0.481552
    136          1           0       16.746139    2.435969   -0.908819
    137          1           0       16.294713    2.946462    0.818159
    138          1           0       16.933806   -0.310920   -0.148927
    139          1           0       16.400846    0.321216   -1.719845
    140          1           0       15.316482   -0.765522   -0.764314
 ---------------------------------------------------------------------

 SCF Done:  E(RwB97XD) =  -3007.82943120     A.U. after   20 cycles

 Excitation energies and oscillator strengths:

 Excited State   1:      Singlet-A      1.6108 eV  769.72 nm  f=0.3759  <S**2>=0.000
     245 -> 248        0.18603
     246 -> 247        0.68348
     245 <- 248        0.11901
 This state for optimization and/or second-order correction.
 Total Energy, E(TD-HF/TD-DFT) =  -3007.77023612
 Copying the excited state density for this state as the 1-particle RhoCI density.

 Excited State   2:      Singlet-A      2.1625 eV  573.33 nm  f=0.0906  <S**2>=0.000
     245 -> 247        0.63031
     246 -> 248       -0.30576

 Excited State   3:      Singlet-A      3.3405 eV  371.15 nm  f=0.0151  <S**2>=0.000
     241 -> 247        0.43163
     241 -> 249        0.32683
     241 -> 250        0.15603
     243 -> 247       -0.31081
     246 -> 248        0.15607

 Excited State   4:      Singlet-A      3.3873 eV  366.03 nm  f=0.0392  <S**2>=0.000
     242 -> 247        0.53422
     242 -> 249       -0.11783
     243 -> 247       -0.34070
     246 -> 248       -0.21916

 Excited State   5:      Singlet-A      3.4483 eV  359.55 nm  f=0.2603  <S**2>=0.000
     240 -> 247       -0.13059
     241 -> 247       -0.25794
     241 -> 249       -0.16109
     243 -> 247       -0.34657
     245 -> 247        0.19275
     246 -> 248        0.45020

 The electronic state is 1-A.
 Alpha  occ. eigenvalues --  -46.95939 -19.30645 -19.29066 -19.24603 -19.24277
 Alpha  occ. eigenvalues --  -19.24154 -19.23708 -14.48034 -14.46639 -14.44690
 Alpha  occ. eigenvalues --  -14.44197 -10.43829 -10.43651 -10.39819 -10.38729
 Alpha  occ. eigenvalues --  -10.36785 -10.36454 -10.35917 -10.35790 -10.35456
 Alpha  occ. eigenvalues --  -10.35287 -10.34835 -10.34607 -10.33837 -10.33535
 Alpha  occ. eigenvalues --  -10.33431 -10.33305 -10.33245 -10.33053 -10.32830
 Alpha  occ. eigenvalues --  -10.32674 -10.32453 -10.32445 -10.32211 -10.32062
 Alpha  occ. eigenvalues --  -10.32021 -10.31826 -10.31528 -10.31113 -10.31082
 Alpha  occ. eigenvalues --  -10.30896 -10.30823 -10.30746 -10.30458 -10.30222
 Alpha  occ. eigenvalues --  -10.30145 -10.29788 -10.29747 -10.29666 -10.29630
 Alpha  occ. eigenvalues --  -10.29266 -10.29168 -10.29066 -10.29054 -10.29036
 Alpha  occ. eigenvalues --  -10.28915 -10.28845 -10.28768 -10.28691 -10.28540
 Alpha  occ. eigenvalues --  -10.28421 -10.28155 -10.28136 -10.27946 -10.27850
 Alpha  occ. eigenvalues --  -10.27811  -3.21946  -1.95479  -1.95083  -1.94923
 Alpha  occ. eigenvalues --   -1.17754  -1.15569  -1.12302  -1.09869  -1.09349
 Alpha  occ. eigenvalues --   -1.07159  -1.06902  -1.06628  -1.05866  -1.05273
 Alpha  occ. eigenvalues --   -0.95249  -0.92382  -0.91614  -0.91382  -0.90811
 Alpha  occ. eigenvalues --   -0.90688  -0.89866  -0.89708  -0.88874  -0.88456
 Alpha  occ. eigenvalues --   -0.87975  -0.87491  -0.86278  -0.85726  -0.85524
 Alpha  occ. eigenvalues --   -0.85015  -0.83958  -0.83499  -0.82867  -0.82073
 Alpha  occ. eigenvalues --   -0.81232  -0.80350  -0.80137  -0.79752  -0.78720
 Alpha  occ. eigenvalues --   -0.77616  -0.77368  -0.77361  -0.76635  -0.75702
 Alpha  occ. eigenvalues --   -0.75308  -0.74803  -0.74356  -0.73086  -0.72003
 Alpha  occ. eigenvalues --   -0.71596  -0.69918  -0.69691  -0.68344  -0.68020
 Alpha  occ. eigenvalues --   -0.67902  -0.67290  -0.66752  -0.66611  -0.65883
 Alpha  occ. eigenvalues --   -0.65169  -0.64368  -0.64122  -0.63960  -0.62355
 Alpha  occ. eigenvalues --   -0.62036  -0.61185  -0.60960  -0.60705  -0.60433
 Alpha  occ. eigenvalues --   -0.60154  -0.59450  -0.58930  -0.57964  -0.57619
 Alpha  occ. eigenvalues --   -0.57178  -0.56471  -0.55798  -0.55599  -0.55584
 Alpha  occ. eigenvalues --   -0.55179  -0.55064  -0.55026  -0.54666  -0.54616
 Alpha  occ. eigenvalues --   -0.54456  -0.54292  -0.54144  -0.54076  -0.53421
 Alpha  occ. eigenvalues --   -0.53379  -0.53339  -0.53001  -0.52831  -0.52590
 Alpha  occ. eigenvalues --   -0.52429  -0.52296  -0.52240  -0.52048  -0.51959
 Alpha  occ. eigenvalues --   -0.51532  -0.51374  -0.51089  -0.50832  -0.50673
 Alpha  occ. eigenvalues --   -0.50565  -0.50450  -0.50356  -0.49924  -0.49642
 Alpha  occ. eigenvalues --   -0.49542  -0.49246  -0.49151  -0.48835  -0.48606
 Alpha  occ. eigenvalues --   -0.48473  -0.48419  -0.48220  -0.48061  -0.47978
 Alpha  occ. eigenvalues --   -0.47765  -0.47700  -0.47403  -0.47287  -0.47136
 Alpha  occ. eigenvalues --   -0.47040  -0.46549  -0.46264  -0.46190  -0.46037
 Alpha  occ. eigenvalues --   -0.45727  -0.45491  -0.45332  -0.45079  -0.44910
 Alpha  occ. eigenvalues --   -0.44764  -0.44661  -0.44510  -0.44273  -0.44078
 Alpha  occ. eigenvalues --   -0.43981  -0.43924  -0.43775  -0.43679  -0.43465
 Alpha  occ. eigenvalues --   -0.43431  -0.43062  -0.42753  -0.42326  -0.42139
 Alpha  occ. eigenvalues --   -0.42067  -0.41669  -0.41509  -0.40688  -0.40476
 Alpha  occ. eigenvalues --   -0.40169  -0.39862  -0.39419  -0.39399  -0.39373
 Alpha  occ. eigenvalues --   -0.39148  -0.39044  -0.38684  -0.38353  -0.38174
 Alpha  occ. eigenvalues --   -0.37701  -0.36797  -0.36731  -0.36334  -0.35952
 Alpha  occ. eigenvalues --   -0.35623  -0.35303  -0.35153  -0.33729  -0.33490
 Alpha  occ. eigenvalues --   -0.32937  -0.32476  -0.32230  -0.31725  -0.26513
 Alpha  occ. eigenvalues --   -0.23259
 Alpha virt. eigenvalues --   -0.07538  -0.00405   0.01331   0.03518   0.03832
 Alpha virt. eigenvalues --    0.06215   0.06627   0.07192   0.09218   0.09461
 Alpha virt. eigenvalues --    0.10324   0.10762   0.11326   0.12188   0.12584

 Mulliken charges:
               1
     1  Mg   0.977784
     2  C   -0.050683
     3  C   -0.081509
     4  C   -0.093613
     5  C   -0.081352
     6  N   -0.365109
     7  C   -0.008835
     8  C    0.008828
     9  C   -0.133735
    10  C    0.037149
    11  C    0.018585
    12  C    0.013232
    13  C   -0.025658
    14  C    0.234024
    15  O   -0.290934
    16  O   -0.404164
    17  N   -0.483819
    18  C    0.195361
    19  C   -0.179368
    20  C   -0.064572
    21  C    0.175217
    22  C    0.083960
    23  C    0.065756
    24  O   -0.238704
    25  C   -0.002671
    26  N   -0.316106
    27  C    0.044062
    28  C   -0.048098
    29  C   -0.103624
    30  C    0.040825
    31  C   -0.004188
    32  C    0.008045
    33  C   -0.061152
    34  N   -0.408608
    35  C    0.105764
    36  C   -0.163984
    37  C    0.014667
    38  C    0.114608
    39  C    0.051706
    40  C    0.058728
    41  O   -0.243580
    42  C   -0.055104
    43  C    0.308305
    44  O   -0.243522
    45  O   -0.395941
    46  C    0.137798
    47  C    0.263632
    48  C   -0.127971
    49  C   -0.230674
    50  C    0.013963
    51  C    0.013761
    52  C    0.000116
    53  C    0.011876
    54  C   -0.185079
    55  C   -0.006262
    56  C    0.023867
    57  C   -0.033218
    58  C    0.038522
    59  C   -0.221594
    60  C    0.007986
    61  C    0.008769
    62  C   -0.055040
    63  C   -0.011437
    64  C   -0.226830
    65  C    0.029777
    66  C   -0.007280
    67  H   -0.001926
    68  H   -0.047240
    69  H   -0.000595
    70  H    0.023897
    71  H    0.054018
    72  H    0.055885
    73  H    0.041282
    74  H    0.037942
    75  H    0.048707
    76  H    0.029170
    77  H    0.086833
    78  H    0.074320
    79  H    0.067334
    80  H    0.057949
    81  H    0.020143
    82  H    0.053119
    83  H    0.058964
    84  H    0.070452
    85  H    0.035307
    86  H    0.040733
    87  H    0.041337
    88  H    0.043489
    89  H    0.033619
    90  H    0.057884
    91  H    0.029408
    92  H    0.028222
    93  H    0.039287
    94  H    0.038696
    95  H    0.052970
    96  H    0.042887
    97  H    0.061563
    98  H    0.087345
    99  H    0.064800
   100  H    0.050647
   101  H    0.072986
   102  H    0.046403
   103  H    0.082156
   104  H    0.018524
   105  H    0.054187
   106  H    0.043146
   107  H    0.032185
   108  H    0.023745
   109  H    0.023419
   110  H    0.026659
   111  H    0.024167
   112  H    0.009272
   113  H    0.018565
   114  H    0.019337
   115  H    0.032792
   116  H    0.017562
   117  H    0.034246
   118  H    0.015862
   119  H    0.017750
   120  H    0.017271
   121  H    0.030109
   122  H    0.005656
   123  H    0.021156
   124  H    0.008284
   125  H    0.024700
   126  H    0.028034
   127  H    0.022016
   128  H    0.009556
   129  H    0.020112
   130  H    0.024092
   131  H    0.026953
   132  H    0.016933
   133  H    0.002587
   134  H    0.020652
   135  H    0.028870
   136  H    0.028223
   137  H    0.030297
   138  H    0.029627
   139  H    0.032995
   140  H    0.027809
 Sum of Mulliken charges =  -0.00000

 Dipole moment (field-independent basis, Debye):
    X=              0.3844    Y=              6.6529    Z=              0.3241  Tot=              6.6719
 Quadrupole moment (field-independent basis, Debye-Ang):
   XX=           -410.3741   YY=           -440.4585   ZZ=           -375.3772
   XY=            -62.8196   XZ=            -10.0574   YZ=            -26.4652

 Normal termination of Gaussian 16 at Fri Apr 29 08:31:40 2022.
