 Gaussian 16, Revision A.03,
 Gaussian 16:  ES64L-G16RevA.03 25-Dec-2016

 --------------------
 #p ZINDO=(nstates=5)
 --------------------

 ----------------------------
 step_201_chromophore_2 ZINDO
 ----------------------------
 Symbolic Z-matrix:
 Charge =  0 Multiplicity = 1

                         Standard orientation:
 ---------------------------------------------------------------------
 Center     Atomic      Atomic             Coordinates (Angstroms)
 Number     Number       Type             X           Y           Z
 ---------------------------------------------------------------------
      1         12           0       -4.524363    1.314109    0.670492
      2          6           0       -4.971371   -2.223359    0.599048
      3          6           0       -2.027758    0.936103    2.902163
      4          6           0       -3.424690    4.386388   -0.097584
      5          6           0       -6.718969    1.477200   -2.122909
      6          7           0       -3.480904   -0.447643    1.358557
      7          6           0       -3.843704   -1.745251    1.366530
      8          6           0       -3.047570   -2.594255    2.220986
      9          6           0       -2.290239   -1.615342    3.194925
     10          6           0       -2.630465   -0.293760    2.480638
     11          6           0       -2.799007   -1.679213    4.702697
     12          6           0       -2.177078   -3.703447    1.620689
     13          6           0       -2.196893   -3.870847    0.088875
     14          6           0       -0.949561   -4.484995   -0.560989
     15          8           0       -0.268816   -5.473623   -0.199267
     16          8           0       -0.452069   -3.779235   -1.690025
     17          7           0       -3.128240    2.580561    1.448526
     18          6           0       -2.258726    2.246875    2.457990
     19          6           0       -1.553754    3.427352    2.882850
     20          6           0       -2.005358    4.530145    2.080110
     21          6           0       -2.893384    3.871929    1.086123
     22          6           0       -0.546283    3.432925    4.033961
     23          6           0       -1.574406    6.044259    2.102933
     24          8           0       -0.757105    6.417303    2.946761
     25          6           0       -2.068864    7.054157    1.206839
     26          7           0       -4.903108    2.727191   -0.979385
     27          6           0       -4.292287    3.879484   -1.052159
     28          6           0       -4.849332    4.708963   -2.243181
     29          6           0       -6.033234    3.869658   -2.809479
     30          6           0       -5.872154    2.551570   -1.925223
     31          6           0       -5.254304    6.241188   -2.072978
     32          6           0       -6.129794    3.479276   -4.298651
     33          6           0       -7.461836    3.913011   -4.937839
     34          7           0       -5.708198    0.006497   -0.477012
     35          6           0       -6.631900    0.227370   -1.447453
     36          6           0       -7.498297   -0.946697   -1.581901
     37          6           0       -6.852353   -1.973236   -0.840345
     38          6           0       -5.777103   -1.321846   -0.193403
     39          6           0       -8.688695   -1.076167   -2.613023
     40          6           0       -6.902672   -3.325366   -0.507393
     41          8           0       -7.630574   -4.250180   -0.978746
     42          6           0       -5.755067   -3.569056    0.466631
     43          6           0       -6.282041   -3.941107    1.803524
     44          8           0       -6.454239   -5.125785    2.076986
     45          8           0       -6.318648   -2.940317    2.779214
     46          6           0       -6.456725   -3.268693    4.211704
     47          6           0        0.816705   -4.282475   -2.343968
     48          6           0        1.834459   -3.140595   -2.156153
     49          6           0        2.965598   -2.877632   -2.812355
     50          6           0        3.512603   -3.767070   -4.004010
     51          6           0        3.845487   -1.627442   -2.427373
     52          6           0        4.886188   -1.886054   -1.340141
     53          6           0        6.354797   -2.085391   -1.889587
     54          6           0        7.223319   -0.761996   -1.896300
     55          6           0        7.066520   -0.091699   -3.264867
     56          6           0        8.719778   -1.022981   -1.531974
     57          6           0        9.420594    0.189586   -0.825926
     58          6           0        9.492389    0.132200    0.716441
     59          6           0       10.917716   -0.226008    1.231535
     60          6           0       10.965809   -1.182304    2.410186
     61          6           0       11.782126    1.086507    1.447704
     62          6           0       13.330298    0.778219    1.504236
     63          6           0       13.912607    1.134442    0.096999
     64          6           0       15.455184    1.203189    0.125378
     65          6           0       15.970669    2.592238   -0.159751
     66          6           0       16.070539    0.020002   -0.725843
     67          1           0       -1.360669    0.764451    3.749408
     68          1           0       -3.133345    5.412280   -0.334478
     69          1           0       -7.496310    1.590362   -2.881920
     70          1           0       -3.773521   -3.114197    2.845658
     71          1           0       -1.211246   -1.769263    3.175218
     72          1           0       -3.358979   -0.777724    4.949585
     73          1           0       -1.908853   -1.810212    5.318484
     74          1           0       -3.349980   -2.600698    4.890668
     75          1           0       -2.240015   -4.667381    2.125641
     76          1           0       -1.116484   -3.516605    1.791162
     77          1           0       -2.478985   -2.969149   -0.454297
     78          1           0       -2.948832   -4.648157   -0.045862
     79          1           0       -0.614679    4.344037    4.629485
     80          1           0        0.483960    3.236868    3.738544
     81          1           0       -0.845112    2.562655    4.619560
     82          1           0       -1.684333    8.049668    1.432291
     83          1           0       -3.155487    7.136869    1.206643
     84          1           0       -1.744402    6.889425    0.180121
     85          1           0       -4.006898    4.717668   -2.934899
     86          1           0       -6.919456    4.337950   -2.379630
     87          1           0       -5.746972    6.396507   -1.112646
     88          1           0       -5.900466    6.616490   -2.865272
     89          1           0       -4.402255    6.919138   -2.116529
     90          1           0       -5.848335    2.434655   -4.433637
     91          1           0       -5.420137    4.142896   -4.792024
     92          1           0       -8.071252    3.017427   -5.055763
     93          1           0       -7.355865    4.276927   -5.959383
     94          1           0       -8.064948    4.585866   -4.327957
     95          1           0       -8.409048   -0.881253   -3.648675
     96          1           0       -9.510659   -0.411573   -2.347144
     97          1           0       -9.014421   -2.112804   -2.534017
     98          1           0       -5.156222   -4.330479   -0.034006
     99          1           0       -7.516809   -3.144311    4.431580
    100          1           0       -5.902474   -2.456413    4.681465
    101          1           0       -6.086779   -4.240868    4.537490
    102          1           0        0.584303   -4.331419   -3.407426
    103          1           0        1.174775   -5.271768   -2.060406
    104          1           0        1.594131   -2.411485   -1.382426
    105          1           0        3.081229   -3.359586   -4.919168
    106          1           0        3.249591   -4.815023   -3.860329
    107          1           0        4.594439   -3.653550   -4.070228
    108          1           0        3.098084   -0.912532   -2.082958
    109          1           0        4.259476   -1.211307   -3.345853
    110          1           0        4.651214   -2.822648   -0.835396
    111          1           0        4.795785   -1.149785   -0.541977
    112          1           0        6.229879   -2.411609   -2.922189
    113          1           0        6.941190   -2.824405   -1.343715
    114          1           0        6.756547   -0.034975   -1.231770
    115          1           0        7.079252   -0.740045   -4.140063
    116          1           0        7.907616    0.584164   -3.417838
    117          1           0        6.168605    0.518953   -3.164758
    118          1           0        9.321681   -1.054551   -2.440576
    119          1           0        8.882644   -1.954575   -0.989376
    120          1           0        8.729600    1.013951   -1.003001
    121          1           0       10.415280    0.391787   -1.223231
    122          1           0        8.846028   -0.654032    1.107224
    123          1           0        9.250553    1.058841    1.237484
    124          1           0       11.479283   -0.843064    0.529391
    125          1           0       11.333742   -2.172081    2.143052
    126          1           0        9.961964   -1.297117    2.820158
    127          1           0       11.726143   -0.802088    3.092682
    128          1           0       11.583983    1.456701    2.453098
    129          1           0       11.492941    1.901325    0.784234
    130          1           0       13.453658   -0.288794    1.690082
    131          1           0       13.801373    1.347965    2.305100
    132          1           0       13.541328    2.005383   -0.442626
    133          1           0       13.578801    0.261943   -0.464401
    134          1           0       15.709505    0.945668    1.153947
    135          1           0       15.225678    3.320934   -0.481552
    136          1           0       16.746139    2.435969   -0.908819
    137          1           0       16.294713    2.946462    0.818159
    138          1           0       16.933806   -0.310920   -0.148927
    139          1           0       16.400846    0.321216   -1.719845
    140          1           0       15.316482   -0.765522   -0.764314
 ---------------------------------------------------------------------

 SCF Done:  E(RZINDO/S) =  -473.896291451     A.U. after   18 cycles

 Excitation energies and oscillator strengths:

 Excited State   1:      Singlet-A      1.2223 eV 1014.36 nm  f=0.5963  <S**2>=0.000
     175 ->178         0.19063
     176 ->177         0.66288
 This state for optimization and/or second-order correction.
 Total Energy, E(CIS/TDA) =  -473.851373145
 Copying the excited state density for this state as the 1-particle RhoCI density.

 Excited State   2:      Singlet-A      1.8660 eV  664.45 nm  f=0.0335  <S**2>=0.000
     175 ->177         0.53664
     176 ->178        -0.43484

 Excited State   3:      Singlet-A      2.8524 eV  434.67 nm  f=0.3270  <S**2>=0.000
     170 ->179         0.10275
     175 ->177         0.24743
     176 ->178         0.33119
     176 ->179         0.46487
     176 ->180        -0.13396
     176 ->181         0.13064
     176 ->183         0.10691

 Excited State   4:      Singlet-A      2.8779 eV  430.81 nm  f=0.0494  <S**2>=0.000
     170 ->177         0.34098
     170 ->178        -0.13940
     170 ->179        -0.37176
     170 ->181        -0.22529
     170 ->183        -0.11141
     170 ->185         0.15329
     170 ->186        -0.14123
     176 ->178         0.13399

 Excited State   5:      Singlet-A      2.9308 eV  423.04 nm  f=0.1312  <S**2>=0.000
     175 ->177        -0.11634
     176 ->178        -0.14685
     176 ->179         0.27596
     176 ->180         0.54083
     176 ->181         0.22918

 The electronic state is 1-A.
 Alpha  occ. eigenvalues --   -1.84816  -1.82148  -1.80852  -1.72181  -1.70359
 Alpha  occ. eigenvalues --   -1.67991  -1.64414  -1.60442  -1.60318  -1.57821
 Alpha  occ. eigenvalues --   -1.54741  -1.50266  -1.48901  -1.47351  -1.46689
 Alpha  occ. eigenvalues --   -1.44291  -1.41586  -1.39974  -1.39176  -1.37347
 Alpha  occ. eigenvalues --   -1.36216  -1.31976  -1.31034  -1.30269  -1.29096
 Alpha  occ. eigenvalues --   -1.27744  -1.26192  -1.23390  -1.19538  -1.18062
 Alpha  occ. eigenvalues --   -1.16534  -1.16158  -1.15283  -1.13756  -1.13353
 Alpha  occ. eigenvalues --   -1.12856  -1.10032  -1.09461  -1.06997  -1.05292
 Alpha  occ. eigenvalues --   -1.03866  -1.02165  -1.00418  -0.97966  -0.96830
 Alpha  occ. eigenvalues --   -0.95639  -0.94853  -0.94188  -0.93119  -0.91772
 Alpha  occ. eigenvalues --   -0.90511  -0.90117  -0.88750  -0.88013  -0.87232
 Alpha  occ. eigenvalues --   -0.85882  -0.84696  -0.83733  -0.82828  -0.80696
 Alpha  occ. eigenvalues --   -0.79771  -0.78772  -0.78603  -0.77030  -0.76210
 Alpha  occ. eigenvalues --   -0.75926  -0.74481  -0.74380  -0.74020  -0.73455
 Alpha  occ. eigenvalues --   -0.73077  -0.72335  -0.71731  -0.71421  -0.71217
 Alpha  occ. eigenvalues --   -0.70715  -0.70054  -0.68512  -0.68426  -0.68044
 Alpha  occ. eigenvalues --   -0.67338  -0.67065  -0.66516  -0.65907  -0.65586
 Alpha  occ. eigenvalues --   -0.65275  -0.65176  -0.64854  -0.64073  -0.63887
 Alpha  occ. eigenvalues --   -0.63086  -0.62802  -0.62699  -0.62551  -0.62480
 Alpha  occ. eigenvalues --   -0.61789  -0.61445  -0.61034  -0.60555  -0.60400
 Alpha  occ. eigenvalues --   -0.59722  -0.59428  -0.59363  -0.58497  -0.58435
 Alpha  occ. eigenvalues --   -0.58061  -0.57697  -0.57582  -0.57252  -0.57035
 Alpha  occ. eigenvalues --   -0.56469  -0.56225  -0.56021  -0.55611  -0.55302
 Alpha  occ. eigenvalues --   -0.54821  -0.54814  -0.54318  -0.53989  -0.53749
 Alpha  occ. eigenvalues --   -0.53304  -0.53238  -0.52795  -0.52331  -0.51965
 Alpha  occ. eigenvalues --   -0.51457  -0.51330  -0.50988  -0.50784  -0.50699
 Alpha  occ. eigenvalues --   -0.50265  -0.49985  -0.49843  -0.49798  -0.49592
 Alpha  occ. eigenvalues --   -0.49243  -0.48824  -0.48677  -0.48343  -0.48272
 Alpha  occ. eigenvalues --   -0.47933  -0.47505  -0.47096  -0.46810  -0.46501
 Alpha  occ. eigenvalues --   -0.46311  -0.46093  -0.45798  -0.45694  -0.45380
 Alpha  occ. eigenvalues --   -0.45093  -0.45072  -0.44694  -0.44395  -0.44263
 Alpha  occ. eigenvalues --   -0.43533  -0.43325  -0.43273  -0.42503  -0.42292
 Alpha  occ. eigenvalues --   -0.41943  -0.41353  -0.40994  -0.39473  -0.38714
 Alpha  occ. eigenvalues --   -0.38537  -0.37692  -0.36474  -0.35254  -0.34824
 Alpha  occ. eigenvalues --   -0.33981  -0.32985  -0.32600  -0.32479  -0.27225
 Alpha  occ. eigenvalues --   -0.22240
 Alpha virt. eigenvalues --   -0.09145  -0.02905  -0.01396   0.00121   0.00378
 Alpha virt. eigenvalues --    0.01262   0.01817   0.02088   0.03982   0.05335
 Alpha virt. eigenvalues --    0.05464   0.05976   0.06721   0.07264   0.07480

 Mulliken charges:
               1
     1  Mg   0.432725
     2  C   -0.083693
     3  C   -0.079198
     4  C   -0.087975
     5  C   -0.061518
     6  N   -0.279525
     7  C    0.148482
     8  C    0.014482
     9  C   -0.004058
    10  C    0.127645
    11  C   -0.052176
    12  C   -0.018029
    13  C    0.014369
    14  C    0.456682
    15  O   -0.524422
    16  O   -0.289612
    17  N   -0.328261
    18  C    0.128627
    19  C    0.043643
    20  C   -0.055596
    21  C    0.142163
    22  C   -0.039131
    23  C    0.339893
    24  O   -0.520675
    25  C   -0.014531
    26  N   -0.258852
    27  C    0.162491
    28  C    0.002111
    29  C   -0.009800
    30  C    0.090200
    31  C   -0.053782
    32  C   -0.022223
    33  C   -0.057425
    34  N   -0.318193
    35  C    0.089722
    36  C    0.003447
    37  C   -0.047138
    38  C    0.097944
    39  C   -0.044307
    40  C    0.334218
    41  O   -0.546640
    42  C    0.073263
    43  C    0.483592
    44  O   -0.507981
    45  O   -0.288656
    46  C    0.079902
    47  C    0.111562
    48  C   -0.077588
    49  C   -0.025751
    50  C   -0.049555
    51  C   -0.017543
    52  C   -0.026249
    53  C   -0.041631
    54  C   -0.012909
    55  C   -0.057032
    56  C   -0.034473
    57  C   -0.038992
    58  C   -0.035068
    59  C   -0.021070
    60  C   -0.058259
    61  C   -0.045038
    62  C   -0.037291
    63  C   -0.042638
    64  C   -0.021735
    65  C   -0.056838
    66  C   -0.062548
    67  H    0.028426
    68  H    0.014911
    69  H    0.031038
    70  H    0.030312
    71  H    0.040085
    72  H    0.034164
    73  H    0.019872
    74  H    0.026600
    75  H    0.038052
    76  H    0.019242
    77  H    0.047276
    78  H    0.046884
    79  H    0.044740
    80  H    0.040704
    81  H    0.017307
    82  H    0.034660
    83  H    0.034550
    84  H    0.039081
    85  H    0.026625
    86  H    0.033531
    87  H    0.021781
    88  H    0.023566
    89  H    0.015624
    90  H    0.041065
    91  H    0.012202
    92  H    0.011005
    93  H    0.021470
    94  H    0.026072
    95  H    0.030900
    96  H    0.028138
    97  H    0.033232
    98  H    0.071070
    99  H    0.043551
   100  H    0.028885
   101  H    0.057207
   102  H    0.035834
   103  H    0.072258
   104  H    0.029610
   105  H    0.029899
   106  H    0.028564
   107  H    0.023016
   108  H    0.015367
   109  H    0.023891
   110  H    0.015534
   111  H    0.022805
   112  H    0.021695
   113  H    0.021459
   114  H    0.024226
   115  H    0.025452
   116  H    0.008056
   117  H    0.017298
   118  H    0.014302
   119  H    0.025091
   120  H    0.014228
   121  H    0.027772
   122  H    0.015970
   123  H    0.022032
   124  H    0.014813
   125  H    0.014006
   126  H    0.021524
   127  H    0.019758
   128  H    0.006605
   129  H    0.025270
   130  H    0.027441
   131  H    0.020952
   132  H    0.026827
   133  H    0.011077
   134  H    0.014092
   135  H    0.022207
   136  H    0.025090
   137  H    0.018881
   138  H    0.014867
   139  H    0.024083
   140  H    0.022763
 Sum of Mulliken charges =  -0.00000

 Dipole moment (field-independent basis, Debye):
    X=              1.3864    Y=              8.8699    Z=              0.1979  Tot=              8.9798
 N-N= 4.336275102215D+03 E-N= 0.000000000000D+00  KE=-9.345596061599D+03
 Leave Link  601 at Fri Apr 29 08:44:08 2022, MaxMem=  6710886400 cpu:               0.7 elap:               0.0
 (Enter /sw/apps/gaussian-16.0/g16/l9999.exe)
 1\1\GINC-BP1-COMPUTE139\SP\RZINDO CIS\STO-3G\C55H74Mg1N4O6\OF15641\29-
 Apr-2022\0\\#p ZINDO=(nstates=5)\\step_201_chromophore_2 ZINDO\\0,1\Mg
 ,0,2.845,0.277,43.526\C,0,5.942,2.01,43.174\C,0,1.265,2.823,41.984\C,0
 ,0.264,-1.764,42.885\C,0,4.74,-2.554,44.546\N,0,3.609,1.994,42.461\C,0
 ,4.802,2.617,42.525\C,0,4.833,3.934,41.934\C,0,3.325,4.368,41.8\C,0,2.
 679,3.008,42.125\C,0,2.896,5.536,42.794\C,0,5.693,4.21,40.696\C,0,6.51
 4,3.037,40.126\C,0,6.853,3.086,38.63\O,0,7.258,4.049,37.937\O,0,6.592,

 Normal termination of Gaussian 16 at Fri Apr 29 08:44:08 2022.
