 Gaussian 16, Revision A.03,
 Gaussian 16:  ES64L-G16RevA.03 25-Dec-2016

 ------------------------------
 #p blyp/Def2SVP td=(nstates=5)
 ------------------------------

 --------------------------------------------------
 step_351_chromophore_19 TDDFT with blyp functional
 --------------------------------------------------
 Symbolic Z-matrix:
 Charge =  0 Multiplicity = 1

                         Standard orientation:
 ---------------------------------------------------------------------
 Center     Atomic      Atomic             Coordinates (Angstroms)
 Number     Number       Type             X           Y           Z
 ---------------------------------------------------------------------
      1         12           0       -5.851239    0.565009   -0.281890
      2          6           0       -3.731252   -2.296131   -0.366497
      3          6           0       -3.065706    2.552949    0.042629
      4          6           0       -7.988528    3.095481    0.405481
      5          6           0       -8.624824   -1.782857   -0.210326
      6          7           0       -3.664998    0.149453    0.018809
      7          6           0       -3.062121   -1.087431   -0.139576
      8          6           0       -1.501511   -0.858311   -0.237007
      9          6           0       -1.307706    0.628600   -0.035147
     10          6           0       -2.769282    1.206328    0.031178
     11          6           0       -0.522573    1.074284    1.198189
     12          6           0       -0.872044   -1.388988   -1.612589
     13          6           0        0.255425   -2.391010   -1.384950
     14          6           0        1.245911   -2.068269   -0.228922
     15          8           0        1.122712   -2.489701    0.907215
     16          8           0        2.211401   -1.158725   -0.648325
     17          7           0       -5.549143    2.591946    0.134732
     18          6           0       -4.361778    3.186924    0.121066
     19          6           0       -4.566171    4.613726    0.290500
     20          6           0       -5.943585    4.853314    0.430185
     21          6           0       -6.593772    3.490608    0.332801
     22          6           0       -3.508011    5.665154    0.293734
     23          6           0       -6.704569    6.215180    0.672633
     24          8           0       -7.883076    6.187166    0.917169
     25          6           0       -5.967304    7.566807    0.676831
     26          7           0       -8.019723    0.543371    0.183432
     27          6           0       -8.574584    1.829411    0.313268
     28          6           0      -10.102716    1.593875    0.441876
     29          6           0      -10.375882    0.130278    0.003916
     30          6           0       -8.922408   -0.454212    0.058312
     31          6           0      -10.607578    1.938555    1.912840
     32          6           0      -11.003266    0.030473   -1.487824
     33          6           0      -12.056916   -1.049941   -1.763259
     34          7           0       -6.188162   -1.537770   -0.365879
     35          6           0       -7.304262   -2.323027   -0.366242
     36          6           0       -6.906578   -3.683691   -0.654268
     37          6           0       -5.530992   -3.715991   -0.612560
     38          6           0       -5.123389   -2.397844   -0.372034
     39          6           0       -7.783305   -4.906815   -0.723325
     40          6           0       -4.427444   -4.624202   -0.544821
     41          8           0       -4.320129   -5.864008   -0.540323
     42          6           0       -3.185339   -3.782761   -0.413141
     43          6           0       -2.441647   -4.154737    0.898969
     44          8           0       -2.769437   -3.691560    1.980971
     45          8           0       -1.374078   -5.092701    0.672827
     46          6           0       -0.534449   -5.378599    1.842794
     47          6           0        3.327429   -0.893716    0.204026
     48          6           0        4.731038   -0.844756   -0.491820
     49          6           0        5.907335   -0.726152    0.093388
     50          6           0        6.133502   -0.644707    1.637442
     51          6           0        7.253834   -0.804975   -0.647908
     52          6           0        7.572400    0.514380   -1.435653
     53          6           0        8.816636    1.168369   -0.923306
     54          6           0        9.658300    1.906989   -2.035877
     55          6           0        8.770248    2.864225   -2.852512
     56          6           0       10.490731    0.830484   -2.795040
     57          6           0       12.019874    1.270029   -2.714647
     58          6           0       12.946671    0.323717   -1.885705
     59          6           0       13.899242    1.064241   -0.813911
     60          6           0       14.850563    2.016268   -1.476995
     61          6           0       14.561483   -0.037883    0.078109
     62          6           0       14.412984    0.278080    1.546821
     63          6           0       13.532697   -0.763802    2.320514
     64          6           0       12.181551   -0.113057    2.743507
     65          6           0       12.281304    0.726480    4.075723
     66          6           0       11.031141   -1.077209    2.715322
     67          1           0       -2.164820    3.169186   -0.017716
     68          1           0       -8.748111    3.879449    0.421443
     69          1           0       -9.398806   -2.544308   -0.332849
     70          1           0       -1.100613   -1.434511    0.596900
     71          1           0       -0.830479    1.042206   -0.923421
     72          1           0        0.195953    1.831549    0.882963
     73          1           0       -0.033427    0.204565    1.635032
     74          1           0       -1.019311    1.571419    2.031643
     75          1           0       -0.488624   -0.557177   -2.204112
     76          1           0       -1.667189   -1.770521   -2.253671
     77          1           0        0.810016   -2.338119   -2.322392
     78          1           0       -0.247152   -3.351254   -1.266981
     79          1           0       -3.407612    6.282125    1.186557
     80          1           0       -3.676277    6.355379   -0.533754
     81          1           0       -2.613374    5.105239    0.022302
     82          1           0       -5.510916    7.745128   -0.296465
     83          1           0       -5.170157    7.571437    1.420259
     84          1           0       -6.765431    8.284925    0.865591
     85          1           0      -10.587599    2.300957   -0.231291
     86          1           0      -11.001563   -0.352408    0.755239
     87          1           0       -9.906454    1.508326    2.629025
     88          1           0      -11.544000    1.432584    2.148877
     89          1           0      -10.787443    3.009163    2.010173
     90          1           0      -10.168761   -0.144778   -2.167475
     91          1           0      -11.515059    0.968635   -1.701406
     92          1           0      -11.557524   -1.647742   -2.525957
     93          1           0      -12.968319   -0.590316   -2.147596
     94          1           0      -12.281191   -1.534297   -0.813059
     95          1           0       -7.220160   -5.834548   -0.622163
     96          1           0       -8.349876   -4.884263   -1.654334
     97          1           0       -8.472329   -4.959614    0.120161
     98          1           0       -2.513913   -3.964397   -1.252667
     99          1           0       -0.820075   -5.215611    2.882670
    100          1           0        0.450782   -4.944611    1.670231
    101          1           0       -0.309635   -6.433556    2.002335
    102          1           0        3.511246   -1.713129    0.897828
    103          1           0        3.145783    0.046153    0.725421
    104          1           0        4.717592   -1.058941   -1.559895
    105          1           0        6.685181   -1.518631    1.982231
    106          1           0        5.178052   -0.576578    2.158667
    107          1           0        6.661848    0.261595    1.933268
    108          1           0        7.349474   -1.524868   -1.460073
    109          1           0        8.058766   -0.985608    0.064168
    110          1           0        6.830831    1.280745   -1.211013
    111          1           0        7.597520    0.267024   -2.497871
    112          1           0        9.435625    0.429849   -0.413823
    113          1           0        8.574799    1.909175   -0.161679
    114          1           0       10.304120    2.566284   -1.455293
    115          1           0        7.750908    2.492940   -2.960216
    116          1           0        9.260199    3.122400   -3.791415
    117          1           0        8.800929    3.801805   -2.298101
    118          1           0       10.099980    0.971832   -3.802905
    119          1           0       10.341646   -0.167530   -2.383556
    120          1           0       12.120951    2.288053   -2.337874
    121          1           0       12.307849    1.259388   -3.766482
    122          1           0       13.503892   -0.244513   -2.629687
    123          1           0       12.240513   -0.368633   -1.427014
    124          1           0       13.150886    1.562200   -0.197560
    125          1           0       15.513626    1.332830   -2.007316
    126          1           0       15.289600    2.604418   -0.671583
    127          1           0       14.325515    2.670521   -2.173784
    128          1           0       15.616850   -0.230718   -0.113811
    129          1           0       14.157838   -1.037320   -0.080745
    130          1           0       13.899517    1.225198    1.710820
    131          1           0       15.416596    0.271289    1.969729
    132          1           0       14.031200   -1.087409    3.235267
    133          1           0       13.270964   -1.609774    1.685782
    134          1           0       11.872368    0.690162    2.074587
    135          1           0       11.328553    1.227420    4.252567
    136          1           0       13.017169    1.517921    3.934281
    137          1           0       12.645373    0.106675    4.895271
    138          1           0       11.061465   -1.658139    3.637280
    139          1           0       11.063635   -1.754313    1.862466
    140          1           0       10.067674   -0.567691    2.699559
 ---------------------------------------------------------------------

 SCF Done:  E(RB-LYP) =  -3007.38809171     A.U. after   21 cycles

 Excitation energies and oscillator strengths:

 Excited State   1:      Singlet-A      1.8300 eV  677.53 nm  f=0.3298  <S**2>=0.000
     245 -> 248       -0.18689
     246 -> 247        0.69230
     246 <- 247       -0.15476
 This state for optimization and/or second-order correction.
 Total Energy, E(TD-HF/TD-DFT) =  -3007.32084219
 Copying the excited state density for this state as the 1-particle RhoCI density.

 Excited State   2:      Singlet-A      1.9658 eV  630.70 nm  f=0.0057  <S**2>=0.000
     244 -> 247        0.67271
     245 -> 247        0.20629

 Excited State   3:      Singlet-A      2.0800 eV  596.08 nm  f=0.0566  <S**2>=0.000
     243 -> 247        0.28050
     244 -> 247       -0.20079
     245 -> 247        0.56283
     246 -> 248        0.22504

 Excited State   4:      Singlet-A      2.1278 eV  582.68 nm  f=0.0136  <S**2>=0.000
     243 -> 247        0.64783
     245 -> 247       -0.24104
     246 -> 248       -0.11068

 Excited State   5:      Singlet-A      2.5099 eV  493.98 nm  f=0.0001  <S**2>=0.000
     241 -> 247        0.70693

 The electronic state is 1-A.
 Alpha  occ. eigenvalues --  -46.28003 -18.83345 -18.81857 -18.78565 -18.77121
 Alpha  occ. eigenvalues --  -18.76159 -18.75341 -14.03214 -14.02677 -14.01559
 Alpha  occ. eigenvalues --  -14.00794 -10.05698 -10.04252 -10.00473  -9.99282
 Alpha  occ. eigenvalues --   -9.98832  -9.96776  -9.96564  -9.96365  -9.96358
 Alpha  occ. eigenvalues --   -9.96303  -9.96058  -9.95832  -9.95385  -9.94612
 Alpha  occ. eigenvalues --   -9.94341  -9.94081  -9.93896  -9.93735  -9.93682
 Alpha  occ. eigenvalues --   -9.93605  -9.93560  -9.93299  -9.93187  -9.93147
 Alpha  occ. eigenvalues --   -9.93090  -9.93019  -9.93015  -9.92805  -9.92786
 Alpha  occ. eigenvalues --   -9.92703  -9.92646  -9.92548  -9.92483  -9.92290
 Alpha  occ. eigenvalues --   -9.92289  -9.92225  -9.91855  -9.91853  -9.91796
 Alpha  occ. eigenvalues --   -9.91729  -9.91710  -9.91577  -9.91348  -9.91344
 Alpha  occ. eigenvalues --   -9.91258  -9.91215  -9.91212  -9.91161  -9.91146
 Alpha  occ. eigenvalues --   -9.91117  -9.90898  -9.90839  -9.90814  -9.90811
 Alpha  occ. eigenvalues --   -9.90522  -2.92387  -1.72804  -1.72284  -1.72091
 Alpha  occ. eigenvalues --   -0.98804  -0.95518  -0.92899  -0.91710  -0.90138
 Alpha  occ. eigenvalues --   -0.89189  -0.86218  -0.85654  -0.84356  -0.83986
 Alpha  occ. eigenvalues --   -0.75390  -0.73742  -0.73025  -0.72822  -0.71971
 Alpha  occ. eigenvalues --   -0.71412  -0.70966  -0.70652  -0.70608  -0.70170
 Alpha  occ. eigenvalues --   -0.69523  -0.69139  -0.68149  -0.66875  -0.66803
 Alpha  occ. eigenvalues --   -0.66487  -0.65433  -0.65122  -0.64499  -0.64193
 Alpha  occ. eigenvalues --   -0.64093  -0.62205  -0.61832  -0.61203  -0.60592
 Alpha  occ. eigenvalues --   -0.60493  -0.60374  -0.59693  -0.59535  -0.59222
 Alpha  occ. eigenvalues --   -0.58691  -0.57644  -0.56369  -0.55603  -0.54101
 Alpha  occ. eigenvalues --   -0.54019  -0.53106  -0.52772  -0.52260  -0.51178
 Alpha  occ. eigenvalues --   -0.50781  -0.50713  -0.50644  -0.50587  -0.50165
 Alpha  occ. eigenvalues --   -0.49647  -0.48555  -0.48256  -0.47675  -0.46528
 Alpha  occ. eigenvalues --   -0.45983  -0.45962  -0.45728  -0.44926  -0.44297
 Alpha  occ. eigenvalues --   -0.43851  -0.43503  -0.43048  -0.42545  -0.42321
 Alpha  occ. eigenvalues --   -0.41793  -0.41699  -0.41476  -0.41392  -0.40955
 Alpha  occ. eigenvalues --   -0.40611  -0.40463  -0.40296  -0.40165  -0.40014
 Alpha  occ. eigenvalues --   -0.39719  -0.39679  -0.39578  -0.39267  -0.39162
 Alpha  occ. eigenvalues --   -0.38948  -0.38773  -0.38556  -0.38290  -0.38164
 Alpha  occ. eigenvalues --   -0.38027  -0.37931  -0.37876  -0.37578  -0.37327
 Alpha  occ. eigenvalues --   -0.37163  -0.37078  -0.37017  -0.36874  -0.36783
 Alpha  occ. eigenvalues --   -0.36673  -0.36261  -0.35993  -0.35940  -0.35436
 Alpha  occ. eigenvalues --   -0.35357  -0.35259  -0.34919  -0.34746  -0.34568
 Alpha  occ. eigenvalues --   -0.34404  -0.34327  -0.33998  -0.33974  -0.33619
 Alpha  occ. eigenvalues --   -0.33485  -0.33137  -0.33032  -0.32980  -0.32848
 Alpha  occ. eigenvalues --   -0.32743  -0.32559  -0.32497  -0.32471  -0.32155
 Alpha  occ. eigenvalues --   -0.32026  -0.31861  -0.31747  -0.31675  -0.31604
 Alpha  occ. eigenvalues --   -0.31376  -0.31293  -0.30962  -0.30881  -0.30865
 Alpha  occ. eigenvalues --   -0.30632  -0.30296  -0.30041  -0.29947  -0.29785
 Alpha  occ. eigenvalues --   -0.29278  -0.29160  -0.28956  -0.28795  -0.28768
 Alpha  occ. eigenvalues --   -0.28659  -0.28532  -0.28238  -0.27826  -0.27783
 Alpha  occ. eigenvalues --   -0.27530  -0.27461  -0.27180  -0.27028  -0.26907
 Alpha  occ. eigenvalues --   -0.26185  -0.26089  -0.25949  -0.25699  -0.24782
 Alpha  occ. eigenvalues --   -0.24369  -0.24334  -0.24024  -0.23554  -0.23391
 Alpha  occ. eigenvalues --   -0.23180  -0.22463  -0.22223  -0.21873  -0.20780
 Alpha  occ. eigenvalues --   -0.20668  -0.20477  -0.19174  -0.18583  -0.17355
 Alpha  occ. eigenvalues --   -0.15712
 Alpha virt. eigenvalues --   -0.11445  -0.06677  -0.06066  -0.04529  -0.04352
 Alpha virt. eigenvalues --   -0.03281  -0.02807  -0.01652  -0.00878   0.00189
 Alpha virt. eigenvalues --    0.00976   0.01662   0.02429   0.02641   0.02858

 Mulliken charges:
               1
     1  Mg   0.679408
     2  C   -0.061822
     3  C   -0.046213
     4  C   -0.007141
     5  C   -0.054474
     6  N   -0.230661
     7  C   -0.058348
     8  C    0.007119
     9  C    0.013365
    10  C   -0.004194
    11  C    0.111792
    12  C    0.086153
    13  C    0.145547
    14  C    0.108263
    15  O   -0.176035
    16  O   -0.271621
    17  N   -0.275764
    18  C    0.145540
    19  C   -0.164286
    20  C    0.031009
    21  C    0.078011
    22  C    0.183259
    23  C   -0.075225
    24  O   -0.141327
    25  C    0.126936
    26  N   -0.225349
    27  C    0.034547
    28  C   -0.015158
    29  C    0.043856
    30  C    0.036639
    31  C    0.113667
    32  C    0.051797
    33  C    0.077281
    34  N   -0.243277
    35  C    0.079006
    36  C   -0.188090
    37  C    0.098184
    38  C    0.126862
    39  C    0.160261
    40  C   -0.044486
    41  O   -0.152256
    42  C    0.101753
    43  C    0.158753
    44  O   -0.166040
    45  O   -0.291278
    46  C    0.215648
    47  C    0.275009
    48  C   -0.094479
    49  C   -0.127440
    50  C    0.110125
    51  C    0.153692
    52  C    0.050701
    53  C    0.037565
    54  C   -0.097005
    55  C    0.115563
    56  C    0.130031
    57  C    0.039499
    58  C    0.059391
    59  C   -0.066750
    60  C    0.150383
    61  C    0.125180
    62  C    0.063692
    63  C    0.114174
    64  C   -0.110167
    65  C    0.078540
    66  C    0.100917
    67  H   -0.064462
    68  H   -0.036289
    69  H   -0.063013
    70  H    0.006218
    71  H   -0.024173
    72  H   -0.016766
    73  H    0.001528
    74  H   -0.003946
    75  H   -0.022705
    76  H   -0.014824
    77  H   -0.012884
    78  H    0.010919
    79  H    0.009484
    80  H   -0.010666
    81  H   -0.030285
    82  H    0.004904
    83  H    0.010715
    84  H   -0.000289
    85  H   -0.031272
    86  H   -0.032225
    87  H   -0.003902
    88  H   -0.018738
    89  H    0.009185
    90  H   -0.010399
    91  H   -0.016263
    92  H    0.000917
    93  H   -0.006427
    94  H   -0.004081
    95  H    0.004660
    96  H   -0.003312
    97  H   -0.003126
    98  H   -0.003828
    99  H    0.012149
   100  H    0.013666
   101  H   -0.010497
   102  H    0.017933
   103  H    0.015262
   104  H   -0.041614
   105  H    0.015835
   106  H   -0.018965
   107  H   -0.000930
   108  H   -0.027449
   109  H   -0.032866
   110  H   -0.014730
   111  H   -0.013951
   112  H   -0.033419
   113  H   -0.043284
   114  H   -0.041810
   115  H   -0.000040
   116  H   -0.022044
   117  H   -0.024492
   118  H   -0.041479
   119  H   -0.020328
   120  H   -0.014997
   121  H   -0.035128
   122  H   -0.034582
   123  H   -0.035774
   124  H   -0.034743
   125  H   -0.010309
   126  H   -0.010704
   127  H   -0.013664
   128  H   -0.047263
   129  H   -0.044743
   130  H   -0.014021
   131  H   -0.039857
   132  H   -0.033319
   133  H   -0.035757
   134  H   -0.035086
   135  H   -0.011734
   136  H   -0.021880
   137  H   -0.011032
   138  H   -0.023660
   139  H   -0.013052
   140  H   -0.020537
 Sum of Mulliken charges =  -0.00000

 Dipole moment (field-independent basis, Debye):
    X=              3.8492    Y=              4.0619    Z=             -3.0546  Tot=              6.3755
 Quadrupole moment (field-independent basis, Debye-Ang):
   XX=           -373.6668   YY=           -431.3911   ZZ=           -406.0316
   XY=             -0.6920   XZ=             18.5526   YZ=             -2.1435

 Normal termination of Gaussian 16 at Wed May  4 20:31:58 2022.
