 Gaussian 16, Revision A.03,
 Gaussian 16:  ES64L-G16RevA.03 25-Dec-2016

 -----------------------------------
 #p cam-b3lyp/Def2SVP td=(nstates=5)
 -----------------------------------

 -------------------------------------------------------
 step_351_chromophore_19 TDDFT with cam-b3lyp functional
 -------------------------------------------------------
 Symbolic Z-matrix:
 Charge =  0 Multiplicity = 1

                         Standard orientation:
 ---------------------------------------------------------------------
 Center     Atomic      Atomic             Coordinates (Angstroms)
 Number     Number       Type             X           Y           Z
 ---------------------------------------------------------------------
      1         12           0       -5.851239    0.565009   -0.281890
      2          6           0       -3.731252   -2.296131   -0.366497
      3          6           0       -3.065706    2.552949    0.042629
      4          6           0       -7.988528    3.095481    0.405481
      5          6           0       -8.624824   -1.782857   -0.210326
      6          7           0       -3.664998    0.149453    0.018809
      7          6           0       -3.062121   -1.087431   -0.139576
      8          6           0       -1.501511   -0.858311   -0.237007
      9          6           0       -1.307706    0.628600   -0.035147
     10          6           0       -2.769282    1.206328    0.031178
     11          6           0       -0.522573    1.074284    1.198189
     12          6           0       -0.872044   -1.388988   -1.612589
     13          6           0        0.255425   -2.391010   -1.384950
     14          6           0        1.245911   -2.068269   -0.228922
     15          8           0        1.122712   -2.489701    0.907215
     16          8           0        2.211401   -1.158725   -0.648325
     17          7           0       -5.549143    2.591946    0.134732
     18          6           0       -4.361778    3.186924    0.121066
     19          6           0       -4.566171    4.613726    0.290500
     20          6           0       -5.943585    4.853314    0.430185
     21          6           0       -6.593772    3.490608    0.332801
     22          6           0       -3.508011    5.665154    0.293734
     23          6           0       -6.704569    6.215180    0.672633
     24          8           0       -7.883076    6.187166    0.917169
     25          6           0       -5.967304    7.566807    0.676831
     26          7           0       -8.019723    0.543371    0.183432
     27          6           0       -8.574584    1.829411    0.313268
     28          6           0      -10.102716    1.593875    0.441876
     29          6           0      -10.375882    0.130278    0.003916
     30          6           0       -8.922408   -0.454212    0.058312
     31          6           0      -10.607578    1.938555    1.912840
     32          6           0      -11.003266    0.030473   -1.487824
     33          6           0      -12.056916   -1.049941   -1.763259
     34          7           0       -6.188162   -1.537770   -0.365879
     35          6           0       -7.304262   -2.323027   -0.366242
     36          6           0       -6.906578   -3.683691   -0.654268
     37          6           0       -5.530992   -3.715991   -0.612560
     38          6           0       -5.123389   -2.397844   -0.372034
     39          6           0       -7.783305   -4.906815   -0.723325
     40          6           0       -4.427444   -4.624202   -0.544821
     41          8           0       -4.320129   -5.864008   -0.540323
     42          6           0       -3.185339   -3.782761   -0.413141
     43          6           0       -2.441647   -4.154737    0.898969
     44          8           0       -2.769437   -3.691560    1.980971
     45          8           0       -1.374078   -5.092701    0.672827
     46          6           0       -0.534449   -5.378599    1.842794
     47          6           0        3.327429   -0.893716    0.204026
     48          6           0        4.731038   -0.844756   -0.491820
     49          6           0        5.907335   -0.726152    0.093388
     50          6           0        6.133502   -0.644707    1.637442
     51          6           0        7.253834   -0.804975   -0.647908
     52          6           0        7.572400    0.514380   -1.435653
     53          6           0        8.816636    1.168369   -0.923306
     54          6           0        9.658300    1.906989   -2.035877
     55          6           0        8.770248    2.864225   -2.852512
     56          6           0       10.490731    0.830484   -2.795040
     57          6           0       12.019874    1.270029   -2.714647
     58          6           0       12.946671    0.323717   -1.885705
     59          6           0       13.899242    1.064241   -0.813911
     60          6           0       14.850563    2.016268   -1.476995
     61          6           0       14.561483   -0.037883    0.078109
     62          6           0       14.412984    0.278080    1.546821
     63          6           0       13.532697   -0.763802    2.320514
     64          6           0       12.181551   -0.113057    2.743507
     65          6           0       12.281304    0.726480    4.075723
     66          6           0       11.031141   -1.077209    2.715322
     67          1           0       -2.164820    3.169186   -0.017716
     68          1           0       -8.748111    3.879449    0.421443
     69          1           0       -9.398806   -2.544308   -0.332849
     70          1           0       -1.100613   -1.434511    0.596900
     71          1           0       -0.830479    1.042206   -0.923421
     72          1           0        0.195953    1.831549    0.882963
     73          1           0       -0.033427    0.204565    1.635032
     74          1           0       -1.019311    1.571419    2.031643
     75          1           0       -0.488624   -0.557177   -2.204112
     76          1           0       -1.667189   -1.770521   -2.253671
     77          1           0        0.810016   -2.338119   -2.322392
     78          1           0       -0.247152   -3.351254   -1.266981
     79          1           0       -3.407612    6.282125    1.186557
     80          1           0       -3.676277    6.355379   -0.533754
     81          1           0       -2.613374    5.105239    0.022302
     82          1           0       -5.510916    7.745128   -0.296465
     83          1           0       -5.170157    7.571437    1.420259
     84          1           0       -6.765431    8.284925    0.865591
     85          1           0      -10.587599    2.300957   -0.231291
     86          1           0      -11.001563   -0.352408    0.755239
     87          1           0       -9.906454    1.508326    2.629025
     88          1           0      -11.544000    1.432584    2.148877
     89          1           0      -10.787443    3.009163    2.010173
     90          1           0      -10.168761   -0.144778   -2.167475
     91          1           0      -11.515059    0.968635   -1.701406
     92          1           0      -11.557524   -1.647742   -2.525957
     93          1           0      -12.968319   -0.590316   -2.147596
     94          1           0      -12.281191   -1.534297   -0.813059
     95          1           0       -7.220160   -5.834548   -0.622163
     96          1           0       -8.349876   -4.884263   -1.654334
     97          1           0       -8.472329   -4.959614    0.120161
     98          1           0       -2.513913   -3.964397   -1.252667
     99          1           0       -0.820075   -5.215611    2.882670
    100          1           0        0.450782   -4.944611    1.670231
    101          1           0       -0.309635   -6.433556    2.002335
    102          1           0        3.511246   -1.713129    0.897828
    103          1           0        3.145783    0.046153    0.725421
    104          1           0        4.717592   -1.058941   -1.559895
    105          1           0        6.685181   -1.518631    1.982231
    106          1           0        5.178052   -0.576578    2.158667
    107          1           0        6.661848    0.261595    1.933268
    108          1           0        7.349474   -1.524868   -1.460073
    109          1           0        8.058766   -0.985608    0.064168
    110          1           0        6.830831    1.280745   -1.211013
    111          1           0        7.597520    0.267024   -2.497871
    112          1           0        9.435625    0.429849   -0.413823
    113          1           0        8.574799    1.909175   -0.161679
    114          1           0       10.304120    2.566284   -1.455293
    115          1           0        7.750908    2.492940   -2.960216
    116          1           0        9.260199    3.122400   -3.791415
    117          1           0        8.800929    3.801805   -2.298101
    118          1           0       10.099980    0.971832   -3.802905
    119          1           0       10.341646   -0.167530   -2.383556
    120          1           0       12.120951    2.288053   -2.337874
    121          1           0       12.307849    1.259388   -3.766482
    122          1           0       13.503892   -0.244513   -2.629687
    123          1           0       12.240513   -0.368633   -1.427014
    124          1           0       13.150886    1.562200   -0.197560
    125          1           0       15.513626    1.332830   -2.007316
    126          1           0       15.289600    2.604418   -0.671583
    127          1           0       14.325515    2.670521   -2.173784
    128          1           0       15.616850   -0.230718   -0.113811
    129          1           0       14.157838   -1.037320   -0.080745
    130          1           0       13.899517    1.225198    1.710820
    131          1           0       15.416596    0.271289    1.969729
    132          1           0       14.031200   -1.087409    3.235267
    133          1           0       13.270964   -1.609774    1.685782
    134          1           0       11.872368    0.690162    2.074587
    135          1           0       11.328553    1.227420    4.252567
    136          1           0       13.017169    1.517921    3.934281
    137          1           0       12.645373    0.106675    4.895271
    138          1           0       11.061465   -1.658139    3.637280
    139          1           0       11.063635   -1.754313    1.862466
    140          1           0       10.067674   -0.567691    2.699559
 ---------------------------------------------------------------------

 SCF Done:  E(RCAM-B3LYP) =  -3007.17158941     A.U. after   19 cycles

 Excitation energies and oscillator strengths:

 Excited State   1:      Singlet-A      1.7014 eV  728.70 nm  f=0.4089  <S**2>=0.000
     245 -> 248        0.17788
     246 -> 247        0.68713
     245 <- 248        0.10913
 This state for optimization and/or second-order correction.
 Total Energy, E(TD-HF/TD-DFT) =  -3007.10906281
 Copying the excited state density for this state as the 1-particle RhoCI density.

 Excited State   2:      Singlet-A      2.2748 eV  545.03 nm  f=0.1158  <S**2>=0.000
     245 -> 247        0.63811
     246 -> 248       -0.29374

 Excited State   3:      Singlet-A      3.4213 eV  362.39 nm  f=0.0282  <S**2>=0.000
     241 -> 247       -0.20128
     241 -> 249        0.15768
     243 -> 247       -0.37417
     244 -> 247        0.47023
     246 -> 248       -0.20782

 Excited State   4:      Singlet-A      3.5013 eV  354.11 nm  f=0.0005  <S**2>=0.000
     241 -> 247        0.49578
     241 -> 249       -0.33014
     241 -> 251        0.10338
     244 -> 247        0.30832

 Excited State   5:      Singlet-A      3.5485 eV  349.40 nm  f=0.3104  <S**2>=0.000
     241 -> 247       -0.12473
     243 -> 247        0.27979
     244 -> 247        0.35901
     245 -> 247        0.18862
     246 -> 248        0.46479

 The electronic state is 1-A.
 Alpha  occ. eigenvalues --  -46.89630 -19.26193 -19.24761 -19.21591 -19.20332
 Alpha  occ. eigenvalues --  -19.19301 -19.18786 -14.42052 -14.41525 -14.39992
 Alpha  occ. eigenvalues --  -14.39287 -10.41093 -10.39938 -10.35573 -10.34804
 Alpha  occ. eigenvalues --  -10.32842 -10.31510 -10.30849 -10.30827 -10.30732
 Alpha  occ. eigenvalues --  -10.30644 -10.29965 -10.29942 -10.29819 -10.29161
 Alpha  occ. eigenvalues --  -10.28872 -10.28112 -10.28066 -10.27897 -10.27710
 Alpha  occ. eigenvalues --  -10.27692 -10.27673 -10.27526 -10.27442 -10.27360
 Alpha  occ. eigenvalues --  -10.27150 -10.27095 -10.27061 -10.26930 -10.26856
 Alpha  occ. eigenvalues --  -10.26558 -10.26511 -10.26503 -10.26300 -10.26298
 Alpha  occ. eigenvalues --  -10.26055 -10.25968 -10.25626 -10.25578 -10.25459
 Alpha  occ. eigenvalues --  -10.25416 -10.25341 -10.25314 -10.25056 -10.25004
 Alpha  occ. eigenvalues --  -10.24907 -10.24900 -10.24891 -10.24856 -10.24789
 Alpha  occ. eigenvalues --  -10.24765 -10.24736 -10.24532 -10.24522 -10.24456
 Alpha  occ. eigenvalues --  -10.24424  -3.17904  -1.92801  -1.92361  -1.92196
 Alpha  occ. eigenvalues --   -1.17251  -1.14062  -1.11277  -1.09602  -1.08719
 Alpha  occ. eigenvalues --   -1.07078  -1.04019  -1.03136  -1.01947  -1.01492
 Alpha  occ. eigenvalues --   -0.92659  -0.90629  -0.89837  -0.89619  -0.88693
 Alpha  occ. eigenvalues --   -0.88053  -0.87563  -0.87259  -0.87153  -0.86699
 Alpha  occ. eigenvalues --   -0.86110  -0.85466  -0.84406  -0.83054  -0.82893
 Alpha  occ. eigenvalues --   -0.82565  -0.81427  -0.81082  -0.80452  -0.79961
 Alpha  occ. eigenvalues --   -0.79873  -0.77902  -0.77390  -0.76641  -0.75960
 Alpha  occ. eigenvalues --   -0.75888  -0.75767  -0.74977  -0.74752  -0.74441
 Alpha  occ. eigenvalues --   -0.73775  -0.72741  -0.71195  -0.70431  -0.68800
 Alpha  occ. eigenvalues --   -0.68669  -0.67602  -0.67222  -0.66651  -0.65354
 Alpha  occ. eigenvalues --   -0.64890  -0.64865  -0.64515  -0.64423  -0.64149
 Alpha  occ. eigenvalues --   -0.63670  -0.62440  -0.61965  -0.61455  -0.60012
 Alpha  occ. eigenvalues --   -0.59644  -0.59565  -0.59188  -0.58333  -0.57770
 Alpha  occ. eigenvalues --   -0.57456  -0.56815  -0.56411  -0.55748  -0.55451
 Alpha  occ. eigenvalues --   -0.54977  -0.54708  -0.54546  -0.54278  -0.53616
 Alpha  occ. eigenvalues --   -0.53474  -0.53130  -0.52989  -0.52918  -0.52829
 Alpha  occ. eigenvalues --   -0.52664  -0.52426  -0.52294  -0.51880  -0.51664
 Alpha  occ. eigenvalues --   -0.51638  -0.51171  -0.51105  -0.50967  -0.50669
 Alpha  occ. eigenvalues --   -0.50418  -0.50269  -0.50217  -0.49777  -0.49664
 Alpha  occ. eigenvalues --   -0.49427  -0.49365  -0.49251  -0.49178  -0.49066
 Alpha  occ. eigenvalues --   -0.49031  -0.48583  -0.48356  -0.48259  -0.47979
 Alpha  occ. eigenvalues --   -0.47635  -0.47239  -0.46955  -0.46710  -0.46560
 Alpha  occ. eigenvalues --   -0.46411  -0.46140  -0.45892  -0.45684  -0.45567
 Alpha  occ. eigenvalues --   -0.45116  -0.44985  -0.44829  -0.44798  -0.44689
 Alpha  occ. eigenvalues --   -0.44401  -0.44305  -0.44234  -0.43938  -0.43899
 Alpha  occ. eigenvalues --   -0.43684  -0.43358  -0.43244  -0.43140  -0.42988
 Alpha  occ. eigenvalues --   -0.42888  -0.42840  -0.42559  -0.42469  -0.42413
 Alpha  occ. eigenvalues --   -0.42285  -0.41556  -0.41297  -0.41184  -0.40975
 Alpha  occ. eigenvalues --   -0.40824  -0.40471  -0.40384  -0.39983  -0.39823
 Alpha  occ. eigenvalues --   -0.39765  -0.39536  -0.39265  -0.38850  -0.38634
 Alpha  occ. eigenvalues --   -0.38459  -0.38384  -0.37958  -0.37861  -0.37706
 Alpha  occ. eigenvalues --   -0.37331  -0.36859  -0.36694  -0.36459  -0.35611
 Alpha  occ. eigenvalues --   -0.35369  -0.35307  -0.35156  -0.34749  -0.34147
 Alpha  occ. eigenvalues --   -0.33810  -0.33386  -0.32732  -0.31469  -0.31201
 Alpha  occ. eigenvalues --   -0.31103  -0.30423  -0.30191  -0.29887  -0.24127
 Alpha  occ. eigenvalues --   -0.20967
 Alpha virt. eigenvalues --   -0.08629  -0.01415   0.00386   0.01726   0.02634
 Alpha virt. eigenvalues --    0.03499   0.04883   0.05645   0.06485   0.06869
 Alpha virt. eigenvalues --    0.07451   0.08170   0.08571   0.09054   0.09115

 Mulliken charges:
               1
     1  Mg   0.808480
     2  C   -0.090841
     3  C   -0.062535
     4  C   -0.022547
     5  C   -0.063903
     6  N   -0.303561
     7  C   -0.002802
     8  C   -0.054051
     9  C   -0.035530
    10  C    0.017733
    11  C    0.053715
    12  C    0.037213
    13  C    0.078908
    14  C    0.181882
    15  O   -0.216090
    16  O   -0.336031
    17  N   -0.364035
    18  C    0.155336
    19  C   -0.174171
    20  C   -0.033330
    21  C    0.097819
    22  C    0.125330
    23  C    0.002674
    24  O   -0.182391
    25  C    0.049304
    26  N   -0.294847
    27  C    0.050908
    28  C   -0.071979
    29  C   -0.010809
    30  C    0.058443
    31  C    0.059978
    32  C    0.002399
    33  C    0.014569
    34  N   -0.329563
    35  C    0.084742
    36  C   -0.173965
    37  C    0.010258
    38  C    0.165046
    39  C    0.103152
    40  C    0.053746
    41  O   -0.188600
    42  C    0.032661
    43  C    0.242906
    44  O   -0.200711
    45  O   -0.356312
    46  C    0.177968
    47  C    0.250493
    48  C   -0.117515
    49  C   -0.156505
    50  C    0.054275
    51  C    0.097791
    52  C   -0.009518
    53  C   -0.001474
    54  C   -0.148258
    55  C    0.054923
    56  C    0.073253
    57  C   -0.013845
    58  C    0.016830
    59  C   -0.125520
    60  C    0.094010
    61  C    0.068935
    62  C    0.009516
    63  C    0.058475
    64  C   -0.170033
    65  C    0.026691
    66  C    0.047362
    67  H   -0.030078
    68  H    0.002058
    69  H   -0.026299
    70  H    0.039709
    71  H    0.011110
    72  H    0.006591
    73  H    0.023915
    74  H    0.024069
    75  H    0.008621
    76  H    0.016968
    77  H    0.022435
    78  H    0.038636
    79  H    0.034285
    80  H    0.015242
    81  H   -0.003352
    82  H    0.031460
    83  H    0.036041
    84  H    0.033865
    85  H    0.003036
    86  H    0.002599
    87  H    0.020510
    88  H    0.004802
    89  H    0.032115
    90  H    0.017449
    91  H    0.011527
    92  H    0.022872
    93  H    0.017658
    94  H    0.017181
    95  H    0.035059
    96  H    0.023162
    97  H    0.023320
    98  H    0.037215
    99  H    0.037705
   100  H    0.034728
   101  H    0.011515
   102  H    0.045510
   103  H    0.038240
   104  H   -0.006520
   105  H    0.038487
   106  H    0.005181
   107  H    0.021713
   108  H    0.004132
   109  H   -0.004187
   110  H    0.014130
   111  H    0.012795
   112  H   -0.010711
   113  H   -0.014838
   114  H   -0.009734
   115  H    0.023178
   116  H    0.002982
   117  H    0.000983
   118  H   -0.011208
   119  H    0.005947
   120  H    0.008644
   121  H   -0.005402
   122  H   -0.006460
   123  H   -0.011214
   124  H   -0.007068
   125  H    0.011707
   126  H    0.013020
   127  H    0.010207
   128  H   -0.015884
   129  H   -0.013945
   130  H    0.010052
   131  H   -0.008564
   132  H   -0.004266
   133  H   -0.007945
   134  H   -0.007757
   135  H    0.011894
   136  H    0.001882
   137  H    0.010919
   138  H    0.000090
   139  H    0.009040
   140  H    0.000795
 Sum of Mulliken charges =  -0.00000

 Dipole moment (field-independent basis, Debye):
    X=              3.8889    Y=              4.1279    Z=             -3.2431  Tot=              6.5331
 Quadrupole moment (field-independent basis, Debye-Ang):
   XX=           -373.0533   YY=           -427.5212   ZZ=           -405.8803
   XY=             -0.3649   XZ=             19.8674   YZ=             -1.7979

 Normal termination of Gaussian 16 at Wed May  4 19:02:34 2022.
