 Gaussian 16, Revision A.03,
 Gaussian 16:  ES64L-G16RevA.03 25-Dec-2016

 ---------------------------------
 #p PBE1PBE/Def2SVP td=(nstates=5)
 ---------------------------------

 -----------------------------------------------------
 step_351_chromophore_19 TDDFT with PBE1PBE functional
 -----------------------------------------------------
 Symbolic Z-matrix:
 Charge =  0 Multiplicity = 1

                         Standard orientation:
 ---------------------------------------------------------------------
 Center     Atomic      Atomic             Coordinates (Angstroms)
 Number     Number       Type             X           Y           Z
 ---------------------------------------------------------------------
      1         12           0       -5.851239    0.565009   -0.281890
      2          6           0       -3.731252   -2.296131   -0.366497
      3          6           0       -3.065706    2.552949    0.042629
      4          6           0       -7.988528    3.095481    0.405481
      5          6           0       -8.624824   -1.782857   -0.210326
      6          7           0       -3.664998    0.149453    0.018809
      7          6           0       -3.062121   -1.087431   -0.139576
      8          6           0       -1.501511   -0.858311   -0.237007
      9          6           0       -1.307706    0.628600   -0.035147
     10          6           0       -2.769282    1.206328    0.031178
     11          6           0       -0.522573    1.074284    1.198189
     12          6           0       -0.872044   -1.388988   -1.612589
     13          6           0        0.255425   -2.391010   -1.384950
     14          6           0        1.245911   -2.068269   -0.228922
     15          8           0        1.122712   -2.489701    0.907215
     16          8           0        2.211401   -1.158725   -0.648325
     17          7           0       -5.549143    2.591946    0.134732
     18          6           0       -4.361778    3.186924    0.121066
     19          6           0       -4.566171    4.613726    0.290500
     20          6           0       -5.943585    4.853314    0.430185
     21          6           0       -6.593772    3.490608    0.332801
     22          6           0       -3.508011    5.665154    0.293734
     23          6           0       -6.704569    6.215180    0.672633
     24          8           0       -7.883076    6.187166    0.917169
     25          6           0       -5.967304    7.566807    0.676831
     26          7           0       -8.019723    0.543371    0.183432
     27          6           0       -8.574584    1.829411    0.313268
     28          6           0      -10.102716    1.593875    0.441876
     29          6           0      -10.375882    0.130278    0.003916
     30          6           0       -8.922408   -0.454212    0.058312
     31          6           0      -10.607578    1.938555    1.912840
     32          6           0      -11.003266    0.030473   -1.487824
     33          6           0      -12.056916   -1.049941   -1.763259
     34          7           0       -6.188162   -1.537770   -0.365879
     35          6           0       -7.304262   -2.323027   -0.366242
     36          6           0       -6.906578   -3.683691   -0.654268
     37          6           0       -5.530992   -3.715991   -0.612560
     38          6           0       -5.123389   -2.397844   -0.372034
     39          6           0       -7.783305   -4.906815   -0.723325
     40          6           0       -4.427444   -4.624202   -0.544821
     41          8           0       -4.320129   -5.864008   -0.540323
     42          6           0       -3.185339   -3.782761   -0.413141
     43          6           0       -2.441647   -4.154737    0.898969
     44          8           0       -2.769437   -3.691560    1.980971
     45          8           0       -1.374078   -5.092701    0.672827
     46          6           0       -0.534449   -5.378599    1.842794
     47          6           0        3.327429   -0.893716    0.204026
     48          6           0        4.731038   -0.844756   -0.491820
     49          6           0        5.907335   -0.726152    0.093388
     50          6           0        6.133502   -0.644707    1.637442
     51          6           0        7.253834   -0.804975   -0.647908
     52          6           0        7.572400    0.514380   -1.435653
     53          6           0        8.816636    1.168369   -0.923306
     54          6           0        9.658300    1.906989   -2.035877
     55          6           0        8.770248    2.864225   -2.852512
     56          6           0       10.490731    0.830484   -2.795040
     57          6           0       12.019874    1.270029   -2.714647
     58          6           0       12.946671    0.323717   -1.885705
     59          6           0       13.899242    1.064241   -0.813911
     60          6           0       14.850563    2.016268   -1.476995
     61          6           0       14.561483   -0.037883    0.078109
     62          6           0       14.412984    0.278080    1.546821
     63          6           0       13.532697   -0.763802    2.320514
     64          6           0       12.181551   -0.113057    2.743507
     65          6           0       12.281304    0.726480    4.075723
     66          6           0       11.031141   -1.077209    2.715322
     67          1           0       -2.164820    3.169186   -0.017716
     68          1           0       -8.748111    3.879449    0.421443
     69          1           0       -9.398806   -2.544308   -0.332849
     70          1           0       -1.100613   -1.434511    0.596900
     71          1           0       -0.830479    1.042206   -0.923421
     72          1           0        0.195953    1.831549    0.882963
     73          1           0       -0.033427    0.204565    1.635032
     74          1           0       -1.019311    1.571419    2.031643
     75          1           0       -0.488624   -0.557177   -2.204112
     76          1           0       -1.667189   -1.770521   -2.253671
     77          1           0        0.810016   -2.338119   -2.322392
     78          1           0       -0.247152   -3.351254   -1.266981
     79          1           0       -3.407612    6.282125    1.186557
     80          1           0       -3.676277    6.355379   -0.533754
     81          1           0       -2.613374    5.105239    0.022302
     82          1           0       -5.510916    7.745128   -0.296465
     83          1           0       -5.170157    7.571437    1.420259
     84          1           0       -6.765431    8.284925    0.865591
     85          1           0      -10.587599    2.300957   -0.231291
     86          1           0      -11.001563   -0.352408    0.755239
     87          1           0       -9.906454    1.508326    2.629025
     88          1           0      -11.544000    1.432584    2.148877
     89          1           0      -10.787443    3.009163    2.010173
     90          1           0      -10.168761   -0.144778   -2.167475
     91          1           0      -11.515059    0.968635   -1.701406
     92          1           0      -11.557524   -1.647742   -2.525957
     93          1           0      -12.968319   -0.590316   -2.147596
     94          1           0      -12.281191   -1.534297   -0.813059
     95          1           0       -7.220160   -5.834548   -0.622163
     96          1           0       -8.349876   -4.884263   -1.654334
     97          1           0       -8.472329   -4.959614    0.120161
     98          1           0       -2.513913   -3.964397   -1.252667
     99          1           0       -0.820075   -5.215611    2.882670
    100          1           0        0.450782   -4.944611    1.670231
    101          1           0       -0.309635   -6.433556    2.002335
    102          1           0        3.511246   -1.713129    0.897828
    103          1           0        3.145783    0.046153    0.725421
    104          1           0        4.717592   -1.058941   -1.559895
    105          1           0        6.685181   -1.518631    1.982231
    106          1           0        5.178052   -0.576578    2.158667
    107          1           0        6.661848    0.261595    1.933268
    108          1           0        7.349474   -1.524868   -1.460073
    109          1           0        8.058766   -0.985608    0.064168
    110          1           0        6.830831    1.280745   -1.211013
    111          1           0        7.597520    0.267024   -2.497871
    112          1           0        9.435625    0.429849   -0.413823
    113          1           0        8.574799    1.909175   -0.161679
    114          1           0       10.304120    2.566284   -1.455293
    115          1           0        7.750908    2.492940   -2.960216
    116          1           0        9.260199    3.122400   -3.791415
    117          1           0        8.800929    3.801805   -2.298101
    118          1           0       10.099980    0.971832   -3.802905
    119          1           0       10.341646   -0.167530   -2.383556
    120          1           0       12.120951    2.288053   -2.337874
    121          1           0       12.307849    1.259388   -3.766482
    122          1           0       13.503892   -0.244513   -2.629687
    123          1           0       12.240513   -0.368633   -1.427014
    124          1           0       13.150886    1.562200   -0.197560
    125          1           0       15.513626    1.332830   -2.007316
    126          1           0       15.289600    2.604418   -0.671583
    127          1           0       14.325515    2.670521   -2.173784
    128          1           0       15.616850   -0.230718   -0.113811
    129          1           0       14.157838   -1.037320   -0.080745
    130          1           0       13.899517    1.225198    1.710820
    131          1           0       15.416596    0.271289    1.969729
    132          1           0       14.031200   -1.087409    3.235267
    133          1           0       13.270964   -1.609774    1.685782
    134          1           0       11.872368    0.690162    2.074587
    135          1           0       11.328553    1.227420    4.252567
    136          1           0       13.017169    1.517921    3.934281
    137          1           0       12.645373    0.106675    4.895271
    138          1           0       11.061465   -1.658139    3.637280
    139          1           0       11.063635   -1.754313    1.862466
    140          1           0       10.067674   -0.567691    2.699559
 ---------------------------------------------------------------------

 SCF Done:  E(RPBE1PBE) =  -3005.35829757     A.U. after   15 cycles

 Excitation energies and oscillator strengths:

 Excited State   1:      Singlet-A      1.8679 eV  663.76 nm  f=0.3966  <S**2>=0.000
     245 -> 248        0.17115
     246 -> 247        0.69460
     246 <- 247       -0.11246
 This state for optimization and/or second-order correction.
 Total Energy, E(TD-HF/TD-DFT) =  -3005.28965341
 Copying the excited state density for this state as the 1-particle RhoCI density.

 Excited State   2:      Singlet-A      2.2909 eV  541.21 nm  f=0.1093  <S**2>=0.000
     245 -> 247        0.64736
     246 -> 248       -0.27202

 Excited State   3:      Singlet-A      3.0236 eV  410.05 nm  f=0.0000  <S**2>=0.000
     241 -> 247        0.37810
     241 -> 249       -0.15031
     242 -> 247        0.40985
     242 -> 249       -0.12580
     244 -> 247        0.36485

 Excited State   4:      Singlet-A      3.1421 eV  394.59 nm  f=0.0002  <S**2>=0.000
     241 -> 247       -0.25539
     242 -> 247       -0.26415
     244 -> 247        0.59058

 Excited State   5:      Singlet-A      3.2219 eV  384.82 nm  f=0.0049  <S**2>=0.000
     241 -> 247        0.48125
     242 -> 247       -0.45360
     246 -> 248       -0.21240

 The electronic state is 1-A.
 Alpha  occ. eigenvalues --  -46.93009 -19.26865 -19.25415 -19.21824 -19.20488
 Alpha  occ. eigenvalues --  -19.19567 -19.18890 -14.41611 -14.41045 -14.39669
 Alpha  occ. eigenvalues --  -14.38899 -10.38127 -10.36935 -10.32820 -10.31803
 Alpha  occ. eigenvalues --  -10.30247 -10.29162 -10.28739 -10.28539 -10.28498
 Alpha  occ. eigenvalues --  -10.28493 -10.27759 -10.27418 -10.27206 -10.26715
 Alpha  occ. eigenvalues --  -10.26423 -10.25866 -10.25582 -10.25521 -10.25507
 Alpha  occ. eigenvalues --  -10.25479 -10.25322 -10.25201 -10.25182 -10.25116
 Alpha  occ. eigenvalues --  -10.24935 -10.24872 -10.24794 -10.24786 -10.24422
 Alpha  occ. eigenvalues --  -10.24067 -10.23936 -10.23910 -10.23862 -10.23831
 Alpha  occ. eigenvalues --  -10.23753 -10.23565 -10.23252 -10.23075 -10.22991
 Alpha  occ. eigenvalues --  -10.22937 -10.22896 -10.22731 -10.22655 -10.22573
 Alpha  occ. eigenvalues --  -10.22480 -10.22472 -10.22438 -10.22353 -10.22303
 Alpha  occ. eigenvalues --  -10.22140 -10.22122 -10.22098 -10.22080 -10.22019
 Alpha  occ. eigenvalues --  -10.21794  -3.14872  -1.87707  -1.87247  -1.87084
 Alpha  occ. eigenvalues --   -1.12043  -1.08745  -1.06106  -1.04454  -1.03314
 Alpha  occ. eigenvalues --   -1.01879  -0.98606  -0.97893  -0.96518  -0.96106
 Alpha  occ. eigenvalues --   -0.86960  -0.84743  -0.83942  -0.83769  -0.82822
 Alpha  occ. eigenvalues --   -0.82400  -0.81671  -0.81557  -0.81411  -0.81035
 Alpha  occ. eigenvalues --   -0.80384  -0.79741  -0.78580  -0.77359  -0.77119
 Alpha  occ. eigenvalues --   -0.76788  -0.75650  -0.75280  -0.74688  -0.74277
 Alpha  occ. eigenvalues --   -0.74099  -0.72212  -0.71673  -0.70945  -0.70179
 Alpha  occ. eigenvalues --   -0.69999  -0.69969  -0.69150  -0.69087  -0.68647
 Alpha  occ. eigenvalues --   -0.68061  -0.67153  -0.65658  -0.64713  -0.63233
 Alpha  occ. eigenvalues --   -0.62879  -0.61957  -0.61405  -0.61096  -0.59804
 Alpha  occ. eigenvalues --   -0.59364  -0.59078  -0.59057  -0.58900  -0.58695
 Alpha  occ. eigenvalues --   -0.57790  -0.56634  -0.56525  -0.55713  -0.54393
 Alpha  occ. eigenvalues --   -0.54159  -0.54115  -0.53763  -0.52924  -0.52294
 Alpha  occ. eigenvalues --   -0.51848  -0.51327  -0.50928  -0.50378  -0.49934
 Alpha  occ. eigenvalues --   -0.49473  -0.49332  -0.48873  -0.48722  -0.48043
 Alpha  occ. eigenvalues --   -0.47986  -0.47732  -0.47552  -0.47446  -0.47323
 Alpha  occ. eigenvalues --   -0.47232  -0.46921  -0.46751  -0.46430  -0.46206
 Alpha  occ. eigenvalues --   -0.46168  -0.45690  -0.45646  -0.45469  -0.45173
 Alpha  occ. eigenvalues --   -0.45046  -0.44859  -0.44784  -0.44340  -0.44266
 Alpha  occ. eigenvalues --   -0.44015  -0.43958  -0.43813  -0.43772  -0.43663
 Alpha  occ. eigenvalues --   -0.43620  -0.43217  -0.42970  -0.42803  -0.42635
 Alpha  occ. eigenvalues --   -0.42264  -0.41901  -0.41639  -0.41385  -0.41305
 Alpha  occ. eigenvalues --   -0.41148  -0.40784  -0.40663  -0.40239  -0.40212
 Alpha  occ. eigenvalues --   -0.39760  -0.39611  -0.39527  -0.39470  -0.39369
 Alpha  occ. eigenvalues --   -0.39147  -0.39038  -0.38998  -0.38707  -0.38609
 Alpha  occ. eigenvalues --   -0.38472  -0.38178  -0.38018  -0.37854  -0.37740
 Alpha  occ. eigenvalues --   -0.37719  -0.37693  -0.37360  -0.37212  -0.37174
 Alpha  occ. eigenvalues --   -0.37137  -0.36300  -0.36135  -0.35944  -0.35891
 Alpha  occ. eigenvalues --   -0.35572  -0.35305  -0.35179  -0.34857  -0.34671
 Alpha  occ. eigenvalues --   -0.34582  -0.34491  -0.34105  -0.33814  -0.33464
 Alpha  occ. eigenvalues --   -0.33345  -0.33243  -0.32795  -0.32729  -0.32551
 Alpha  occ. eigenvalues --   -0.32350  -0.31789  -0.31614  -0.31522  -0.30522
 Alpha  occ. eigenvalues --   -0.30382  -0.30196  -0.30009  -0.29716  -0.28938
 Alpha  occ. eigenvalues --   -0.28734  -0.28705  -0.28252  -0.27124  -0.26116
 Alpha  occ. eigenvalues --   -0.25856  -0.25692  -0.25656  -0.25465  -0.21058
 Alpha  occ. eigenvalues --   -0.18623
 Alpha virt. eigenvalues --   -0.11058  -0.04958  -0.03785  -0.01868  -0.01191
 Alpha virt. eigenvalues --   -0.00935   0.00272   0.01351   0.02012   0.03246
 Alpha virt. eigenvalues --    0.03632   0.04669   0.05028   0.05605   0.05749

 Mulliken charges:
               1
     1  Mg   0.947240
     2  C   -0.095869
     3  C   -0.056131
     4  C   -0.018747
     5  C   -0.057026
     6  N   -0.406767
     7  C    0.073730
     8  C   -0.126547
     9  C   -0.111475
    10  C    0.057475
    11  C   -0.000963
    12  C   -0.009173
    13  C   -0.005304
    14  C    0.245359
    15  O   -0.249556
    16  O   -0.369130
    17  N   -0.484911
    18  C    0.189250
    19  C   -0.209241
    20  C   -0.078409
    21  C    0.134212
    22  C    0.061871
    23  C    0.056720
    24  O   -0.217341
    25  C   -0.026169
    26  N   -0.394300
    27  C    0.082916
    28  C   -0.150564
    29  C   -0.085118
    30  C    0.099745
    31  C    0.002116
    32  C   -0.053569
    33  C   -0.058281
    34  N   -0.447349
    35  C    0.103028
    36  C   -0.186663
    37  C   -0.037068
    38  C    0.207245
    39  C    0.050058
    40  C    0.143057
    41  O   -0.235624
    42  C   -0.075979
    43  C    0.326311
    44  O   -0.232936
    45  O   -0.386730
    46  C    0.123416
    47  C    0.216023
    48  C   -0.126718
    49  C   -0.206481
    50  C   -0.010474
    51  C    0.039104
    52  C   -0.071994
    53  C   -0.057782
    54  C   -0.229532
    55  C   -0.006897
    56  C    0.015647
    57  C   -0.075878
    58  C   -0.031921
    59  C   -0.223732
    60  C    0.032099
    61  C    0.024232
    62  C   -0.056631
    63  C    0.003889
    64  C   -0.266797
    65  C   -0.032158
    66  C   -0.013676
    67  H    0.002470
    68  H    0.033229
    69  H    0.006505
    70  H    0.080773
    71  H    0.047533
    72  H    0.033310
    73  H    0.052123
    74  H    0.050917
    75  H    0.039515
    76  H    0.049482
    77  H    0.055312
    78  H    0.074993
    79  H    0.061756
    80  H    0.045081
    81  H    0.028214
    82  H    0.058704
    83  H    0.063019
    84  H    0.061373
    85  H    0.039852
    86  H    0.038595
    87  H    0.048906
    88  H    0.033606
    89  H    0.058868
    90  H    0.050093
    91  H    0.043613
    92  H    0.049936
    93  H    0.045463
    94  H    0.044154
    95  H    0.061768
    96  H    0.050550
    97  H    0.049711
    98  H    0.073176
    99  H    0.058691
   100  H    0.058399
   101  H    0.033971
   102  H    0.071028
   103  H    0.063892
   104  H    0.023826
   105  H    0.065437
   106  H    0.032674
   107  H    0.049877
   108  H    0.036701
   109  H    0.027660
   110  H    0.047879
   111  H    0.043909
   112  H    0.024821
   113  H    0.018505
   114  H    0.028944
   115  H    0.049914
   116  H    0.031411
   117  H    0.029580
   118  H    0.022773
   119  H    0.036823
   120  H    0.038924
   121  H    0.028027
   122  H    0.026262
   123  H    0.022125
   124  H    0.033583
   125  H    0.039339
   126  H    0.042056
   127  H    0.038150
   128  H    0.015903
   129  H    0.017231
   130  H    0.041506
   131  H    0.024908
   132  H    0.028337
   133  H    0.023661
   134  H    0.033012
   135  H    0.039406
   136  H    0.030091
   137  H    0.038101
   138  H    0.028653
   139  H    0.035903
   140  H    0.028376
 Sum of Mulliken charges =  -0.00000

 Dipole moment (field-independent basis, Debye):
    X=              3.8626    Y=              4.3768    Z=             -3.2077  Tot=              6.6608
 Quadrupole moment (field-independent basis, Debye-Ang):
   XX=           -367.1456   YY=           -424.7064   ZZ=           -403.2948
   XY=             -1.3305   XZ=             19.8666   YZ=             -1.8830

 Normal termination of Gaussian 16 at Wed May  4 19:29:15 2022.
