 Gaussian 16, Revision A.03,
 Gaussian 16:  ES64L-G16RevA.03 25-Dec-2016

 --------------------------------
 #p wB97XD/Def2SVP td=(nstates=5)
 --------------------------------

 ----------------------------------------------------
 step_351_chromophore_19 TDDFT with wB97XD functional
 ----------------------------------------------------
 Symbolic Z-matrix:
 Charge =  0 Multiplicity = 1

                         Standard orientation:
 ---------------------------------------------------------------------
 Center     Atomic      Atomic             Coordinates (Angstroms)
 Number     Number       Type             X           Y           Z
 ---------------------------------------------------------------------
      1         12           0       -5.851239    0.565009   -0.281890
      2          6           0       -3.731252   -2.296131   -0.366497
      3          6           0       -3.065706    2.552949    0.042629
      4          6           0       -7.988528    3.095481    0.405481
      5          6           0       -8.624824   -1.782857   -0.210326
      6          7           0       -3.664998    0.149453    0.018809
      7          6           0       -3.062121   -1.087431   -0.139576
      8          6           0       -1.501511   -0.858311   -0.237007
      9          6           0       -1.307706    0.628600   -0.035147
     10          6           0       -2.769282    1.206328    0.031178
     11          6           0       -0.522573    1.074284    1.198189
     12          6           0       -0.872044   -1.388988   -1.612589
     13          6           0        0.255425   -2.391010   -1.384950
     14          6           0        1.245911   -2.068269   -0.228922
     15          8           0        1.122712   -2.489701    0.907215
     16          8           0        2.211401   -1.158725   -0.648325
     17          7           0       -5.549143    2.591946    0.134732
     18          6           0       -4.361778    3.186924    0.121066
     19          6           0       -4.566171    4.613726    0.290500
     20          6           0       -5.943585    4.853314    0.430185
     21          6           0       -6.593772    3.490608    0.332801
     22          6           0       -3.508011    5.665154    0.293734
     23          6           0       -6.704569    6.215180    0.672633
     24          8           0       -7.883076    6.187166    0.917169
     25          6           0       -5.967304    7.566807    0.676831
     26          7           0       -8.019723    0.543371    0.183432
     27          6           0       -8.574584    1.829411    0.313268
     28          6           0      -10.102716    1.593875    0.441876
     29          6           0      -10.375882    0.130278    0.003916
     30          6           0       -8.922408   -0.454212    0.058312
     31          6           0      -10.607578    1.938555    1.912840
     32          6           0      -11.003266    0.030473   -1.487824
     33          6           0      -12.056916   -1.049941   -1.763259
     34          7           0       -6.188162   -1.537770   -0.365879
     35          6           0       -7.304262   -2.323027   -0.366242
     36          6           0       -6.906578   -3.683691   -0.654268
     37          6           0       -5.530992   -3.715991   -0.612560
     38          6           0       -5.123389   -2.397844   -0.372034
     39          6           0       -7.783305   -4.906815   -0.723325
     40          6           0       -4.427444   -4.624202   -0.544821
     41          8           0       -4.320129   -5.864008   -0.540323
     42          6           0       -3.185339   -3.782761   -0.413141
     43          6           0       -2.441647   -4.154737    0.898969
     44          8           0       -2.769437   -3.691560    1.980971
     45          8           0       -1.374078   -5.092701    0.672827
     46          6           0       -0.534449   -5.378599    1.842794
     47          6           0        3.327429   -0.893716    0.204026
     48          6           0        4.731038   -0.844756   -0.491820
     49          6           0        5.907335   -0.726152    0.093388
     50          6           0        6.133502   -0.644707    1.637442
     51          6           0        7.253834   -0.804975   -0.647908
     52          6           0        7.572400    0.514380   -1.435653
     53          6           0        8.816636    1.168369   -0.923306
     54          6           0        9.658300    1.906989   -2.035877
     55          6           0        8.770248    2.864225   -2.852512
     56          6           0       10.490731    0.830484   -2.795040
     57          6           0       12.019874    1.270029   -2.714647
     58          6           0       12.946671    0.323717   -1.885705
     59          6           0       13.899242    1.064241   -0.813911
     60          6           0       14.850563    2.016268   -1.476995
     61          6           0       14.561483   -0.037883    0.078109
     62          6           0       14.412984    0.278080    1.546821
     63          6           0       13.532697   -0.763802    2.320514
     64          6           0       12.181551   -0.113057    2.743507
     65          6           0       12.281304    0.726480    4.075723
     66          6           0       11.031141   -1.077209    2.715322
     67          1           0       -2.164820    3.169186   -0.017716
     68          1           0       -8.748111    3.879449    0.421443
     69          1           0       -9.398806   -2.544308   -0.332849
     70          1           0       -1.100613   -1.434511    0.596900
     71          1           0       -0.830479    1.042206   -0.923421
     72          1           0        0.195953    1.831549    0.882963
     73          1           0       -0.033427    0.204565    1.635032
     74          1           0       -1.019311    1.571419    2.031643
     75          1           0       -0.488624   -0.557177   -2.204112
     76          1           0       -1.667189   -1.770521   -2.253671
     77          1           0        0.810016   -2.338119   -2.322392
     78          1           0       -0.247152   -3.351254   -1.266981
     79          1           0       -3.407612    6.282125    1.186557
     80          1           0       -3.676277    6.355379   -0.533754
     81          1           0       -2.613374    5.105239    0.022302
     82          1           0       -5.510916    7.745128   -0.296465
     83          1           0       -5.170157    7.571437    1.420259
     84          1           0       -6.765431    8.284925    0.865591
     85          1           0      -10.587599    2.300957   -0.231291
     86          1           0      -11.001563   -0.352408    0.755239
     87          1           0       -9.906454    1.508326    2.629025
     88          1           0      -11.544000    1.432584    2.148877
     89          1           0      -10.787443    3.009163    2.010173
     90          1           0      -10.168761   -0.144778   -2.167475
     91          1           0      -11.515059    0.968635   -1.701406
     92          1           0      -11.557524   -1.647742   -2.525957
     93          1           0      -12.968319   -0.590316   -2.147596
     94          1           0      -12.281191   -1.534297   -0.813059
     95          1           0       -7.220160   -5.834548   -0.622163
     96          1           0       -8.349876   -4.884263   -1.654334
     97          1           0       -8.472329   -4.959614    0.120161
     98          1           0       -2.513913   -3.964397   -1.252667
     99          1           0       -0.820075   -5.215611    2.882670
    100          1           0        0.450782   -4.944611    1.670231
    101          1           0       -0.309635   -6.433556    2.002335
    102          1           0        3.511246   -1.713129    0.897828
    103          1           0        3.145783    0.046153    0.725421
    104          1           0        4.717592   -1.058941   -1.559895
    105          1           0        6.685181   -1.518631    1.982231
    106          1           0        5.178052   -0.576578    2.158667
    107          1           0        6.661848    0.261595    1.933268
    108          1           0        7.349474   -1.524868   -1.460073
    109          1           0        8.058766   -0.985608    0.064168
    110          1           0        6.830831    1.280745   -1.211013
    111          1           0        7.597520    0.267024   -2.497871
    112          1           0        9.435625    0.429849   -0.413823
    113          1           0        8.574799    1.909175   -0.161679
    114          1           0       10.304120    2.566284   -1.455293
    115          1           0        7.750908    2.492940   -2.960216
    116          1           0        9.260199    3.122400   -3.791415
    117          1           0        8.800929    3.801805   -2.298101
    118          1           0       10.099980    0.971832   -3.802905
    119          1           0       10.341646   -0.167530   -2.383556
    120          1           0       12.120951    2.288053   -2.337874
    121          1           0       12.307849    1.259388   -3.766482
    122          1           0       13.503892   -0.244513   -2.629687
    123          1           0       12.240513   -0.368633   -1.427014
    124          1           0       13.150886    1.562200   -0.197560
    125          1           0       15.513626    1.332830   -2.007316
    126          1           0       15.289600    2.604418   -0.671583
    127          1           0       14.325515    2.670521   -2.173784
    128          1           0       15.616850   -0.230718   -0.113811
    129          1           0       14.157838   -1.037320   -0.080745
    130          1           0       13.899517    1.225198    1.710820
    131          1           0       15.416596    0.271289    1.969729
    132          1           0       14.031200   -1.087409    3.235267
    133          1           0       13.270964   -1.609774    1.685782
    134          1           0       11.872368    0.690162    2.074587
    135          1           0       11.328553    1.227420    4.252567
    136          1           0       13.017169    1.517921    3.934281
    137          1           0       12.645373    0.106675    4.895271
    138          1           0       11.061465   -1.658139    3.637280
    139          1           0       11.063635   -1.754313    1.862466
    140          1           0       10.067674   -0.567691    2.699559
 ---------------------------------------------------------------------

 SCF Done:  E(RwB97XD) =  -3007.87142645     A.U. after   19 cycles

 Excitation energies and oscillator strengths:

 Excited State   1:      Singlet-A      1.6409 eV  755.56 nm  f=0.4071  <S**2>=0.000
     245 -> 248        0.18381
     246 -> 247        0.68473
     245 <- 248        0.11866
 This state for optimization and/or second-order correction.
 Total Energy, E(TD-HF/TD-DFT) =  -3007.81112274
 Copying the excited state density for this state as the 1-particle RhoCI density.

 Excited State   2:      Singlet-A      2.2184 eV  558.89 nm  f=0.1128  <S**2>=0.000
     245 -> 247        0.63624
     246 -> 248       -0.29625

 Excited State   3:      Singlet-A      3.4212 eV  362.40 nm  f=0.0373  <S**2>=0.000
     241 -> 247        0.11832
     241 -> 249       -0.11140
     243 -> 247        0.44666
     244 -> 247       -0.40605
     246 -> 248        0.23269

 Excited State   4:      Singlet-A      3.5210 eV  352.13 nm  f=0.0017  <S**2>=0.000
     240 -> 247        0.36038
     240 -> 249       -0.26013
     241 -> 247        0.36533
     241 -> 249       -0.26333
     244 -> 247        0.22731

 Excited State   5:      Singlet-A      3.5795 eV  346.37 nm  f=0.3875  <S**2>=0.000
     243 -> 247        0.16485
     244 -> 247        0.42527
     245 -> 247        0.20651
     246 -> 248        0.47813

 The electronic state is 1-A.
 Alpha  occ. eigenvalues --  -46.95963 -19.31430 -19.30023 -19.26503 -19.25283
 Alpha  occ. eigenvalues --  -19.24265 -19.23889 -14.46656 -14.46131 -14.44547
 Alpha  occ. eigenvalues --  -14.43911 -10.44926 -10.43849 -10.39510 -10.38855
 Alpha  occ. eigenvalues --  -10.36736 -10.35580 -10.34879 -10.34855 -10.34746
 Alpha  occ. eigenvalues --  -10.34666 -10.33919 -10.33888 -10.33740 -10.33254
 Alpha  occ. eigenvalues --  -10.32925 -10.32212 -10.32039 -10.31887 -10.31886
 Alpha  occ. eigenvalues --  -10.31763 -10.31739 -10.31546 -10.31450 -10.31428
 Alpha  occ. eigenvalues --  -10.31191 -10.31152 -10.31097 -10.30998 -10.30911
 Alpha  occ. eigenvalues --  -10.30461 -10.30358 -10.30355 -10.30237 -10.30228
 Alpha  occ. eigenvalues --  -10.30035 -10.29924 -10.29546 -10.29510 -10.29326
 Alpha  occ. eigenvalues --  -10.29314 -10.29251 -10.29126 -10.29000 -10.28937
 Alpha  occ. eigenvalues --  -10.28858 -10.28834 -10.28822 -10.28796 -10.28723
 Alpha  occ. eigenvalues --  -10.28578 -10.28567 -10.28443 -10.28432 -10.28376
 Alpha  occ. eigenvalues --  -10.28221  -3.21715  -1.95294  -1.94833  -1.94668
 Alpha  occ. eigenvalues --   -1.19427  -1.16232  -1.13454  -1.11798  -1.10989
 Alpha  occ. eigenvalues --   -1.09312  -1.06087  -1.05133  -1.03937  -1.03503
 Alpha  occ. eigenvalues --   -0.94691  -0.92418  -0.91612  -0.91433  -0.90486
 Alpha  occ. eigenvalues --   -0.89981  -0.89332  -0.89187  -0.89001  -0.88612
 Alpha  occ. eigenvalues --   -0.88070  -0.87356  -0.86234  -0.85012  -0.84742
 Alpha  occ. eigenvalues --   -0.84422  -0.83322  -0.82953  -0.82370  -0.81917
 Alpha  occ. eigenvalues --   -0.81761  -0.79846  -0.79287  -0.78567  -0.77850
 Alpha  occ. eigenvalues --   -0.77677  -0.77653  -0.76805  -0.76666  -0.76291
 Alpha  occ. eigenvalues --   -0.75678  -0.74745  -0.73168  -0.72350  -0.70823
 Alpha  occ. eigenvalues --   -0.70538  -0.69523  -0.69068  -0.68606  -0.67322
 Alpha  occ. eigenvalues --   -0.66845  -0.66709  -0.66491  -0.66396  -0.66137
 Alpha  occ. eigenvalues --   -0.65469  -0.64265  -0.63998  -0.63316  -0.61918
 Alpha  occ. eigenvalues --   -0.61627  -0.61557  -0.61154  -0.60323  -0.59732
 Alpha  occ. eigenvalues --   -0.59437  -0.58739  -0.58358  -0.57730  -0.57374
 Alpha  occ. eigenvalues --   -0.56913  -0.56699  -0.56374  -0.56162  -0.55471
 Alpha  occ. eigenvalues --   -0.55420  -0.55059  -0.54905  -0.54829  -0.54711
 Alpha  occ. eigenvalues --   -0.54587  -0.54327  -0.54189  -0.53781  -0.53577
 Alpha  occ. eigenvalues --   -0.53521  -0.53106  -0.53032  -0.52849  -0.52625
 Alpha  occ. eigenvalues --   -0.52344  -0.52157  -0.52121  -0.51670  -0.51582
 Alpha  occ. eigenvalues --   -0.51345  -0.51260  -0.51122  -0.51105  -0.50967
 Alpha  occ. eigenvalues --   -0.50949  -0.50515  -0.50317  -0.50116  -0.49877
 Alpha  occ. eigenvalues --   -0.49558  -0.49152  -0.48894  -0.48592  -0.48499
 Alpha  occ. eigenvalues --   -0.48335  -0.48012  -0.47817  -0.47510  -0.47459
 Alpha  occ. eigenvalues --   -0.46970  -0.46939  -0.46758  -0.46709  -0.46551
 Alpha  occ. eigenvalues --   -0.46294  -0.46202  -0.46156  -0.45835  -0.45766
 Alpha  occ. eigenvalues --   -0.45608  -0.45276  -0.45235  -0.45010  -0.44852
 Alpha  occ. eigenvalues --   -0.44843  -0.44780  -0.44489  -0.44465  -0.44312
 Alpha  occ. eigenvalues --   -0.44206  -0.43409  -0.43223  -0.43064  -0.42909
 Alpha  occ. eigenvalues --   -0.42778  -0.42341  -0.42247  -0.41856  -0.41662
 Alpha  occ. eigenvalues --   -0.41644  -0.41468  -0.41149  -0.40746  -0.40480
 Alpha  occ. eigenvalues --   -0.40334  -0.40284  -0.39811  -0.39731  -0.39547
 Alpha  occ. eigenvalues --   -0.39258  -0.38766  -0.38639  -0.38497  -0.37604
 Alpha  occ. eigenvalues --   -0.37293  -0.37125  -0.37068  -0.36601  -0.36105
 Alpha  occ. eigenvalues --   -0.35679  -0.35440  -0.34957  -0.33688  -0.33123
 Alpha  occ. eigenvalues --   -0.33096  -0.32424  -0.32360  -0.32053  -0.26045
 Alpha  occ. eigenvalues --   -0.22763
 Alpha virt. eigenvalues --   -0.06987   0.00496   0.02451   0.04622   0.04954
 Alpha virt. eigenvalues --    0.05760   0.06987   0.08071   0.08801   0.09979
 Alpha virt. eigenvalues --    0.10296   0.11009   0.11606   0.12405   0.12506

 Mulliken charges:
               1
     1  Mg   0.941944
     2  C   -0.100299
     3  C   -0.074548
     4  C   -0.033030
     5  C   -0.073465
     6  N   -0.374010
     7  C    0.044493
     8  C   -0.098890
     9  C   -0.085700
    10  C    0.044486
    11  C    0.009131
    12  C   -0.000855
    13  C    0.020711
    14  C    0.230161
    15  O   -0.244641
    16  O   -0.366911
    17  N   -0.449512
    18  C    0.175097
    19  C   -0.195915
    20  C   -0.073510
    21  C    0.120352
    22  C    0.076677
    23  C    0.050924
    24  O   -0.213873
    25  C   -0.012685
    26  N   -0.361961
    27  C    0.067864
    28  C   -0.122237
    29  C   -0.060616
    30  C    0.084081
    31  C    0.012662
    32  C   -0.040098
    33  C   -0.042289
    34  N   -0.414273
    35  C    0.097105
    36  C   -0.182226
    37  C   -0.033318
    38  C    0.194141
    39  C    0.058286
    40  C    0.125398
    41  O   -0.223288
    42  C   -0.036290
    43  C    0.304301
    44  O   -0.228063
    45  O   -0.385550
    46  C    0.139642
    47  C    0.228901
    48  C   -0.138918
    49  C   -0.191093
    50  C    0.006617
    51  C    0.055850
    52  C   -0.057827
    53  C   -0.035148
    54  C   -0.200038
    55  C    0.005034
    56  C    0.030237
    57  C   -0.056698
    58  C   -0.016915
    59  C   -0.184155
    60  C    0.045065
    61  C    0.031923
    62  C   -0.035034
    63  C    0.017840
    64  C   -0.231315
    65  C   -0.020938
    66  C    0.000286
    67  H   -0.004532
    68  H    0.029397
    69  H    0.002163
    70  H    0.062476
    71  H    0.036767
    72  H    0.027743
    73  H    0.045086
    74  H    0.045813
    75  H    0.032845
    76  H    0.041305
    77  H    0.050677
    78  H    0.062482
    79  H    0.056339
    80  H    0.037535
    81  H    0.021120
    82  H    0.053008
    83  H    0.056851
    84  H    0.059748
    85  H    0.029111
    86  H    0.028163
    87  H    0.042259
    88  H    0.026791
    89  H    0.054146
    90  H    0.040840
    91  H    0.035480
    92  H    0.044060
    93  H    0.040487
    94  H    0.037400
    95  H    0.059153
    96  H    0.046483
    97  H    0.045371
    98  H    0.065906
    99  H    0.055237
   100  H    0.053195
   101  H    0.029557
   102  H    0.064388
   103  H    0.059611
   104  H    0.021918
   105  H    0.059918
   106  H    0.026684
   107  H    0.043351
   108  H    0.030931
   109  H    0.017448
   110  H    0.036546
   111  H    0.035307
   112  H    0.009599
   113  H    0.010289
   114  H    0.015557
   115  H    0.043059
   116  H    0.025234
   117  H    0.023898
   118  H    0.013847
   119  H    0.026410
   120  H    0.025351
   121  H    0.020844
   122  H    0.018145
   123  H    0.008784
   124  H    0.015606
   125  H    0.031755
   126  H    0.036101
   127  H    0.032165
   128  H    0.009604
   129  H    0.007270
   130  H    0.026352
   131  H    0.018783
   132  H    0.020694
   133  H    0.012562
   134  H    0.016541
   135  H    0.033853
   136  H    0.023610
   137  H    0.031326
   138  H    0.021379
   139  H    0.029364
   140  H    0.022377
 Sum of Mulliken charges =  -0.00000

 Dipole moment (field-independent basis, Debye):
    X=              3.8989    Y=              4.1056    Z=             -3.2973  Tot=              6.5521
 Quadrupole moment (field-independent basis, Debye-Ang):
   XX=           -367.8358   YY=           -423.2302   ZZ=           -402.9056
   XY=              0.3343   XZ=             20.3393   YZ=             -1.7419

 Normal termination of Gaussian 16 at Wed May  4 20:12:25 2022.
