 Gaussian 16, Revision A.03,
 Gaussian 16:  ES64L-G16RevA.03 25-Dec-2016

 --------------------
 #p ZINDO=(nstates=5)
 --------------------

 -----------------------------
 step_351_chromophore_19 ZINDO
 -----------------------------
 Symbolic Z-matrix:
 Charge =  0 Multiplicity = 1

                         Standard orientation:
 ---------------------------------------------------------------------
 Center     Atomic      Atomic             Coordinates (Angstroms)
 Number     Number       Type             X           Y           Z
 ---------------------------------------------------------------------
      1         12           0       -5.851239    0.565009   -0.281890
      2          6           0       -3.731252   -2.296131   -0.366497
      3          6           0       -3.065706    2.552949    0.042629
      4          6           0       -7.988528    3.095481    0.405481
      5          6           0       -8.624824   -1.782857   -0.210326
      6          7           0       -3.664998    0.149453    0.018809
      7          6           0       -3.062121   -1.087431   -0.139576
      8          6           0       -1.501511   -0.858311   -0.237007
      9          6           0       -1.307706    0.628600   -0.035147
     10          6           0       -2.769282    1.206328    0.031178
     11          6           0       -0.522573    1.074284    1.198189
     12          6           0       -0.872044   -1.388988   -1.612589
     13          6           0        0.255425   -2.391010   -1.384950
     14          6           0        1.245911   -2.068269   -0.228922
     15          8           0        1.122712   -2.489701    0.907215
     16          8           0        2.211401   -1.158725   -0.648325
     17          7           0       -5.549143    2.591946    0.134732
     18          6           0       -4.361778    3.186924    0.121066
     19          6           0       -4.566171    4.613726    0.290500
     20          6           0       -5.943585    4.853314    0.430185
     21          6           0       -6.593772    3.490608    0.332801
     22          6           0       -3.508011    5.665154    0.293734
     23          6           0       -6.704569    6.215180    0.672633
     24          8           0       -7.883076    6.187166    0.917169
     25          6           0       -5.967304    7.566807    0.676831
     26          7           0       -8.019723    0.543371    0.183432
     27          6           0       -8.574584    1.829411    0.313268
     28          6           0      -10.102716    1.593875    0.441876
     29          6           0      -10.375882    0.130278    0.003916
     30          6           0       -8.922408   -0.454212    0.058312
     31          6           0      -10.607578    1.938555    1.912840
     32          6           0      -11.003266    0.030473   -1.487824
     33          6           0      -12.056916   -1.049941   -1.763259
     34          7           0       -6.188162   -1.537770   -0.365879
     35          6           0       -7.304262   -2.323027   -0.366242
     36          6           0       -6.906578   -3.683691   -0.654268
     37          6           0       -5.530992   -3.715991   -0.612560
     38          6           0       -5.123389   -2.397844   -0.372034
     39          6           0       -7.783305   -4.906815   -0.723325
     40          6           0       -4.427444   -4.624202   -0.544821
     41          8           0       -4.320129   -5.864008   -0.540323
     42          6           0       -3.185339   -3.782761   -0.413141
     43          6           0       -2.441647   -4.154737    0.898969
     44          8           0       -2.769437   -3.691560    1.980971
     45          8           0       -1.374078   -5.092701    0.672827
     46          6           0       -0.534449   -5.378599    1.842794
     47          6           0        3.327429   -0.893716    0.204026
     48          6           0        4.731038   -0.844756   -0.491820
     49          6           0        5.907335   -0.726152    0.093388
     50          6           0        6.133502   -0.644707    1.637442
     51          6           0        7.253834   -0.804975   -0.647908
     52          6           0        7.572400    0.514380   -1.435653
     53          6           0        8.816636    1.168369   -0.923306
     54          6           0        9.658300    1.906989   -2.035877
     55          6           0        8.770248    2.864225   -2.852512
     56          6           0       10.490731    0.830484   -2.795040
     57          6           0       12.019874    1.270029   -2.714647
     58          6           0       12.946671    0.323717   -1.885705
     59          6           0       13.899242    1.064241   -0.813911
     60          6           0       14.850563    2.016268   -1.476995
     61          6           0       14.561483   -0.037883    0.078109
     62          6           0       14.412984    0.278080    1.546821
     63          6           0       13.532697   -0.763802    2.320514
     64          6           0       12.181551   -0.113057    2.743507
     65          6           0       12.281304    0.726480    4.075723
     66          6           0       11.031141   -1.077209    2.715322
     67          1           0       -2.164820    3.169186   -0.017716
     68          1           0       -8.748111    3.879449    0.421443
     69          1           0       -9.398806   -2.544308   -0.332849
     70          1           0       -1.100613   -1.434511    0.596900
     71          1           0       -0.830479    1.042206   -0.923421
     72          1           0        0.195953    1.831549    0.882963
     73          1           0       -0.033427    0.204565    1.635032
     74          1           0       -1.019311    1.571419    2.031643
     75          1           0       -0.488624   -0.557177   -2.204112
     76          1           0       -1.667189   -1.770521   -2.253671
     77          1           0        0.810016   -2.338119   -2.322392
     78          1           0       -0.247152   -3.351254   -1.266981
     79          1           0       -3.407612    6.282125    1.186557
     80          1           0       -3.676277    6.355379   -0.533754
     81          1           0       -2.613374    5.105239    0.022302
     82          1           0       -5.510916    7.745128   -0.296465
     83          1           0       -5.170157    7.571437    1.420259
     84          1           0       -6.765431    8.284925    0.865591
     85          1           0      -10.587599    2.300957   -0.231291
     86          1           0      -11.001563   -0.352408    0.755239
     87          1           0       -9.906454    1.508326    2.629025
     88          1           0      -11.544000    1.432584    2.148877
     89          1           0      -10.787443    3.009163    2.010173
     90          1           0      -10.168761   -0.144778   -2.167475
     91          1           0      -11.515059    0.968635   -1.701406
     92          1           0      -11.557524   -1.647742   -2.525957
     93          1           0      -12.968319   -0.590316   -2.147596
     94          1           0      -12.281191   -1.534297   -0.813059
     95          1           0       -7.220160   -5.834548   -0.622163
     96          1           0       -8.349876   -4.884263   -1.654334
     97          1           0       -8.472329   -4.959614    0.120161
     98          1           0       -2.513913   -3.964397   -1.252667
     99          1           0       -0.820075   -5.215611    2.882670
    100          1           0        0.450782   -4.944611    1.670231
    101          1           0       -0.309635   -6.433556    2.002335
    102          1           0        3.511246   -1.713129    0.897828
    103          1           0        3.145783    0.046153    0.725421
    104          1           0        4.717592   -1.058941   -1.559895
    105          1           0        6.685181   -1.518631    1.982231
    106          1           0        5.178052   -0.576578    2.158667
    107          1           0        6.661848    0.261595    1.933268
    108          1           0        7.349474   -1.524868   -1.460073
    109          1           0        8.058766   -0.985608    0.064168
    110          1           0        6.830831    1.280745   -1.211013
    111          1           0        7.597520    0.267024   -2.497871
    112          1           0        9.435625    0.429849   -0.413823
    113          1           0        8.574799    1.909175   -0.161679
    114          1           0       10.304120    2.566284   -1.455293
    115          1           0        7.750908    2.492940   -2.960216
    116          1           0        9.260199    3.122400   -3.791415
    117          1           0        8.800929    3.801805   -2.298101
    118          1           0       10.099980    0.971832   -3.802905
    119          1           0       10.341646   -0.167530   -2.383556
    120          1           0       12.120951    2.288053   -2.337874
    121          1           0       12.307849    1.259388   -3.766482
    122          1           0       13.503892   -0.244513   -2.629687
    123          1           0       12.240513   -0.368633   -1.427014
    124          1           0       13.150886    1.562200   -0.197560
    125          1           0       15.513626    1.332830   -2.007316
    126          1           0       15.289600    2.604418   -0.671583
    127          1           0       14.325515    2.670521   -2.173784
    128          1           0       15.616850   -0.230718   -0.113811
    129          1           0       14.157838   -1.037320   -0.080745
    130          1           0       13.899517    1.225198    1.710820
    131          1           0       15.416596    0.271289    1.969729
    132          1           0       14.031200   -1.087409    3.235267
    133          1           0       13.270964   -1.609774    1.685782
    134          1           0       11.872368    0.690162    2.074587
    135          1           0       11.328553    1.227420    4.252567
    136          1           0       13.017169    1.517921    3.934281
    137          1           0       12.645373    0.106675    4.895271
    138          1           0       11.061465   -1.658139    3.637280
    139          1           0       11.063635   -1.754313    1.862466
    140          1           0       10.067674   -0.567691    2.699559
 ---------------------------------------------------------------------

 SCF Done:  E(RZINDO/S) =  -473.932129142     A.U. after   20 cycles

 Excitation energies and oscillator strengths:

 Excited State   1:      Singlet-A      1.2409 eV  999.17 nm  f=0.6445  <S**2>=0.000
     175 ->178        -0.18743
     176 ->177         0.66374
 This state for optimization and/or second-order correction.
 Total Energy, E(CIS/TDA) =  -473.886527915
 Copying the excited state density for this state as the 1-particle RhoCI density.

 Excited State   2:      Singlet-A      1.9415 eV  638.61 nm  f=0.0469  <S**2>=0.000
     175 ->177         0.55164
     176 ->178         0.41233

 Excited State   3:      Singlet-A      2.9094 eV  426.15 nm  f=0.0332  <S**2>=0.000
     168 ->177         0.31799
     168 ->178        -0.17876
     168 ->179        -0.39886
     168 ->181         0.12364
     168 ->182        -0.10194
     168 ->186        -0.16885
     169 ->177         0.13733
     169 ->179        -0.16046
     176 ->178        -0.10965

 Excited State   4:      Singlet-A      2.9942 eV  414.08 nm  f=0.5433  <S**2>=0.000
     171 ->177         0.11975
     175 ->177        -0.27625
     176 ->178         0.45476
     176 ->179         0.38167

 Excited State   5:      Singlet-A      3.0482 eV  406.75 nm  f=0.4301  <S**2>=0.000
     175 ->177         0.22207
     176 ->178        -0.24707
     176 ->179         0.46825
     176 ->181         0.34683
     176 ->182         0.11029

 The electronic state is 1-A.
 Alpha  occ. eigenvalues --   -1.84306  -1.78787  -1.77109  -1.72460  -1.69233
 Alpha  occ. eigenvalues --   -1.67751  -1.65705  -1.62343  -1.58778  -1.57739
 Alpha  occ. eigenvalues --   -1.54616  -1.51447  -1.48351  -1.48126  -1.44729
 Alpha  occ. eigenvalues --   -1.43666  -1.43041  -1.39428  -1.39086  -1.38589
 Alpha  occ. eigenvalues --   -1.35738  -1.33485  -1.33061  -1.31581  -1.27621
 Alpha  occ. eigenvalues --   -1.27309  -1.24135  -1.21031  -1.19090  -1.17419
 Alpha  occ. eigenvalues --   -1.16482  -1.15752  -1.14303  -1.13542  -1.12410
 Alpha  occ. eigenvalues --   -1.11557  -1.11043  -1.08706  -1.05241  -1.03592
 Alpha  occ. eigenvalues --   -1.02672  -1.01110  -0.99034  -0.97799  -0.97316
 Alpha  occ. eigenvalues --   -0.95177  -0.94757  -0.93670  -0.93304  -0.91586
 Alpha  occ. eigenvalues --   -0.90459  -0.89301  -0.88156  -0.86793  -0.85889
 Alpha  occ. eigenvalues --   -0.85119  -0.83761  -0.83751  -0.81931  -0.80540
 Alpha  occ. eigenvalues --   -0.80007  -0.79007  -0.77203  -0.76970  -0.76449
 Alpha  occ. eigenvalues --   -0.76108  -0.75325  -0.75183  -0.74300  -0.73748
 Alpha  occ. eigenvalues --   -0.72608  -0.71628  -0.71322  -0.70528  -0.70104
 Alpha  occ. eigenvalues --   -0.69564  -0.69076  -0.68834  -0.68151  -0.67690
 Alpha  occ. eigenvalues --   -0.67598  -0.67327  -0.66296  -0.66138  -0.65664
 Alpha  occ. eigenvalues --   -0.64976  -0.64877  -0.64317  -0.63878  -0.63761
 Alpha  occ. eigenvalues --   -0.63476  -0.63006  -0.62960  -0.62574  -0.61888
 Alpha  occ. eigenvalues --   -0.61582  -0.61339  -0.61043  -0.60527  -0.59799
 Alpha  occ. eigenvalues --   -0.59648  -0.59121  -0.58399  -0.58030  -0.57706
 Alpha  occ. eigenvalues --   -0.57219  -0.57097  -0.56876  -0.56645  -0.56360
 Alpha  occ. eigenvalues --   -0.56106  -0.55736  -0.55218  -0.54605  -0.54416
 Alpha  occ. eigenvalues --   -0.54266  -0.53658  -0.53135  -0.53022  -0.52734
 Alpha  occ. eigenvalues --   -0.52704  -0.52440  -0.52152  -0.51657  -0.51375
 Alpha  occ. eigenvalues --   -0.51124  -0.50846  -0.50557  -0.50384  -0.50215
 Alpha  occ. eigenvalues --   -0.49924  -0.49778  -0.49556  -0.49022  -0.48956
 Alpha  occ. eigenvalues --   -0.48770  -0.48577  -0.48319  -0.48075  -0.47922
 Alpha  occ. eigenvalues --   -0.47740  -0.47103  -0.46724  -0.46596  -0.46329
 Alpha  occ. eigenvalues --   -0.46198  -0.46136  -0.45858  -0.45503  -0.45218
 Alpha  occ. eigenvalues --   -0.45165  -0.45070  -0.44602  -0.44280  -0.43935
 Alpha  occ. eigenvalues --   -0.43723  -0.43043  -0.42631  -0.42398  -0.41782
 Alpha  occ. eigenvalues --   -0.41319  -0.41121  -0.41065  -0.39493  -0.38587
 Alpha  occ. eigenvalues --   -0.38485  -0.36511  -0.35425  -0.35220  -0.34459
 Alpha  occ. eigenvalues --   -0.33285  -0.32940  -0.32783  -0.32520  -0.26634
 Alpha  occ. eigenvalues --   -0.21486
 Alpha virt. eigenvalues --   -0.08454  -0.01731  -0.00336   0.01269   0.01619
 Alpha virt. eigenvalues --    0.01774   0.02648   0.03247   0.04849   0.04919
 Alpha virt. eigenvalues --    0.06409   0.06919   0.07463   0.08012   0.08202

 Mulliken charges:
               1
     1  Mg   0.429503
     2  C   -0.052348
     3  C   -0.079833
     4  C   -0.047446
     5  C   -0.071408
     6  N   -0.293632
     7  C    0.136626
     8  C   -0.000583
     9  C    0.012038
    10  C    0.113643
    11  C   -0.049884
    12  C   -0.024306
    13  C    0.007311
    14  C    0.473064
    15  O   -0.504429
    16  O   -0.273884
    17  N   -0.293626
    18  C    0.110820
    19  C   -0.005329
    20  C   -0.059462
    21  C    0.102970
    22  C   -0.049067
    23  C    0.322549
    24  O   -0.505919
    25  C   -0.030994
    26  N   -0.279403
    27  C    0.110796
    28  C    0.000153
    29  C   -0.003386
    30  C    0.145107
    31  C   -0.053329
    32  C   -0.036713
    33  C   -0.062057
    34  N   -0.327937
    35  C    0.113646
    36  C    0.043128
    37  C   -0.042198
    38  C    0.128964
    39  C   -0.041282
    40  C    0.342959
    41  O   -0.531826
    42  C    0.058486
    43  C    0.480654
    44  O   -0.496349
    45  O   -0.263246
    46  C    0.066937
    47  C    0.103376
    48  C   -0.081398
    49  C   -0.006651
    50  C   -0.047469
    51  C   -0.032337
    52  C   -0.031681
    53  C   -0.036547
    54  C   -0.023951
    55  C   -0.057709
    56  C   -0.041116
    57  C   -0.048136
    58  C   -0.048932
    59  C   -0.007811
    60  C   -0.050334
    61  C   -0.034956
    62  C   -0.039171
    63  C   -0.036511
    64  C   -0.016321
    65  C   -0.059892
    66  C   -0.051981
    67  H    0.027959
    68  H    0.047267
    69  H    0.029762
    70  H    0.049969
    71  H    0.025616
    72  H    0.011551
    73  H    0.026243
    74  H    0.027356
    75  H    0.020929
    76  H    0.024328
    77  H    0.029551
    78  H    0.046452
    79  H    0.037472
    80  H    0.022229
    81  H    0.019992
    82  H    0.035133
    83  H    0.041520
    84  H    0.040516
    85  H    0.022687
    86  H    0.033830
    87  H    0.026985
    88  H    0.012116
    89  H    0.030709
    90  H    0.025394
    91  H    0.021600
    92  H    0.026647
    93  H    0.021974
    94  H    0.026044
    95  H    0.035136
    96  H    0.030361
    97  H    0.027102
    98  H    0.054970
    99  H    0.056086
   100  H    0.037463
   101  H    0.025392
   102  H    0.054086
   103  H    0.047195
   104  H    0.029811
   105  H    0.033166
   106  H    0.016375
   107  H    0.026688
   108  H    0.024447
   109  H    0.023718
   110  H    0.020609
   111  H    0.025828
   112  H    0.013031
   113  H    0.008438
   114  H    0.013514
   115  H    0.030947
   116  H    0.017334
   117  H    0.013289
   118  H    0.021866
   119  H    0.033348
   120  H    0.025602
   121  H    0.011169
   122  H    0.017583
   123  H    0.018257
   124  H    0.020597
   125  H    0.027914
   126  H    0.022436
   127  H    0.022072
   128  H    0.014973
   129  H    0.018118
   130  H    0.027043
   131  H    0.015334
   132  H    0.021851
   133  H    0.023529
   134  H    0.011850
   135  H    0.020730
   136  H    0.012268
   137  H    0.022637
   138  H    0.014044
   139  H    0.017360
   140  H    0.012656
 Sum of Mulliken charges =  -0.00000

 Dipole moment (field-independent basis, Debye):
    X=              4.8805    Y=              4.2533    Z=             -5.4584  Tot=              8.4678
 N-N= 4.282720305803D+03 E-N= 0.000000000000D+00  KE=-9.239883590743D+03
 Leave Link  601 at Wed May  4 20:32:05 2022, MaxMem=  6710886400 cpu:               1.1 elap:               0.1
 (Enter /sw/apps/gaussian-16.0/g16/l9999.exe)
 1\1\GINC-BP1-COMPUTE135\SP\RZINDO CIS\STO-3G\C55H74Mg1N4O6\OF15641\04-
 May-2022\0\\#p ZINDO=(nstates=5)\\step_351_chromophore_19 ZINDO\\0,1\M
 g,0,25.558,51.122,26.228\C,0,23.264,52.294,28.688\C,0,27.528,49.857,28
 .745\C,0,27.918,50.629,23.855\C,0,23.515,52.908,23.81\N,0,25.501,51.25
 4,28.469\C,0,24.424,51.71,29.211\C,0,24.641,51.259,30.71\C,0,25.991,50
 .576,30.725\C,0,26.427,50.542,29.214\C,0,27.095,51.219,31.564\C,0,23.4
 62,50.324,31.263\C,0,22.824,50.885,32.53\C,0,23.794,51.5,33.58\O,0,24.

 Normal termination of Gaussian 16 at Wed May  4 20:32:06 2022.
