 Gaussian 16, Revision A.03,
 Gaussian 16:  ES64L-G16RevA.03 25-Dec-2016

 ------------------------------
 #p blyp/Def2SVP td=(nstates=5)
 ------------------------------

 -------------------------------------------------
 step_351_chromophore_2 TDDFT with blyp functional
 -------------------------------------------------
 Symbolic Z-matrix:
 Charge =  0 Multiplicity = 1

                         Standard orientation:
 ---------------------------------------------------------------------
 Center     Atomic      Atomic             Coordinates (Angstroms)
 Number     Number       Type             X           Y           Z
 ---------------------------------------------------------------------
      1         12           0        5.082244    1.152758   -0.531041
      2          6           0        4.794174   -2.350200   -0.152439
      3          6           0        2.255905    1.087762   -2.488679
      4          6           0        4.933389    4.516244   -0.165236
      5          6           0        7.654249    1.118125    1.904309
      6          7           0        3.688433   -0.398533   -1.220257
      7          6           0        3.794629   -1.753122   -0.897234
      8          6           0        2.646401   -2.539604   -1.525693
      9          6           0        2.034005   -1.467273   -2.552647
     10          6           0        2.628777   -0.172338   -2.037290
     11          6           0        2.295850   -1.584663   -4.083073
     12          6           0        1.667477   -3.019225   -0.409938
     13          6           0        1.275066   -4.481870   -0.424242
     14          6           0       -0.209199   -4.912115   -0.531393
     15          8           0       -0.594020   -5.601815   -1.455129
     16          8           0       -1.032046   -4.254407    0.370764
     17          7           0        3.880634    2.617620   -1.293362
     18          6           0        2.779235    2.392917   -2.218721
     19          6           0        2.256130    3.694247   -2.582720
     20          6           0        3.029561    4.724549   -1.971741
     21          6           0        4.031727    3.982420   -1.150930
     22          6           0        1.038841    3.911169   -3.591094
     23          6           0        2.727430    6.225674   -2.018541
     24          8           0        1.786020    6.609222   -2.720266
     25          6           0        3.628714    7.211015   -1.463295
     26          7           0        6.089984    2.576968    0.718214
     27          6           0        5.854979    3.877656    0.720203
     28          6           0        6.670009    4.793270    1.683453
     29          6           0        7.493820    3.634307    2.337396
     30          6           0        7.077525    2.364846    1.654856
     31          6           0        7.561939    5.807712    0.989437
     32          6           0        7.526600    3.566160    3.896775
     33          6           0        8.861625    3.234835    4.544706
     34          7           0        6.193578   -0.265258    0.519815
     35          6           0        7.159071   -0.100871    1.513479
     36          6           0        7.757874   -1.450583    1.779733
     37          6           0        6.732814   -2.342893    1.204143
     38          6           0        5.785976   -1.555863    0.484152
     39          6           0        8.890479   -1.791146    2.679588
     40          6           0        6.379407   -3.769675    0.992564
     41          8           0        6.945195   -4.794642    1.341788
     42          6           0        5.092780   -3.845685    0.219373
     43          6           0        5.372065   -4.814321   -0.882229
     44          8           0        5.248419   -6.024832   -0.844582
     45          8           0        5.759246   -4.061491   -1.986676
     46          6           0        5.924031   -4.829204   -3.295209
     47          6           0       -2.503030   -4.637100    0.305044
     48          6           0       -3.292608   -3.427425    0.673106
     49          6           0       -3.828431   -3.164167    1.929935
     50          6           0       -3.707424   -3.969009    3.250863
     51          6           0       -4.479675   -1.804575    2.008848
     52          6           0       -5.857946   -1.745236    1.319173
     53          6           0       -6.913477   -0.830799    2.035349
     54          6           0       -7.291405    0.421631    1.166060
     55          6           0       -7.742704    1.683796    1.956785
     56          6           0       -8.259271   -0.051555    0.112564
     57          6           0       -9.715502    0.054514    0.441016
     58          6           0      -10.497563    1.061079   -0.476564
     59          6           0      -11.565222    0.298716   -1.345467
     60          6           0      -11.216875    0.345750   -2.899795
     61          6           0      -13.053096    0.815896   -1.209463
     62          6           0      -13.910186    0.537137    0.013912
     63          6           0      -14.579673    1.705724    0.618073
     64          6           0      -15.953240    1.397423    1.267653
     65          6           0      -17.069217    1.451098    0.181077
     66          6           0      -16.186751    2.155299    2.637503
     67          1           0        1.530504    1.170562   -3.300730
     68          1           0        4.936290    5.594446    0.007464
     69          1           0        8.543266    1.079422    2.538118
     70          1           0        2.983071   -3.411705   -2.086844
     71          1           0        0.961491   -1.572385   -2.384636
     72          1           0        3.235521   -2.091396   -4.302498
     73          1           0        2.497965   -0.605546   -4.517719
     74          1           0        1.507949   -2.237218   -4.458046
     75          1           0        0.724433   -2.476153   -0.469654
     76          1           0        2.064078   -2.802871    0.582019
     77          1           0        1.623095   -4.983087    0.479016
     78          1           0        1.624863   -4.895413   -1.369960
     79          1           0        0.160613    4.309004   -3.081162
     80          1           0        0.689574    3.002838   -4.081537
     81          1           0        1.392989    4.692075   -4.263437
     82          1           0        3.433862    8.213774   -1.842093
     83          1           0        4.688740    6.976127   -1.554671
     84          1           0        3.541874    7.134797   -0.378594
     85          1           0        6.097397    5.271224    2.478424
     86          1           0        8.517594    3.822711    2.015266
     87          1           0        7.060727    6.718500    1.318003
     88          1           0        7.602583    5.720656   -0.095737
     89          1           0        8.561260    5.870380    1.420762
     90          1           0        6.963788    2.675345    4.174524
     91          1           0        7.144905    4.493132    4.325100
     92          1           0        8.864189    2.303183    5.109488
     93          1           0        9.249873    4.044264    5.162714
     94          1           0        9.563213    3.039103    3.732942
     95          1           0        9.013917   -2.869536    2.581301
     96          1           0        8.575907   -1.415041    3.653724
     97          1           0        9.812206   -1.235373    2.510112
     98          1           0        4.254364   -4.107794    0.864375
     99          1           0        5.812842   -5.902353   -3.139827
    100          1           0        6.867911   -4.561618   -3.770245
    101          1           0        5.165108   -4.541049   -4.022387
    102          1           0       -2.688941   -5.458626    0.996676
    103          1           0       -2.865055   -4.893340   -0.690861
    104          1           0       -3.492748   -2.715140   -0.126884
    105          1           0       -3.168574   -3.475034    4.059209
    106          1           0       -3.222049   -4.921127    3.042343
    107          1           0       -4.706800   -4.186800    3.627621
    108          1           0       -3.870318   -1.142087    1.395096
    109          1           0       -4.598335   -1.507269    3.051074
    110          1           0       -6.254517   -2.760312    1.335087
    111          1           0       -5.750173   -1.457605    0.273552
    112          1           0       -6.612382   -0.484207    3.024035
    113          1           0       -7.825330   -1.414218    2.160281
    114          1           0       -6.385494    0.702719    0.628878
    115          1           0       -6.922825    2.392222    1.845497
    116          1           0       -7.772575    1.349323    2.994531
    117          1           0       -8.639798    2.218288    1.644282
    118          1           0       -8.081397   -1.070456   -0.230048
    119          1           0       -8.141016    0.507609   -0.816037
    120          1           0       -9.979787    0.409588    1.437579
    121          1           0      -10.088390   -0.968272    0.395216
    122          1           0       -9.906550    1.769507   -1.057028
    123          1           0      -11.076224    1.691401    0.199732
    124          1           0      -11.652553   -0.698147   -0.913200
    125          1           0      -10.802959   -0.624046   -3.179140
    126          1           0      -10.448004    1.084750   -3.124340
    127          1           0      -12.115644    0.452437   -3.507468
    128          1           0      -13.563003    0.361995   -2.060287
    129          1           0      -13.055567    1.891929   -1.382312
    130          1           0      -13.183204    0.134498    0.719802
    131          1           0      -14.630623   -0.264582   -0.147989
    132          1           0      -14.724900    2.543814   -0.063202
    133          1           0      -13.953540    2.164508    1.383242
    134          1           0      -15.969913    0.320741    1.434662
    135          1           0      -16.808038    1.271337   -0.861588
    136          1           0      -17.534019    2.436395    0.223420
    137          1           0      -17.643992    0.541936    0.359824
    138          1           0      -16.169787    1.417988    3.440215
    139          1           0      -17.157903    2.648160    2.598276
    140          1           0      -15.343247    2.819440    2.826159
 ---------------------------------------------------------------------

 SCF Done:  E(RB-LYP) =  -3007.34793709     A.U. after   21 cycles

 Excitation energies and oscillator strengths:

 Excited State   1:      Singlet-A      1.7981 eV  689.53 nm  f=0.2771  <S**2>=0.000
     244 -> 247        0.11234
     245 -> 248        0.19219
     246 -> 247        0.67965
     246 <- 247       -0.14682
 This state for optimization and/or second-order correction.
 Total Energy, E(TD-HF/TD-DFT) =  -3007.28185810
 Copying the excited state density for this state as the 1-particle RhoCI density.

 Excited State   2:      Singlet-A      1.8989 eV  652.93 nm  f=0.0168  <S**2>=0.000
     244 -> 247        0.65999
     245 -> 247       -0.21534
     246 -> 247       -0.10680

 Excited State   3:      Singlet-A      1.9285 eV  642.89 nm  f=0.0004  <S**2>=0.000
     243 -> 247        0.70476

 Excited State   4:      Singlet-A      2.0562 eV  602.99 nm  f=0.0600  <S**2>=0.000
     244 -> 247        0.21470
     245 -> 247        0.59461
     246 -> 248       -0.26785

 Excited State   5:      Singlet-A      2.2535 eV  550.18 nm  f=0.0009  <S**2>=0.000
     241 -> 247        0.69013
     242 -> 247        0.14213

 The electronic state is 1-A.
 Alpha  occ. eigenvalues --  -46.26815 -18.82320 -18.81713 -18.77049 -18.76530
 Alpha  occ. eigenvalues --  -18.75392 -18.75266 -14.03743 -14.03649 -14.01277
 Alpha  occ. eigenvalues --  -14.01033 -10.04315 -10.03584  -9.99862  -9.99505
 Alpha  occ. eigenvalues --   -9.98112  -9.97579  -9.96900  -9.96674  -9.96664
 Alpha  occ. eigenvalues --   -9.96616  -9.96573  -9.96128  -9.95771  -9.94823
 Alpha  occ. eigenvalues --   -9.94665  -9.94608  -9.94539  -9.94278  -9.94253
 Alpha  occ. eigenvalues --   -9.94183  -9.94076  -9.94066  -9.93676  -9.93314
 Alpha  occ. eigenvalues --   -9.93175  -9.93097  -9.93082  -9.93072  -9.93051
 Alpha  occ. eigenvalues --   -9.92962  -9.92902  -9.92867  -9.92866  -9.92775
 Alpha  occ. eigenvalues --   -9.92231  -9.92225  -9.92166  -9.92011  -9.91996
 Alpha  occ. eigenvalues --   -9.91827  -9.91816  -9.91691  -9.91654  -9.91629
 Alpha  occ. eigenvalues --   -9.91505  -9.91248  -9.91057  -9.91054  -9.90853
 Alpha  occ. eigenvalues --   -9.90728  -9.90612  -9.90438  -9.90296  -9.90192
 Alpha  occ. eigenvalues --   -9.90167  -2.91517  -1.71943  -1.71410  -1.71220
 Alpha  occ. eigenvalues --   -0.96733  -0.96439  -0.91383  -0.91011  -0.89477
 Alpha  occ. eigenvalues --   -0.89257  -0.87478  -0.85855  -0.84781  -0.83129
 Alpha  occ. eigenvalues --   -0.75619  -0.73746  -0.73422  -0.72843  -0.72539
 Alpha  occ. eigenvalues --   -0.72128  -0.71952  -0.70992  -0.70147  -0.69759
 Alpha  occ. eigenvalues --   -0.69036  -0.68710  -0.68405  -0.68067  -0.67470
 Alpha  occ. eigenvalues --   -0.66414  -0.66331  -0.65312  -0.64909  -0.64794
 Alpha  occ. eigenvalues --   -0.64066  -0.62771  -0.62438  -0.61569  -0.61187
 Alpha  occ. eigenvalues --   -0.60999  -0.60334  -0.59792  -0.59638  -0.58689
 Alpha  occ. eigenvalues --   -0.57631  -0.57109  -0.56849  -0.55596  -0.54901
 Alpha  occ. eigenvalues --   -0.53780  -0.53584  -0.52457  -0.52262  -0.51969
 Alpha  occ. eigenvalues --   -0.51821  -0.51275  -0.50662  -0.50377  -0.49335
 Alpha  occ. eigenvalues --   -0.49170  -0.49123  -0.48455  -0.47697  -0.46832
 Alpha  occ. eigenvalues --   -0.46525  -0.46374  -0.45754  -0.45362  -0.44459
 Alpha  occ. eigenvalues --   -0.43875  -0.43643  -0.43130  -0.43092  -0.42721
 Alpha  occ. eigenvalues --   -0.42611  -0.42172  -0.41588  -0.41401  -0.40974
 Alpha  occ. eigenvalues --   -0.40822  -0.40476  -0.40444  -0.40081  -0.39977
 Alpha  occ. eigenvalues --   -0.39919  -0.39629  -0.39471  -0.39209  -0.38986
 Alpha  occ. eigenvalues --   -0.38851  -0.38750  -0.38664  -0.38524  -0.38327
 Alpha  occ. eigenvalues --   -0.38162  -0.37935  -0.37490  -0.37369  -0.37283
 Alpha  occ. eigenvalues --   -0.37074  -0.36906  -0.36853  -0.36773  -0.36700
 Alpha  occ. eigenvalues --   -0.36507  -0.36246  -0.35913  -0.35711  -0.35641
 Alpha  occ. eigenvalues --   -0.35405  -0.35046  -0.34779  -0.34586  -0.34511
 Alpha  occ. eigenvalues --   -0.34460  -0.34210  -0.34151  -0.34058  -0.33846
 Alpha  occ. eigenvalues --   -0.33692  -0.33654  -0.33477  -0.33385  -0.33150
 Alpha  occ. eigenvalues --   -0.33005  -0.32828  -0.32687  -0.32602  -0.32533
 Alpha  occ. eigenvalues --   -0.32337  -0.32248  -0.31895  -0.31884  -0.31665
 Alpha  occ. eigenvalues --   -0.31406  -0.31212  -0.30915  -0.30842  -0.30634
 Alpha  occ. eigenvalues --   -0.30437  -0.30164  -0.30003  -0.29930  -0.29817
 Alpha  occ. eigenvalues --   -0.29805  -0.29636  -0.29570  -0.29428  -0.29133
 Alpha  occ. eigenvalues --   -0.28949  -0.28537  -0.28346  -0.28053  -0.27723
 Alpha  occ. eigenvalues --   -0.27674  -0.27102  -0.26653  -0.26507  -0.26502
 Alpha  occ. eigenvalues --   -0.26352  -0.26066  -0.25899  -0.25189  -0.25008
 Alpha  occ. eigenvalues --   -0.24930  -0.24694  -0.24158  -0.24032  -0.23771
 Alpha  occ. eigenvalues --   -0.23392  -0.22770  -0.22001  -0.21695  -0.20464
 Alpha  occ. eigenvalues --   -0.19947  -0.19709  -0.18674  -0.18582  -0.17582
 Alpha  occ. eigenvalues --   -0.15930
 Alpha virt. eigenvalues --   -0.11670  -0.07328  -0.06116  -0.04996  -0.04130
 Alpha virt. eigenvalues --   -0.02769  -0.02592  -0.02109  -0.01714  -0.00070
 Alpha virt. eigenvalues --    0.00835   0.01364   0.02072   0.02480   0.02727

 Mulliken charges:
               1
     1  Mg   0.703002
     2  C   -0.047151
     3  C   -0.047038
     4  C   -0.041001
     5  C   -0.105305
     6  N   -0.222798
     7  C   -0.047065
     8  C   -0.014642
     9  C    0.017654
    10  C    0.042017
    11  C    0.146117
    12  C    0.134400
    13  C    0.126317
    14  C    0.046269
    15  O   -0.183453
    16  O   -0.292506
    17  N   -0.355551
    18  C    0.111026
    19  C   -0.136881
    20  C    0.019872
    21  C    0.153180
    22  C    0.173357
    23  C   -0.064290
    24  O   -0.182412
    25  C    0.157695
    26  N   -0.177725
    27  C   -0.035020
    28  C   -0.013435
    29  C    0.054739
    30  C    0.038379
    31  C    0.134328
    32  C    0.104701
    33  C    0.052923
    34  N   -0.298925
    35  C    0.134582
    36  C   -0.181015
    37  C    0.048328
    38  C    0.108490
    39  C    0.171475
    40  C   -0.097405
    41  O   -0.127979
    42  C    0.144550
    43  C    0.139495
    44  O   -0.141912
    45  O   -0.304517
    46  C    0.193568
    47  C    0.335421
    48  C   -0.123285
    49  C   -0.142695
    50  C    0.146167
    51  C    0.160813
    52  C    0.046012
    53  C    0.106669
    54  C   -0.070396
    55  C    0.124389
    56  C    0.111351
    57  C    0.044900
    58  C    0.109459
    59  C   -0.072931
    60  C    0.111652
    61  C    0.052044
    62  C    0.120446
    63  C    0.103516
    64  C   -0.124300
    65  C    0.091032
    66  C    0.124556
    67  H   -0.056055
    68  H   -0.104367
    69  H   -0.069544
    70  H   -0.022559
    71  H   -0.031379
    72  H   -0.022962
    73  H   -0.000667
    74  H    0.005602
    75  H   -0.017290
    76  H   -0.016788
    77  H    0.010858
    78  H   -0.004895
    79  H    0.002433
    80  H   -0.020619
    81  H    0.015657
    82  H    0.000999
    83  H    0.006487
    84  H    0.010791
    85  H   -0.016113
    86  H   -0.032759
    87  H   -0.010594
    88  H    0.009606
    89  H   -0.004305
    90  H   -0.014145
    91  H   -0.018953
    92  H   -0.006651
    93  H   -0.005459
    94  H   -0.015083
    95  H    0.028483
    96  H    0.005205
    97  H   -0.008238
    98  H    0.016772
    99  H    0.036261
   100  H    0.023331
   101  H    0.014152
   102  H   -0.006627
   103  H    0.001892
   104  H   -0.030788
   105  H    0.014001
   106  H   -0.017173
   107  H   -0.001747
   108  H   -0.016982
   109  H   -0.037596
   110  H   -0.034227
   111  H   -0.012664
   112  H   -0.038484
   113  H   -0.036288
   114  H   -0.045825
   115  H   -0.020027
   116  H   -0.020710
   117  H   -0.001241
   118  H   -0.045798
   119  H   -0.049123
   120  H   -0.028909
   121  H   -0.029061
   122  H   -0.025116
   123  H   -0.043560
   124  H   -0.039026
   125  H   -0.022186
   126  H   -0.011628
   127  H   -0.016206
   128  H   -0.040244
   129  H   -0.036325
   130  H   -0.045323
   131  H   -0.033193
   132  H   -0.036452
   133  H   -0.051907
   134  H   -0.038910
   135  H   -0.022200
   136  H   -0.006632
   137  H   -0.018603
   138  H   -0.012069
   139  H   -0.012229
   140  H   -0.011286
 Sum of Mulliken charges =  -0.00000

 Dipole moment (field-independent basis, Debye):
    X=              0.7031    Y=              4.5798    Z=              2.0187  Tot=              5.0541
 Quadrupole moment (field-independent basis, Debye-Ang):
   XX=           -380.8955   YY=           -451.1279   ZZ=           -390.6369
   XY=             58.9630   XZ=             -7.3178   YZ=             21.5386

 Normal termination of Gaussian 16 at Fri Apr 29 15:30:11 2022.
