 Gaussian 16, Revision A.03,
 Gaussian 16:  ES64L-G16RevA.03 25-Dec-2016

 -----------------------------------
 #p cam-b3lyp/Def2SVP td=(nstates=5)
 -----------------------------------

 ------------------------------------------------------
 step_351_chromophore_2 TDDFT with cam-b3lyp functional
 ------------------------------------------------------
 Symbolic Z-matrix:
 Charge =  0 Multiplicity = 1

                         Standard orientation:
 ---------------------------------------------------------------------
 Center     Atomic      Atomic             Coordinates (Angstroms)
 Number     Number       Type             X           Y           Z
 ---------------------------------------------------------------------
      1         12           0        5.082244    1.152758   -0.531041
      2          6           0        4.794174   -2.350200   -0.152439
      3          6           0        2.255905    1.087762   -2.488679
      4          6           0        4.933389    4.516244   -0.165236
      5          6           0        7.654249    1.118125    1.904309
      6          7           0        3.688433   -0.398533   -1.220257
      7          6           0        3.794629   -1.753122   -0.897234
      8          6           0        2.646401   -2.539604   -1.525693
      9          6           0        2.034005   -1.467273   -2.552647
     10          6           0        2.628777   -0.172338   -2.037290
     11          6           0        2.295850   -1.584663   -4.083073
     12          6           0        1.667477   -3.019225   -0.409938
     13          6           0        1.275066   -4.481870   -0.424242
     14          6           0       -0.209199   -4.912115   -0.531393
     15          8           0       -0.594020   -5.601815   -1.455129
     16          8           0       -1.032046   -4.254407    0.370764
     17          7           0        3.880634    2.617620   -1.293362
     18          6           0        2.779235    2.392917   -2.218721
     19          6           0        2.256130    3.694247   -2.582720
     20          6           0        3.029561    4.724549   -1.971741
     21          6           0        4.031727    3.982420   -1.150930
     22          6           0        1.038841    3.911169   -3.591094
     23          6           0        2.727430    6.225674   -2.018541
     24          8           0        1.786020    6.609222   -2.720266
     25          6           0        3.628714    7.211015   -1.463295
     26          7           0        6.089984    2.576968    0.718214
     27          6           0        5.854979    3.877656    0.720203
     28          6           0        6.670009    4.793270    1.683453
     29          6           0        7.493820    3.634307    2.337396
     30          6           0        7.077525    2.364846    1.654856
     31          6           0        7.561939    5.807712    0.989437
     32          6           0        7.526600    3.566160    3.896775
     33          6           0        8.861625    3.234835    4.544706
     34          7           0        6.193578   -0.265258    0.519815
     35          6           0        7.159071   -0.100871    1.513479
     36          6           0        7.757874   -1.450583    1.779733
     37          6           0        6.732814   -2.342893    1.204143
     38          6           0        5.785976   -1.555863    0.484152
     39          6           0        8.890479   -1.791146    2.679588
     40          6           0        6.379407   -3.769675    0.992564
     41          8           0        6.945195   -4.794642    1.341788
     42          6           0        5.092780   -3.845685    0.219373
     43          6           0        5.372065   -4.814321   -0.882229
     44          8           0        5.248419   -6.024832   -0.844582
     45          8           0        5.759246   -4.061491   -1.986676
     46          6           0        5.924031   -4.829204   -3.295209
     47          6           0       -2.503030   -4.637100    0.305044
     48          6           0       -3.292608   -3.427425    0.673106
     49          6           0       -3.828431   -3.164167    1.929935
     50          6           0       -3.707424   -3.969009    3.250863
     51          6           0       -4.479675   -1.804575    2.008848
     52          6           0       -5.857946   -1.745236    1.319173
     53          6           0       -6.913477   -0.830799    2.035349
     54          6           0       -7.291405    0.421631    1.166060
     55          6           0       -7.742704    1.683796    1.956785
     56          6           0       -8.259271   -0.051555    0.112564
     57          6           0       -9.715502    0.054514    0.441016
     58          6           0      -10.497563    1.061079   -0.476564
     59          6           0      -11.565222    0.298716   -1.345467
     60          6           0      -11.216875    0.345750   -2.899795
     61          6           0      -13.053096    0.815896   -1.209463
     62          6           0      -13.910186    0.537137    0.013912
     63          6           0      -14.579673    1.705724    0.618073
     64          6           0      -15.953240    1.397423    1.267653
     65          6           0      -17.069217    1.451098    0.181077
     66          6           0      -16.186751    2.155299    2.637503
     67          1           0        1.530504    1.170562   -3.300730
     68          1           0        4.936290    5.594446    0.007464
     69          1           0        8.543266    1.079422    2.538118
     70          1           0        2.983071   -3.411705   -2.086844
     71          1           0        0.961491   -1.572385   -2.384636
     72          1           0        3.235521   -2.091396   -4.302498
     73          1           0        2.497965   -0.605546   -4.517719
     74          1           0        1.507949   -2.237218   -4.458046
     75          1           0        0.724433   -2.476153   -0.469654
     76          1           0        2.064078   -2.802871    0.582019
     77          1           0        1.623095   -4.983087    0.479016
     78          1           0        1.624863   -4.895413   -1.369960
     79          1           0        0.160613    4.309004   -3.081162
     80          1           0        0.689574    3.002838   -4.081537
     81          1           0        1.392989    4.692075   -4.263437
     82          1           0        3.433862    8.213774   -1.842093
     83          1           0        4.688740    6.976127   -1.554671
     84          1           0        3.541874    7.134797   -0.378594
     85          1           0        6.097397    5.271224    2.478424
     86          1           0        8.517594    3.822711    2.015266
     87          1           0        7.060727    6.718500    1.318003
     88          1           0        7.602583    5.720656   -0.095737
     89          1           0        8.561260    5.870380    1.420762
     90          1           0        6.963788    2.675345    4.174524
     91          1           0        7.144905    4.493132    4.325100
     92          1           0        8.864189    2.303183    5.109488
     93          1           0        9.249873    4.044264    5.162714
     94          1           0        9.563213    3.039103    3.732942
     95          1           0        9.013917   -2.869536    2.581301
     96          1           0        8.575907   -1.415041    3.653724
     97          1           0        9.812206   -1.235373    2.510112
     98          1           0        4.254364   -4.107794    0.864375
     99          1           0        5.812842   -5.902353   -3.139827
    100          1           0        6.867911   -4.561618   -3.770245
    101          1           0        5.165108   -4.541049   -4.022387
    102          1           0       -2.688941   -5.458626    0.996676
    103          1           0       -2.865055   -4.893340   -0.690861
    104          1           0       -3.492748   -2.715140   -0.126884
    105          1           0       -3.168574   -3.475034    4.059209
    106          1           0       -3.222049   -4.921127    3.042343
    107          1           0       -4.706800   -4.186800    3.627621
    108          1           0       -3.870318   -1.142087    1.395096
    109          1           0       -4.598335   -1.507269    3.051074
    110          1           0       -6.254517   -2.760312    1.335087
    111          1           0       -5.750173   -1.457605    0.273552
    112          1           0       -6.612382   -0.484207    3.024035
    113          1           0       -7.825330   -1.414218    2.160281
    114          1           0       -6.385494    0.702719    0.628878
    115          1           0       -6.922825    2.392222    1.845497
    116          1           0       -7.772575    1.349323    2.994531
    117          1           0       -8.639798    2.218288    1.644282
    118          1           0       -8.081397   -1.070456   -0.230048
    119          1           0       -8.141016    0.507609   -0.816037
    120          1           0       -9.979787    0.409588    1.437579
    121          1           0      -10.088390   -0.968272    0.395216
    122          1           0       -9.906550    1.769507   -1.057028
    123          1           0      -11.076224    1.691401    0.199732
    124          1           0      -11.652553   -0.698147   -0.913200
    125          1           0      -10.802959   -0.624046   -3.179140
    126          1           0      -10.448004    1.084750   -3.124340
    127          1           0      -12.115644    0.452437   -3.507468
    128          1           0      -13.563003    0.361995   -2.060287
    129          1           0      -13.055567    1.891929   -1.382312
    130          1           0      -13.183204    0.134498    0.719802
    131          1           0      -14.630623   -0.264582   -0.147989
    132          1           0      -14.724900    2.543814   -0.063202
    133          1           0      -13.953540    2.164508    1.383242
    134          1           0      -15.969913    0.320741    1.434662
    135          1           0      -16.808038    1.271337   -0.861588
    136          1           0      -17.534019    2.436395    0.223420
    137          1           0      -17.643992    0.541936    0.359824
    138          1           0      -16.169787    1.417988    3.440215
    139          1           0      -17.157903    2.648160    2.598276
    140          1           0      -15.343247    2.819440    2.826159
 ---------------------------------------------------------------------

 SCF Done:  E(RCAM-B3LYP) =  -3007.12834818     A.U. after   19 cycles

 Excitation energies and oscillator strengths:

 Excited State   1:      Singlet-A      1.6830 eV  736.69 nm  f=0.3644  <S**2>=0.000
     245 -> 248       -0.18463
     246 -> 247        0.68446
     245 <- 248       -0.11001
 This state for optimization and/or second-order correction.
 Total Energy, E(TD-HF/TD-DFT) =  -3007.06649909
 Copying the excited state density for this state as the 1-particle RhoCI density.

 Excited State   2:      Singlet-A      2.2605 eV  548.48 nm  f=0.0839  <S**2>=0.000
     245 -> 247        0.61891
     246 -> 248        0.32614

 Excited State   3:      Singlet-A      3.2174 eV  385.35 nm  f=0.0093  <S**2>=0.000
     242 -> 247       -0.16662
     244 -> 247        0.66758

 Excited State   4:      Singlet-A      3.3748 eV  367.38 nm  f=0.0884  <S**2>=0.000
     242 -> 247        0.57728
     244 -> 247        0.14179
     245 -> 247        0.10777
     246 -> 248       -0.33621

 Excited State   5:      Singlet-A      3.5183 eV  352.40 nm  f=0.7246  <S**2>=0.000
     241 -> 247        0.13519
     241 -> 249       -0.10095
     242 -> 247        0.32749
     245 -> 247       -0.30901
     246 -> 248        0.49681

 The electronic state is 1-A.
 Alpha  occ. eigenvalues --  -46.88338 -19.25180 -19.24603 -19.20069 -19.19510
 Alpha  occ. eigenvalues --  -19.18599 -19.18598 -14.42657 -14.42586 -14.39869
 Alpha  occ. eigenvalues --  -14.39377 -10.39745 -10.38873 -10.35148 -10.34754
 Alpha  occ. eigenvalues --  -10.32174 -10.31793 -10.31490 -10.31258 -10.31222
 Alpha  occ. eigenvalues --  -10.31053 -10.30998 -10.30712 -10.29914 -10.29087
 Alpha  occ. eigenvalues --  -10.29070 -10.28998 -10.28957 -10.28632 -10.28371
 Alpha  occ. eigenvalues --  -10.28302 -10.28273 -10.28240 -10.27559 -10.27510
 Alpha  occ. eigenvalues --  -10.27368 -10.27082 -10.27034 -10.26989 -10.26916
 Alpha  occ. eigenvalues --  -10.26912 -10.26790 -10.26789 -10.26580 -10.26389
 Alpha  occ. eigenvalues --  -10.26276 -10.26101 -10.25966 -10.25856 -10.25810
 Alpha  occ. eigenvalues --  -10.25731 -10.25495 -10.25490 -10.25412 -10.25394
 Alpha  occ. eigenvalues --  -10.25204 -10.24872 -10.24758 -10.24648 -10.24497
 Alpha  occ. eigenvalues --  -10.24327 -10.24257 -10.24039 -10.23985 -10.23795
 Alpha  occ. eigenvalues --  -10.23793  -3.16946  -1.91848  -1.91408  -1.91245
 Alpha  occ. eigenvalues --   -1.15211  -1.14891  -1.09781  -1.09505  -1.07300
 Alpha  occ. eigenvalues --   -1.07080  -1.05231  -1.03557  -1.02227  -1.00704
 Alpha  occ. eigenvalues --   -0.92722  -0.90615  -0.90127  -0.89642  -0.89294
 Alpha  occ. eigenvalues --   -0.88856  -0.88637  -0.87596  -0.86700  -0.86206
 Alpha  occ. eigenvalues --   -0.85424  -0.85375  -0.84649  -0.84344  -0.83733
 Alpha  occ. eigenvalues --   -0.82547  -0.82437  -0.81268  -0.80703  -0.80629
 Alpha  occ. eigenvalues --   -0.79849  -0.78340  -0.78033  -0.77064  -0.76795
 Alpha  occ. eigenvalues --   -0.76393  -0.75704  -0.75121  -0.74950  -0.73946
 Alpha  occ. eigenvalues --   -0.72633  -0.72048  -0.71739  -0.70418  -0.69493
 Alpha  occ. eigenvalues --   -0.68387  -0.68167  -0.66920  -0.66615  -0.66168
 Alpha  occ. eigenvalues --   -0.66073  -0.65360  -0.64715  -0.64450  -0.63364
 Alpha  occ. eigenvalues --   -0.62831  -0.62788  -0.62366  -0.61438  -0.60451
 Alpha  occ. eigenvalues --   -0.60095  -0.59907  -0.59159  -0.58822  -0.58022
 Alpha  occ. eigenvalues --   -0.57405  -0.56816  -0.56403  -0.56266  -0.55808
 Alpha  occ. eigenvalues --   -0.55704  -0.55032  -0.54417  -0.54226  -0.54066
 Alpha  occ. eigenvalues --   -0.53771  -0.53214  -0.53098  -0.52879  -0.52731
 Alpha  occ. eigenvalues --   -0.52553  -0.52484  -0.52094  -0.51832  -0.51682
 Alpha  occ. eigenvalues --   -0.51524  -0.51461  -0.51241  -0.51028  -0.50682
 Alpha  occ. eigenvalues --   -0.50428  -0.50292  -0.49892  -0.49651  -0.49565
 Alpha  occ. eigenvalues --   -0.49424  -0.49243  -0.49173  -0.49031  -0.48812
 Alpha  occ. eigenvalues --   -0.48533  -0.48489  -0.48177  -0.48008  -0.47903
 Alpha  occ. eigenvalues --   -0.47656  -0.47175  -0.46796  -0.46526  -0.46431
 Alpha  occ. eigenvalues --   -0.46327  -0.46318  -0.46141  -0.45926  -0.45724
 Alpha  occ. eigenvalues --   -0.45539  -0.45364  -0.45253  -0.45100  -0.44891
 Alpha  occ. eigenvalues --   -0.44652  -0.44475  -0.44388  -0.44275  -0.44208
 Alpha  occ. eigenvalues --   -0.44058  -0.43961  -0.43416  -0.43382  -0.43298
 Alpha  occ. eigenvalues --   -0.43118  -0.42709  -0.42494  -0.42289  -0.41890
 Alpha  occ. eigenvalues --   -0.41713  -0.41568  -0.41426  -0.41397  -0.41272
 Alpha  occ. eigenvalues --   -0.41027  -0.40912  -0.40866  -0.40686  -0.40364
 Alpha  occ. eigenvalues --   -0.40059  -0.39498  -0.39297  -0.39225  -0.38623
 Alpha  occ. eigenvalues --   -0.38538  -0.37957  -0.37717  -0.37438  -0.37259
 Alpha  occ. eigenvalues --   -0.37204  -0.36944  -0.36712  -0.36646  -0.36407
 Alpha  occ. eigenvalues --   -0.35589  -0.35304  -0.34966  -0.34669  -0.34572
 Alpha  occ. eigenvalues --   -0.33822  -0.33667  -0.33374  -0.31326  -0.31249
 Alpha  occ. eigenvalues --   -0.30643  -0.29909  -0.29616  -0.28848  -0.24406
 Alpha  occ. eigenvalues --   -0.21159
 Alpha virt. eigenvalues --   -0.08782  -0.02257   0.00360   0.01966   0.02508
 Alpha virt. eigenvalues --    0.03255   0.04779   0.05364   0.06014   0.06443
 Alpha virt. eigenvalues --    0.07897   0.08049   0.08399   0.08562   0.09085

 Mulliken charges:
               1
     1  Mg   0.836032
     2  C   -0.063524
     3  C   -0.060574
     4  C   -0.065380
     5  C   -0.113068
     6  N   -0.293083
     7  C   -0.006638
     8  C   -0.063899
     9  C   -0.028879
    10  C    0.054731
    11  C    0.086528
    12  C    0.078514
    13  C    0.056801
    14  C    0.132068
    15  O   -0.226012
    16  O   -0.356980
    17  N   -0.440768
    18  C    0.119767
    19  C   -0.143619
    20  C   -0.046650
    21  C    0.184305
    22  C    0.124437
    23  C    0.017772
    24  O   -0.221623
    25  C    0.063842
    26  N   -0.250146
    27  C   -0.011337
    28  C   -0.060924
    29  C   -0.005078
    30  C    0.056951
    31  C    0.072291
    32  C    0.044526
    33  C   -0.008498
    34  N   -0.383175
    35  C    0.135549
    36  C   -0.159866
    37  C   -0.035444
    38  C    0.140214
    39  C    0.111287
    40  C    0.002119
    41  O   -0.165704
    42  C    0.069912
    43  C    0.221132
    44  O   -0.182816
    45  O   -0.368452
    46  C    0.162000
    47  C    0.300986
    48  C   -0.145059
    49  C   -0.162271
    50  C    0.089867
    51  C    0.094430
    52  C   -0.003399
    53  C    0.050287
    54  C   -0.125259
    55  C    0.063872
    56  C    0.058604
    57  C   -0.013157
    58  C    0.053871
    59  C   -0.123821
    60  C    0.052407
    61  C    0.004187
    62  C    0.060218
    63  C    0.048696
    64  C   -0.181852
    65  C    0.032268
    66  C    0.064831
    67  H   -0.023335
    68  H   -0.069590
    69  H   -0.033843
    70  H    0.010021
    71  H    0.004556
    72  H    0.001261
    73  H    0.025114
    74  H    0.030271
    75  H    0.015515
    76  H    0.016088
    77  H    0.039787
    78  H    0.027162
    79  H    0.030496
    80  H    0.004899
    81  H    0.042324
    82  H    0.037666
    83  H    0.035714
    84  H    0.037870
    85  H    0.018884
    86  H    0.002645
    87  H    0.012764
    88  H    0.035415
    89  H    0.021867
    90  H    0.017131
    91  H    0.009175
    92  H    0.017256
    93  H    0.019326
    94  H    0.005992
    95  H    0.054380
    96  H    0.029615
    97  H    0.017021
    98  H    0.055256
    99  H    0.062239
   100  H    0.045153
   101  H    0.031683
   102  H    0.020477
   103  H    0.034114
   104  H    0.001410
   105  H    0.038406
   106  H    0.006501
   107  H    0.021462
   108  H    0.014378
   109  H   -0.006738
   110  H   -0.003915
   111  H    0.010984
   112  H   -0.009824
   113  H   -0.007520
   114  H   -0.012692
   115  H    0.005226
   116  H    0.003489
   117  H    0.020773
   118  H   -0.015024
   119  H   -0.018940
   120  H    0.000244
   121  H   -0.000464
   122  H    0.002194
   123  H   -0.014965
   124  H   -0.007983
   125  H    0.002534
   126  H    0.010945
   127  H    0.008672
   128  H   -0.011344
   129  H   -0.008705
   130  H   -0.016635
   131  H   -0.004793
   132  H   -0.007896
   133  H   -0.022572
   134  H   -0.007137
   135  H    0.002593
   136  H    0.015854
   137  H    0.005177
   138  H    0.012029
   139  H    0.011429
   140  H    0.012137
 Sum of Mulliken charges =  -0.00000

 Dipole moment (field-independent basis, Debye):
    X=              0.5751    Y=              5.0982    Z=              1.8435  Tot=              5.4517
 Quadrupole moment (field-independent basis, Debye-Ang):
   XX=           -380.7900   YY=           -448.2477   ZZ=           -389.0549
   XY=             62.5383   XZ=             -7.0327   YZ=             21.9420

 Normal termination of Gaussian 16 at Fri Apr 29 14:32:23 2022.
