 Gaussian 16, Revision A.03,
 Gaussian 16:  ES64L-G16RevA.03 25-Dec-2016

 ---------------------------------
 #p PBE1PBE/Def2SVP td=(nstates=5)
 ---------------------------------

 ----------------------------------------------------
 step_351_chromophore_2 TDDFT with PBE1PBE functional
 ----------------------------------------------------
 Symbolic Z-matrix:
 Charge =  0 Multiplicity = 1

                         Standard orientation:
 ---------------------------------------------------------------------
 Center     Atomic      Atomic             Coordinates (Angstroms)
 Number     Number       Type             X           Y           Z
 ---------------------------------------------------------------------
      1         12           0        5.082244    1.152758   -0.531041
      2          6           0        4.794174   -2.350200   -0.152439
      3          6           0        2.255905    1.087762   -2.488679
      4          6           0        4.933389    4.516244   -0.165236
      5          6           0        7.654249    1.118125    1.904309
      6          7           0        3.688433   -0.398533   -1.220257
      7          6           0        3.794629   -1.753122   -0.897234
      8          6           0        2.646401   -2.539604   -1.525693
      9          6           0        2.034005   -1.467273   -2.552647
     10          6           0        2.628777   -0.172338   -2.037290
     11          6           0        2.295850   -1.584663   -4.083073
     12          6           0        1.667477   -3.019225   -0.409938
     13          6           0        1.275066   -4.481870   -0.424242
     14          6           0       -0.209199   -4.912115   -0.531393
     15          8           0       -0.594020   -5.601815   -1.455129
     16          8           0       -1.032046   -4.254407    0.370764
     17          7           0        3.880634    2.617620   -1.293362
     18          6           0        2.779235    2.392917   -2.218721
     19          6           0        2.256130    3.694247   -2.582720
     20          6           0        3.029561    4.724549   -1.971741
     21          6           0        4.031727    3.982420   -1.150930
     22          6           0        1.038841    3.911169   -3.591094
     23          6           0        2.727430    6.225674   -2.018541
     24          8           0        1.786020    6.609222   -2.720266
     25          6           0        3.628714    7.211015   -1.463295
     26          7           0        6.089984    2.576968    0.718214
     27          6           0        5.854979    3.877656    0.720203
     28          6           0        6.670009    4.793270    1.683453
     29          6           0        7.493820    3.634307    2.337396
     30          6           0        7.077525    2.364846    1.654856
     31          6           0        7.561939    5.807712    0.989437
     32          6           0        7.526600    3.566160    3.896775
     33          6           0        8.861625    3.234835    4.544706
     34          7           0        6.193578   -0.265258    0.519815
     35          6           0        7.159071   -0.100871    1.513479
     36          6           0        7.757874   -1.450583    1.779733
     37          6           0        6.732814   -2.342893    1.204143
     38          6           0        5.785976   -1.555863    0.484152
     39          6           0        8.890479   -1.791146    2.679588
     40          6           0        6.379407   -3.769675    0.992564
     41          8           0        6.945195   -4.794642    1.341788
     42          6           0        5.092780   -3.845685    0.219373
     43          6           0        5.372065   -4.814321   -0.882229
     44          8           0        5.248419   -6.024832   -0.844582
     45          8           0        5.759246   -4.061491   -1.986676
     46          6           0        5.924031   -4.829204   -3.295209
     47          6           0       -2.503030   -4.637100    0.305044
     48          6           0       -3.292608   -3.427425    0.673106
     49          6           0       -3.828431   -3.164167    1.929935
     50          6           0       -3.707424   -3.969009    3.250863
     51          6           0       -4.479675   -1.804575    2.008848
     52          6           0       -5.857946   -1.745236    1.319173
     53          6           0       -6.913477   -0.830799    2.035349
     54          6           0       -7.291405    0.421631    1.166060
     55          6           0       -7.742704    1.683796    1.956785
     56          6           0       -8.259271   -0.051555    0.112564
     57          6           0       -9.715502    0.054514    0.441016
     58          6           0      -10.497563    1.061079   -0.476564
     59          6           0      -11.565222    0.298716   -1.345467
     60          6           0      -11.216875    0.345750   -2.899795
     61          6           0      -13.053096    0.815896   -1.209463
     62          6           0      -13.910186    0.537137    0.013912
     63          6           0      -14.579673    1.705724    0.618073
     64          6           0      -15.953240    1.397423    1.267653
     65          6           0      -17.069217    1.451098    0.181077
     66          6           0      -16.186751    2.155299    2.637503
     67          1           0        1.530504    1.170562   -3.300730
     68          1           0        4.936290    5.594446    0.007464
     69          1           0        8.543266    1.079422    2.538118
     70          1           0        2.983071   -3.411705   -2.086844
     71          1           0        0.961491   -1.572385   -2.384636
     72          1           0        3.235521   -2.091396   -4.302498
     73          1           0        2.497965   -0.605546   -4.517719
     74          1           0        1.507949   -2.237218   -4.458046
     75          1           0        0.724433   -2.476153   -0.469654
     76          1           0        2.064078   -2.802871    0.582019
     77          1           0        1.623095   -4.983087    0.479016
     78          1           0        1.624863   -4.895413   -1.369960
     79          1           0        0.160613    4.309004   -3.081162
     80          1           0        0.689574    3.002838   -4.081537
     81          1           0        1.392989    4.692075   -4.263437
     82          1           0        3.433862    8.213774   -1.842093
     83          1           0        4.688740    6.976127   -1.554671
     84          1           0        3.541874    7.134797   -0.378594
     85          1           0        6.097397    5.271224    2.478424
     86          1           0        8.517594    3.822711    2.015266
     87          1           0        7.060727    6.718500    1.318003
     88          1           0        7.602583    5.720656   -0.095737
     89          1           0        8.561260    5.870380    1.420762
     90          1           0        6.963788    2.675345    4.174524
     91          1           0        7.144905    4.493132    4.325100
     92          1           0        8.864189    2.303183    5.109488
     93          1           0        9.249873    4.044264    5.162714
     94          1           0        9.563213    3.039103    3.732942
     95          1           0        9.013917   -2.869536    2.581301
     96          1           0        8.575907   -1.415041    3.653724
     97          1           0        9.812206   -1.235373    2.510112
     98          1           0        4.254364   -4.107794    0.864375
     99          1           0        5.812842   -5.902353   -3.139827
    100          1           0        6.867911   -4.561618   -3.770245
    101          1           0        5.165108   -4.541049   -4.022387
    102          1           0       -2.688941   -5.458626    0.996676
    103          1           0       -2.865055   -4.893340   -0.690861
    104          1           0       -3.492748   -2.715140   -0.126884
    105          1           0       -3.168574   -3.475034    4.059209
    106          1           0       -3.222049   -4.921127    3.042343
    107          1           0       -4.706800   -4.186800    3.627621
    108          1           0       -3.870318   -1.142087    1.395096
    109          1           0       -4.598335   -1.507269    3.051074
    110          1           0       -6.254517   -2.760312    1.335087
    111          1           0       -5.750173   -1.457605    0.273552
    112          1           0       -6.612382   -0.484207    3.024035
    113          1           0       -7.825330   -1.414218    2.160281
    114          1           0       -6.385494    0.702719    0.628878
    115          1           0       -6.922825    2.392222    1.845497
    116          1           0       -7.772575    1.349323    2.994531
    117          1           0       -8.639798    2.218288    1.644282
    118          1           0       -8.081397   -1.070456   -0.230048
    119          1           0       -8.141016    0.507609   -0.816037
    120          1           0       -9.979787    0.409588    1.437579
    121          1           0      -10.088390   -0.968272    0.395216
    122          1           0       -9.906550    1.769507   -1.057028
    123          1           0      -11.076224    1.691401    0.199732
    124          1           0      -11.652553   -0.698147   -0.913200
    125          1           0      -10.802959   -0.624046   -3.179140
    126          1           0      -10.448004    1.084750   -3.124340
    127          1           0      -12.115644    0.452437   -3.507468
    128          1           0      -13.563003    0.361995   -2.060287
    129          1           0      -13.055567    1.891929   -1.382312
    130          1           0      -13.183204    0.134498    0.719802
    131          1           0      -14.630623   -0.264582   -0.147989
    132          1           0      -14.724900    2.543814   -0.063202
    133          1           0      -13.953540    2.164508    1.383242
    134          1           0      -15.969913    0.320741    1.434662
    135          1           0      -16.808038    1.271337   -0.861588
    136          1           0      -17.534019    2.436395    0.223420
    137          1           0      -17.643992    0.541936    0.359824
    138          1           0      -16.169787    1.417988    3.440215
    139          1           0      -17.157903    2.648160    2.598276
    140          1           0      -15.343247    2.819440    2.826159
 ---------------------------------------------------------------------

 SCF Done:  E(RPBE1PBE) =  -3005.31831311     A.U. after   15 cycles

 Excitation energies and oscillator strengths:

 Excited State   1:      Singlet-A      1.8459 eV  671.66 nm  f=0.3530  <S**2>=0.000
     245 -> 248        0.17767
     246 -> 247        0.69144
     246 <- 247       -0.10679
 This state for optimization and/or second-order correction.
 Total Energy, E(TD-HF/TD-DFT) =  -3005.25047608
 Copying the excited state density for this state as the 1-particle RhoCI density.

 Excited State   2:      Singlet-A      2.2718 eV  545.76 nm  f=0.0849  <S**2>=0.000
     245 -> 247        0.63196
     246 -> 248       -0.29780

 Excited State   3:      Singlet-A      2.8499 eV  435.05 nm  f=0.0074  <S**2>=0.000
     242 -> 247       -0.11785
     244 -> 247        0.68094

 Excited State   4:      Singlet-A      3.0174 eV  410.90 nm  f=0.0023  <S**2>=0.000
     241 -> 247        0.64549
     241 -> 249       -0.15864
     242 -> 247        0.14745
     244 -> 247        0.12191

 Excited State   5:      Singlet-A      3.0554 eV  405.79 nm  f=0.0024  <S**2>=0.000
     240 -> 247        0.23687
     241 -> 247       -0.15776
     242 -> 247        0.61817
     246 -> 248        0.10233

 The electronic state is 1-A.
 Alpha  occ. eigenvalues --  -46.91743 -19.25882 -19.25304 -19.20364 -19.19808
 Alpha  occ. eigenvalues --  -19.18855 -19.18740 -14.42143 -14.42083 -14.39519
 Alpha  occ. eigenvalues --  -14.39101 -10.36793 -10.35938 -10.32193 -10.31941
 Alpha  occ. eigenvalues --  -10.29423 -10.29157 -10.29143 -10.28854 -10.28841
 Alpha  occ. eigenvalues --  -10.28838 -10.28814 -10.28331 -10.27769 -10.26861
 Alpha  occ. eigenvalues --  -10.26832 -10.26665 -10.26603 -10.26438 -10.26215
 Alpha  occ. eigenvalues --  -10.26070 -10.26054 -10.26004 -10.25439 -10.25148
 Alpha  occ. eigenvalues --  -10.24964 -10.24744 -10.24544 -10.24541 -10.24529
 Alpha  occ. eigenvalues --  -10.24451 -10.24370 -10.24278 -10.24048 -10.23894
 Alpha  occ. eigenvalues --  -10.23686 -10.23601 -10.23538 -10.23528 -10.23352
 Alpha  occ. eigenvalues --  -10.23320 -10.23107 -10.23082 -10.23073 -10.23042
 Alpha  occ. eigenvalues --  -10.22790 -10.22341 -10.22268 -10.22045 -10.21910
 Alpha  occ. eigenvalues --  -10.21809 -10.21722 -10.21543 -10.21521 -10.21318
 Alpha  occ. eigenvalues --  -10.21318  -3.13928  -1.86770  -1.86309  -1.86150
 Alpha  occ. eigenvalues --   -1.09978  -1.09692  -1.04557  -1.04151  -1.02172
 Alpha  occ. eigenvalues --   -1.01968  -0.99857  -0.98130  -0.96952  -0.95252
 Alpha  occ. eigenvalues --   -0.87096  -0.84726  -0.84439  -0.83770  -0.83481
 Alpha  occ. eigenvalues --   -0.82975  -0.82948  -0.81901  -0.80799  -0.80547
 Alpha  occ. eigenvalues --   -0.79659  -0.79572  -0.78940  -0.78561  -0.77917
 Alpha  occ. eigenvalues --   -0.76763  -0.76640  -0.75553  -0.75017  -0.74908
 Alpha  occ. eigenvalues --   -0.73988  -0.72685  -0.72325  -0.71353  -0.71052
 Alpha  occ. eigenvalues --   -0.70533  -0.69792  -0.69457  -0.69094  -0.68101
 Alpha  occ. eigenvalues --   -0.67086  -0.66410  -0.66162  -0.64718  -0.63864
 Alpha  occ. eigenvalues --   -0.62689  -0.62526  -0.61368  -0.60825  -0.60500
 Alpha  occ. eigenvalues --   -0.60343  -0.59815  -0.59265  -0.59017  -0.57471
 Alpha  occ. eigenvalues --   -0.57394  -0.57372  -0.56581  -0.55673  -0.54974
 Alpha  occ. eigenvalues --   -0.54567  -0.54259  -0.53747  -0.53448  -0.52601
 Alpha  occ. eigenvalues --   -0.51849  -0.51323  -0.50938  -0.50782  -0.50341
 Alpha  occ. eigenvalues --   -0.50176  -0.49541  -0.48909  -0.48767  -0.48722
 Alpha  occ. eigenvalues --   -0.48292  -0.47780  -0.47642  -0.47409  -0.47231
 Alpha  occ. eigenvalues --   -0.47062  -0.46920  -0.46659  -0.46371  -0.46234
 Alpha  occ. eigenvalues --   -0.46097  -0.45906  -0.45746  -0.45604  -0.45233
 Alpha  occ. eigenvalues --   -0.45068  -0.44867  -0.44554  -0.44179  -0.44151
 Alpha  occ. eigenvalues --   -0.43971  -0.43885  -0.43809  -0.43608  -0.43465
 Alpha  occ. eigenvalues --   -0.43148  -0.43059  -0.42829  -0.42575  -0.42500
 Alpha  occ. eigenvalues --   -0.42208  -0.41891  -0.41502  -0.41229  -0.41109
 Alpha  occ. eigenvalues --   -0.41046  -0.40926  -0.40849  -0.40598  -0.40437
 Alpha  occ. eigenvalues --   -0.40221  -0.39983  -0.39963  -0.39725  -0.39653
 Alpha  occ. eigenvalues --   -0.39415  -0.39238  -0.39152  -0.39083  -0.38876
 Alpha  occ. eigenvalues --   -0.38860  -0.38771  -0.38216  -0.38098  -0.38020
 Alpha  occ. eigenvalues --   -0.37893  -0.37551  -0.37360  -0.37091  -0.36684
 Alpha  occ. eigenvalues --   -0.36517  -0.36395  -0.36296  -0.36221  -0.36191
 Alpha  occ. eigenvalues --   -0.35934  -0.35718  -0.35680  -0.35481  -0.35225
 Alpha  occ. eigenvalues --   -0.34859  -0.34454  -0.34142  -0.34076  -0.33578
 Alpha  occ. eigenvalues --   -0.33411  -0.32747  -0.32733  -0.32510  -0.32083
 Alpha  occ. eigenvalues --   -0.32014  -0.31963  -0.31668  -0.31449  -0.31372
 Alpha  occ. eigenvalues --   -0.30403  -0.30153  -0.30084  -0.29572  -0.29545
 Alpha  occ. eigenvalues --   -0.28998  -0.28718  -0.28510  -0.26943  -0.25897
 Alpha  occ. eigenvalues --   -0.25563  -0.25421  -0.24979  -0.24566  -0.21319
 Alpha  occ. eigenvalues --   -0.18831
 Alpha virt. eigenvalues --   -0.11253  -0.05717  -0.03845  -0.02418  -0.01207
 Alpha virt. eigenvalues --   -0.00314   0.00402   0.00863   0.01393   0.02814
 Alpha virt. eigenvalues --    0.03864   0.04124   0.04880   0.05343   0.05658

 Mulliken charges:
               1
     1  Mg   0.984472
     2  C   -0.056824
     3  C   -0.061189
     4  C   -0.064390
     5  C   -0.106305
     6  N   -0.398757
     7  C    0.056861
     8  C   -0.136538
     9  C   -0.095616
    10  C    0.084526
    11  C    0.025763
    12  C    0.035068
    13  C   -0.022120
    14  C    0.200749
    15  O   -0.258452
    16  O   -0.382891
    17  N   -0.547140
    18  C    0.142721
    19  C   -0.167886
    20  C   -0.092376
    21  C    0.215026
    22  C    0.066176
    23  C    0.065672
    24  O   -0.257046
    25  C   -0.012459
    26  N   -0.358479
    27  C    0.027303
    28  C   -0.137321
    29  C   -0.077934
    30  C    0.090188
    31  C    0.015689
    32  C   -0.018938
    33  C   -0.078910
    34  N   -0.500247
    35  C    0.148542
    36  C   -0.154438
    37  C   -0.083946
    38  C    0.185446
    39  C    0.048245
    40  C    0.091699
    41  O   -0.209950
    42  C   -0.045122
    43  C    0.307060
    44  O   -0.219691
    45  O   -0.396130
    46  C    0.107764
    47  C    0.254416
    48  C   -0.159177
    49  C   -0.196290
    50  C    0.024820
    51  C    0.024591
    52  C   -0.062027
    53  C   -0.008110
    54  C   -0.212034
    55  C    0.001086
    56  C    0.006000
    57  C   -0.073252
    58  C    0.000522
    59  C   -0.207754
    60  C   -0.008469
    61  C   -0.047761
    62  C   -0.007377
    63  C   -0.006483
    64  C   -0.270837
    65  C   -0.026913
    66  C    0.000877
    67  H    0.009077
    68  H   -0.035045
    69  H    0.000796
    70  H    0.050777
    71  H    0.041375
    72  H    0.030796
    73  H    0.053105
    74  H    0.057342
    75  H    0.048119
    76  H    0.048914
    77  H    0.071103
    78  H    0.058941
    79  H    0.058056
    80  H    0.031117
    81  H    0.069327
    82  H    0.064869
    83  H    0.062393
    84  H    0.064756
    85  H    0.054375
    86  H    0.042081
    87  H    0.040241
    88  H    0.062465
    89  H    0.049292
    90  H    0.051624
    91  H    0.041512
    92  H    0.044205
    93  H    0.047472
    94  H    0.032304
    95  H    0.082143
    96  H    0.058347
    97  H    0.044966
    98  H    0.093480
    99  H    0.082147
   100  H    0.066832
   101  H    0.052955
   102  H    0.047235
   103  H    0.060601
   104  H    0.030345
   105  H    0.064915
   106  H    0.034556
   107  H    0.049451
   108  H    0.048891
   109  H    0.025884
   110  H    0.030287
   111  H    0.040918
   112  H    0.021399
   113  H    0.027576
   114  H    0.026793
   115  H    0.033776
   116  H    0.031365
   117  H    0.048342
   118  H    0.018467
   119  H    0.015084
   120  H    0.031761
   121  H    0.030592
   122  H    0.031275
   123  H    0.019873
   124  H    0.030011
   125  H    0.031031
   126  H    0.037509
   127  H    0.034688
   128  H    0.022167
   129  H    0.024457
   130  H    0.019310
   131  H    0.026831
   132  H    0.024456
   133  H    0.010394
   134  H    0.031685
   135  H    0.029943
   136  H    0.042845
   137  H    0.032395
   138  H    0.039657
   139  H    0.038519
   140  H    0.038753
 Sum of Mulliken charges =  -0.00000

 Dipole moment (field-independent basis, Debye):
    X=              0.7247    Y=              5.0423    Z=              1.9798  Tot=              5.4653
 Quadrupole moment (field-independent basis, Debye-Ang):
   XX=           -375.0998   YY=           -445.6520   ZZ=           -385.5186
   XY=             63.0680   XZ=             -5.4218   YZ=             22.7507

 Normal termination of Gaussian 16 at Fri Apr 29 14:49:51 2022.
