 Gaussian 16, Revision A.03,
 Gaussian 16:  ES64L-G16RevA.03 25-Dec-2016

 --------------------------------
 #p wB97XD/Def2SVP td=(nstates=5)
 --------------------------------

 ---------------------------------------------------
 step_351_chromophore_2 TDDFT with wB97XD functional
 ---------------------------------------------------
 Symbolic Z-matrix:
 Charge =  0 Multiplicity = 1

                         Standard orientation:
 ---------------------------------------------------------------------
 Center     Atomic      Atomic             Coordinates (Angstroms)
 Number     Number       Type             X           Y           Z
 ---------------------------------------------------------------------
      1         12           0        5.082244    1.152758   -0.531041
      2          6           0        4.794174   -2.350200   -0.152439
      3          6           0        2.255905    1.087762   -2.488679
      4          6           0        4.933389    4.516244   -0.165236
      5          6           0        7.654249    1.118125    1.904309
      6          7           0        3.688433   -0.398533   -1.220257
      7          6           0        3.794629   -1.753122   -0.897234
      8          6           0        2.646401   -2.539604   -1.525693
      9          6           0        2.034005   -1.467273   -2.552647
     10          6           0        2.628777   -0.172338   -2.037290
     11          6           0        2.295850   -1.584663   -4.083073
     12          6           0        1.667477   -3.019225   -0.409938
     13          6           0        1.275066   -4.481870   -0.424242
     14          6           0       -0.209199   -4.912115   -0.531393
     15          8           0       -0.594020   -5.601815   -1.455129
     16          8           0       -1.032046   -4.254407    0.370764
     17          7           0        3.880634    2.617620   -1.293362
     18          6           0        2.779235    2.392917   -2.218721
     19          6           0        2.256130    3.694247   -2.582720
     20          6           0        3.029561    4.724549   -1.971741
     21          6           0        4.031727    3.982420   -1.150930
     22          6           0        1.038841    3.911169   -3.591094
     23          6           0        2.727430    6.225674   -2.018541
     24          8           0        1.786020    6.609222   -2.720266
     25          6           0        3.628714    7.211015   -1.463295
     26          7           0        6.089984    2.576968    0.718214
     27          6           0        5.854979    3.877656    0.720203
     28          6           0        6.670009    4.793270    1.683453
     29          6           0        7.493820    3.634307    2.337396
     30          6           0        7.077525    2.364846    1.654856
     31          6           0        7.561939    5.807712    0.989437
     32          6           0        7.526600    3.566160    3.896775
     33          6           0        8.861625    3.234835    4.544706
     34          7           0        6.193578   -0.265258    0.519815
     35          6           0        7.159071   -0.100871    1.513479
     36          6           0        7.757874   -1.450583    1.779733
     37          6           0        6.732814   -2.342893    1.204143
     38          6           0        5.785976   -1.555863    0.484152
     39          6           0        8.890479   -1.791146    2.679588
     40          6           0        6.379407   -3.769675    0.992564
     41          8           0        6.945195   -4.794642    1.341788
     42          6           0        5.092780   -3.845685    0.219373
     43          6           0        5.372065   -4.814321   -0.882229
     44          8           0        5.248419   -6.024832   -0.844582
     45          8           0        5.759246   -4.061491   -1.986676
     46          6           0        5.924031   -4.829204   -3.295209
     47          6           0       -2.503030   -4.637100    0.305044
     48          6           0       -3.292608   -3.427425    0.673106
     49          6           0       -3.828431   -3.164167    1.929935
     50          6           0       -3.707424   -3.969009    3.250863
     51          6           0       -4.479675   -1.804575    2.008848
     52          6           0       -5.857946   -1.745236    1.319173
     53          6           0       -6.913477   -0.830799    2.035349
     54          6           0       -7.291405    0.421631    1.166060
     55          6           0       -7.742704    1.683796    1.956785
     56          6           0       -8.259271   -0.051555    0.112564
     57          6           0       -9.715502    0.054514    0.441016
     58          6           0      -10.497563    1.061079   -0.476564
     59          6           0      -11.565222    0.298716   -1.345467
     60          6           0      -11.216875    0.345750   -2.899795
     61          6           0      -13.053096    0.815896   -1.209463
     62          6           0      -13.910186    0.537137    0.013912
     63          6           0      -14.579673    1.705724    0.618073
     64          6           0      -15.953240    1.397423    1.267653
     65          6           0      -17.069217    1.451098    0.181077
     66          6           0      -16.186751    2.155299    2.637503
     67          1           0        1.530504    1.170562   -3.300730
     68          1           0        4.936290    5.594446    0.007464
     69          1           0        8.543266    1.079422    2.538118
     70          1           0        2.983071   -3.411705   -2.086844
     71          1           0        0.961491   -1.572385   -2.384636
     72          1           0        3.235521   -2.091396   -4.302498
     73          1           0        2.497965   -0.605546   -4.517719
     74          1           0        1.507949   -2.237218   -4.458046
     75          1           0        0.724433   -2.476153   -0.469654
     76          1           0        2.064078   -2.802871    0.582019
     77          1           0        1.623095   -4.983087    0.479016
     78          1           0        1.624863   -4.895413   -1.369960
     79          1           0        0.160613    4.309004   -3.081162
     80          1           0        0.689574    3.002838   -4.081537
     81          1           0        1.392989    4.692075   -4.263437
     82          1           0        3.433862    8.213774   -1.842093
     83          1           0        4.688740    6.976127   -1.554671
     84          1           0        3.541874    7.134797   -0.378594
     85          1           0        6.097397    5.271224    2.478424
     86          1           0        8.517594    3.822711    2.015266
     87          1           0        7.060727    6.718500    1.318003
     88          1           0        7.602583    5.720656   -0.095737
     89          1           0        8.561260    5.870380    1.420762
     90          1           0        6.963788    2.675345    4.174524
     91          1           0        7.144905    4.493132    4.325100
     92          1           0        8.864189    2.303183    5.109488
     93          1           0        9.249873    4.044264    5.162714
     94          1           0        9.563213    3.039103    3.732942
     95          1           0        9.013917   -2.869536    2.581301
     96          1           0        8.575907   -1.415041    3.653724
     97          1           0        9.812206   -1.235373    2.510112
     98          1           0        4.254364   -4.107794    0.864375
     99          1           0        5.812842   -5.902353   -3.139827
    100          1           0        6.867911   -4.561618   -3.770245
    101          1           0        5.165108   -4.541049   -4.022387
    102          1           0       -2.688941   -5.458626    0.996676
    103          1           0       -2.865055   -4.893340   -0.690861
    104          1           0       -3.492748   -2.715140   -0.126884
    105          1           0       -3.168574   -3.475034    4.059209
    106          1           0       -3.222049   -4.921127    3.042343
    107          1           0       -4.706800   -4.186800    3.627621
    108          1           0       -3.870318   -1.142087    1.395096
    109          1           0       -4.598335   -1.507269    3.051074
    110          1           0       -6.254517   -2.760312    1.335087
    111          1           0       -5.750173   -1.457605    0.273552
    112          1           0       -6.612382   -0.484207    3.024035
    113          1           0       -7.825330   -1.414218    2.160281
    114          1           0       -6.385494    0.702719    0.628878
    115          1           0       -6.922825    2.392222    1.845497
    116          1           0       -7.772575    1.349323    2.994531
    117          1           0       -8.639798    2.218288    1.644282
    118          1           0       -8.081397   -1.070456   -0.230048
    119          1           0       -8.141016    0.507609   -0.816037
    120          1           0       -9.979787    0.409588    1.437579
    121          1           0      -10.088390   -0.968272    0.395216
    122          1           0       -9.906550    1.769507   -1.057028
    123          1           0      -11.076224    1.691401    0.199732
    124          1           0      -11.652553   -0.698147   -0.913200
    125          1           0      -10.802959   -0.624046   -3.179140
    126          1           0      -10.448004    1.084750   -3.124340
    127          1           0      -12.115644    0.452437   -3.507468
    128          1           0      -13.563003    0.361995   -2.060287
    129          1           0      -13.055567    1.891929   -1.382312
    130          1           0      -13.183204    0.134498    0.719802
    131          1           0      -14.630623   -0.264582   -0.147989
    132          1           0      -14.724900    2.543814   -0.063202
    133          1           0      -13.953540    2.164508    1.383242
    134          1           0      -15.969913    0.320741    1.434662
    135          1           0      -16.808038    1.271337   -0.861588
    136          1           0      -17.534019    2.436395    0.223420
    137          1           0      -17.643992    0.541936    0.359824
    138          1           0      -16.169787    1.417988    3.440215
    139          1           0      -17.157903    2.648160    2.598276
    140          1           0      -15.343247    2.819440    2.826159
 ---------------------------------------------------------------------

 SCF Done:  E(RwB97XD) =  -3007.82406225     A.U. after   20 cycles

 Excitation energies and oscillator strengths:

 Excited State   1:      Singlet-A      1.6245 eV  763.22 nm  f=0.3634  <S**2>=0.000
     245 -> 248       -0.19012
     246 -> 247        0.68240
     245 <- 248       -0.11969
 This state for optimization and/or second-order correction.
 Total Energy, E(TD-HF/TD-DFT) =  -3007.76436369
 Copying the excited state density for this state as the 1-particle RhoCI density.

 Excited State   2:      Singlet-A      2.2043 eV  562.47 nm  f=0.0817  <S**2>=0.000
     245 -> 247        0.61703
     246 -> 248        0.32747

 Excited State   3:      Singlet-A      3.2428 eV  382.33 nm  f=0.0068  <S**2>=0.000
     242 -> 247       -0.19371
     244 -> 247        0.65376

 Excited State   4:      Singlet-A      3.3846 eV  366.32 nm  f=0.1211  <S**2>=0.000
     242 -> 247        0.54711
     244 -> 247        0.15006
     245 -> 247        0.12027
     246 -> 248       -0.36988

 Excited State   5:      Singlet-A      3.5537 eV  348.88 nm  f=0.7701  <S**2>=0.000
     242 -> 247        0.35105
     245 -> 247       -0.31647
     246 -> 248        0.48323
     245 <- 247        0.10036

 The electronic state is 1-A.
 Alpha  occ. eigenvalues --  -46.94692 -19.30411 -19.29850 -19.25036 -19.24454
 Alpha  occ. eigenvalues --  -19.23652 -19.23617 -14.47248 -14.47209 -14.44535
 Alpha  occ. eigenvalues --  -14.43964 -10.43610 -10.42687 -10.39131 -10.38740
 Alpha  occ. eigenvalues --  -10.35930 -10.35691 -10.35527 -10.35355 -10.35271
 Alpha  occ. eigenvalues --  -10.35074 -10.34966 -10.34837 -10.33903 -10.33274
 Alpha  occ. eigenvalues --  -10.33122 -10.33065 -10.32991 -10.32675 -10.32498
 Alpha  occ. eigenvalues --  -10.32333 -10.32330 -10.32314 -10.31654 -10.31589
 Alpha  occ. eigenvalues --  -10.31450 -10.31180 -10.30934 -10.30897 -10.30877
 Alpha  occ. eigenvalues --  -10.30816 -10.30706 -10.30669 -10.30463 -10.30238
 Alpha  occ. eigenvalues --  -10.30156 -10.30038 -10.29933 -10.29812 -10.29791
 Alpha  occ. eigenvalues --  -10.29673 -10.29440 -10.29411 -10.29370 -10.29361
 Alpha  occ. eigenvalues --  -10.29145 -10.28697 -10.28684 -10.28476 -10.28337
 Alpha  occ. eigenvalues --  -10.28179 -10.28142 -10.27923 -10.27912 -10.27696
 Alpha  occ. eigenvalues --  -10.27691  -3.20728  -1.94321  -1.93859  -1.93699
 Alpha  occ. eigenvalues --   -1.17373  -1.17059  -1.11993  -1.11740  -1.09517
 Alpha  occ. eigenvalues --   -1.09293  -1.07227  -1.05557  -1.04238  -1.02775
 Alpha  occ. eigenvalues --   -0.94684  -0.92398  -0.91975  -0.91430  -0.91121
 Alpha  occ. eigenvalues --   -0.90628  -0.90560  -0.89537  -0.88471  -0.88128
 Alpha  occ. eigenvalues --   -0.87375  -0.87311  -0.86526  -0.86233  -0.85604
 Alpha  occ. eigenvalues --   -0.84479  -0.84294  -0.83187  -0.82626  -0.82556
 Alpha  occ. eigenvalues --   -0.81665  -0.80266  -0.79939  -0.78999  -0.78751
 Alpha  occ. eigenvalues --   -0.78221  -0.77491  -0.77083  -0.76775  -0.75773
 Alpha  occ. eigenvalues --   -0.74616  -0.73998  -0.73712  -0.72336  -0.71400
 Alpha  occ. eigenvalues --   -0.70275  -0.70130  -0.68938  -0.68476  -0.68004
 Alpha  occ. eigenvalues --   -0.67984  -0.67339  -0.66722  -0.66478  -0.65159
 Alpha  occ. eigenvalues --   -0.64832  -0.64783  -0.64204  -0.63285  -0.62428
 Alpha  occ. eigenvalues --   -0.62034  -0.61801  -0.61143  -0.60853  -0.60036
 Alpha  occ. eigenvalues --   -0.59313  -0.58733  -0.58382  -0.58184  -0.57708
 Alpha  occ. eigenvalues --   -0.57651  -0.56938  -0.56313  -0.56139  -0.56057
 Alpha  occ. eigenvalues --   -0.55700  -0.55100  -0.55030  -0.54771  -0.54658
 Alpha  occ. eigenvalues --   -0.54466  -0.54331  -0.54001  -0.53746  -0.53599
 Alpha  occ. eigenvalues --   -0.53457  -0.53395  -0.53135  -0.52944  -0.52557
 Alpha  occ. eigenvalues --   -0.52344  -0.52218  -0.51831  -0.51611  -0.51453
 Alpha  occ. eigenvalues --   -0.51298  -0.51171  -0.51078  -0.50909  -0.50732
 Alpha  occ. eigenvalues --   -0.50452  -0.50359  -0.50075  -0.49980  -0.49801
 Alpha  occ. eigenvalues --   -0.49531  -0.49091  -0.48758  -0.48477  -0.48353
 Alpha  occ. eigenvalues --   -0.48249  -0.48177  -0.48065  -0.47826  -0.47686
 Alpha  occ. eigenvalues --   -0.47445  -0.47215  -0.47169  -0.46963  -0.46822
 Alpha  occ. eigenvalues --   -0.46556  -0.46389  -0.46306  -0.46197  -0.46067
 Alpha  occ. eigenvalues --   -0.46006  -0.45874  -0.45355  -0.45246  -0.45218
 Alpha  occ. eigenvalues --   -0.45027  -0.44661  -0.44432  -0.44203  -0.43779
 Alpha  occ. eigenvalues --   -0.43632  -0.43507  -0.43331  -0.43288  -0.43209
 Alpha  occ. eigenvalues --   -0.42950  -0.42877  -0.42765  -0.42546  -0.42272
 Alpha  occ. eigenvalues --   -0.41912  -0.41393  -0.41150  -0.41130  -0.40526
 Alpha  occ. eigenvalues --   -0.40407  -0.39797  -0.39697  -0.39363  -0.39108
 Alpha  occ. eigenvalues --   -0.39064  -0.39041  -0.38730  -0.38486  -0.38404
 Alpha  occ. eigenvalues --   -0.37438  -0.37146  -0.36966  -0.36536  -0.36502
 Alpha  occ. eigenvalues --   -0.35738  -0.35640  -0.35518  -0.33532  -0.33200
 Alpha  occ. eigenvalues --   -0.32602  -0.32122  -0.31640  -0.30987  -0.26335
 Alpha  occ. eigenvalues --   -0.22958
 Alpha virt. eigenvalues --   -0.07134  -0.00341   0.02421   0.04087   0.05455
 Alpha virt. eigenvalues --    0.05622   0.07115   0.07653   0.08286   0.09217
 Alpha virt. eigenvalues --    0.10508   0.10833   0.11615   0.12177   0.12437

 Mulliken charges:
               1
     1  Mg   0.974269
     2  C   -0.066828
     3  C   -0.073718
     4  C   -0.073511
     5  C   -0.120290
     6  N   -0.363738
     7  C    0.031353
     8  C   -0.108511
     9  C   -0.074251
    10  C    0.075996
    11  C    0.036693
    12  C    0.041148
    13  C   -0.003446
    14  C    0.191577
    15  O   -0.257568
    16  O   -0.383723
    17  N   -0.520542
    18  C    0.136555
    19  C   -0.160627
    20  C   -0.087014
    21  C    0.210442
    22  C    0.079049
    23  C    0.063431
    24  O   -0.251207
    25  C   -0.000187
    26  N   -0.323618
    27  C    0.013628
    28  C   -0.112038
    29  C   -0.050425
    30  C    0.080025
    31  C    0.023976
    32  C   -0.003491
    33  C   -0.063939
    34  N   -0.466593
    35  C    0.142237
    36  C   -0.158297
    37  C   -0.080473
    38  C    0.167965
    39  C    0.060957
    40  C    0.074710
    41  O   -0.201114
    42  C   -0.001863
    43  C    0.285768
    44  O   -0.215397
    45  O   -0.396173
    46  C    0.124915
    47  C    0.267776
    48  C   -0.165979
    49  C   -0.188503
    50  C    0.041090
    51  C    0.045957
    52  C   -0.048043
    53  C    0.009630
    54  C   -0.180739
    55  C    0.013618
    56  C    0.019659
    57  C   -0.057269
    58  C    0.013094
    59  C   -0.178546
    60  C    0.005320
    61  C   -0.030319
    62  C    0.010235
    63  C    0.009577
    64  C   -0.240612
    65  C   -0.017981
    66  C    0.015384
    67  H   -0.000120
    68  H   -0.049865
    69  H   -0.007725
    70  H    0.033098
    71  H    0.031839
    72  H    0.024409
    73  H    0.046084
    74  H    0.053347
    75  H    0.039533
    76  H    0.041182
    77  H    0.066040
    78  H    0.051761
    79  H    0.054525
    80  H    0.027500
    81  H    0.064468
    82  H    0.064970
    83  H    0.056097
    84  H    0.059130
    85  H    0.045911
    86  H    0.025681
    87  H    0.034316
    88  H    0.057059
    89  H    0.044283
    90  H    0.041523
    91  H    0.034175
    92  H    0.039208
    93  H    0.042843
    94  H    0.024220
    95  H    0.078670
    96  H    0.051768
    97  H    0.039534
    98  H    0.085345
    99  H    0.078609
   100  H    0.062989
   101  H    0.048414
   102  H    0.042291
   103  H    0.057033
   104  H    0.027285
   105  H    0.060466
   106  H    0.027752
   107  H    0.043299
   108  H    0.040079
   109  H    0.017709
   110  H    0.020745
   111  H    0.031196
   112  H    0.012262
   113  H    0.017243
   114  H    0.014066
   115  H    0.028642
   116  H    0.024684
   117  H    0.041110
   118  H    0.009400
   119  H    0.004819
   120  H    0.022223
   121  H    0.022246
   122  H    0.023100
   123  H    0.008874
   124  H    0.015942
   125  H    0.025005
   126  H    0.031502
   127  H    0.028672
   128  H    0.012198
   129  H    0.013248
   130  H    0.007986
   131  H    0.018559
   132  H    0.014315
   133  H    0.000727
   134  H    0.018040
   135  H    0.023776
   136  H    0.036864
   137  H    0.027046
   138  H    0.034135
   139  H    0.032841
   140  H    0.032340
 Sum of Mulliken charges =  -0.00000

 Dipole moment (field-independent basis, Debye):
    X=              0.5740    Y=              5.2567    Z=              1.7746  Tot=              5.5778
 Quadrupole moment (field-independent basis, Debye-Ang):
   XX=           -376.5113   YY=           -444.4043   ZZ=           -385.0366
   XY=             63.3023   XZ=             -6.6595   YZ=             22.0943

 Normal termination of Gaussian 16 at Fri Apr 29 15:19:08 2022.
