 Gaussian 16, Revision A.03,
 Gaussian 16:  ES64L-G16RevA.03 25-Dec-2016

 --------------------
 #p ZINDO=(nstates=5)
 --------------------

 ----------------------------
 step_351_chromophore_2 ZINDO
 ----------------------------
 Symbolic Z-matrix:
 Charge =  0 Multiplicity = 1

                         Standard orientation:
 ---------------------------------------------------------------------
 Center     Atomic      Atomic             Coordinates (Angstroms)
 Number     Number       Type             X           Y           Z
 ---------------------------------------------------------------------
      1         12           0        5.082244    1.152758   -0.531041
      2          6           0        4.794174   -2.350200   -0.152439
      3          6           0        2.255905    1.087762   -2.488679
      4          6           0        4.933389    4.516244   -0.165236
      5          6           0        7.654249    1.118125    1.904309
      6          7           0        3.688433   -0.398533   -1.220257
      7          6           0        3.794629   -1.753122   -0.897234
      8          6           0        2.646401   -2.539604   -1.525693
      9          6           0        2.034005   -1.467273   -2.552647
     10          6           0        2.628777   -0.172338   -2.037290
     11          6           0        2.295850   -1.584663   -4.083073
     12          6           0        1.667477   -3.019225   -0.409938
     13          6           0        1.275066   -4.481870   -0.424242
     14          6           0       -0.209199   -4.912115   -0.531393
     15          8           0       -0.594020   -5.601815   -1.455129
     16          8           0       -1.032046   -4.254407    0.370764
     17          7           0        3.880634    2.617620   -1.293362
     18          6           0        2.779235    2.392917   -2.218721
     19          6           0        2.256130    3.694247   -2.582720
     20          6           0        3.029561    4.724549   -1.971741
     21          6           0        4.031727    3.982420   -1.150930
     22          6           0        1.038841    3.911169   -3.591094
     23          6           0        2.727430    6.225674   -2.018541
     24          8           0        1.786020    6.609222   -2.720266
     25          6           0        3.628714    7.211015   -1.463295
     26          7           0        6.089984    2.576968    0.718214
     27          6           0        5.854979    3.877656    0.720203
     28          6           0        6.670009    4.793270    1.683453
     29          6           0        7.493820    3.634307    2.337396
     30          6           0        7.077525    2.364846    1.654856
     31          6           0        7.561939    5.807712    0.989437
     32          6           0        7.526600    3.566160    3.896775
     33          6           0        8.861625    3.234835    4.544706
     34          7           0        6.193578   -0.265258    0.519815
     35          6           0        7.159071   -0.100871    1.513479
     36          6           0        7.757874   -1.450583    1.779733
     37          6           0        6.732814   -2.342893    1.204143
     38          6           0        5.785976   -1.555863    0.484152
     39          6           0        8.890479   -1.791146    2.679588
     40          6           0        6.379407   -3.769675    0.992564
     41          8           0        6.945195   -4.794642    1.341788
     42          6           0        5.092780   -3.845685    0.219373
     43          6           0        5.372065   -4.814321   -0.882229
     44          8           0        5.248419   -6.024832   -0.844582
     45          8           0        5.759246   -4.061491   -1.986676
     46          6           0        5.924031   -4.829204   -3.295209
     47          6           0       -2.503030   -4.637100    0.305044
     48          6           0       -3.292608   -3.427425    0.673106
     49          6           0       -3.828431   -3.164167    1.929935
     50          6           0       -3.707424   -3.969009    3.250863
     51          6           0       -4.479675   -1.804575    2.008848
     52          6           0       -5.857946   -1.745236    1.319173
     53          6           0       -6.913477   -0.830799    2.035349
     54          6           0       -7.291405    0.421631    1.166060
     55          6           0       -7.742704    1.683796    1.956785
     56          6           0       -8.259271   -0.051555    0.112564
     57          6           0       -9.715502    0.054514    0.441016
     58          6           0      -10.497563    1.061079   -0.476564
     59          6           0      -11.565222    0.298716   -1.345467
     60          6           0      -11.216875    0.345750   -2.899795
     61          6           0      -13.053096    0.815896   -1.209463
     62          6           0      -13.910186    0.537137    0.013912
     63          6           0      -14.579673    1.705724    0.618073
     64          6           0      -15.953240    1.397423    1.267653
     65          6           0      -17.069217    1.451098    0.181077
     66          6           0      -16.186751    2.155299    2.637503
     67          1           0        1.530504    1.170562   -3.300730
     68          1           0        4.936290    5.594446    0.007464
     69          1           0        8.543266    1.079422    2.538118
     70          1           0        2.983071   -3.411705   -2.086844
     71          1           0        0.961491   -1.572385   -2.384636
     72          1           0        3.235521   -2.091396   -4.302498
     73          1           0        2.497965   -0.605546   -4.517719
     74          1           0        1.507949   -2.237218   -4.458046
     75          1           0        0.724433   -2.476153   -0.469654
     76          1           0        2.064078   -2.802871    0.582019
     77          1           0        1.623095   -4.983087    0.479016
     78          1           0        1.624863   -4.895413   -1.369960
     79          1           0        0.160613    4.309004   -3.081162
     80          1           0        0.689574    3.002838   -4.081537
     81          1           0        1.392989    4.692075   -4.263437
     82          1           0        3.433862    8.213774   -1.842093
     83          1           0        4.688740    6.976127   -1.554671
     84          1           0        3.541874    7.134797   -0.378594
     85          1           0        6.097397    5.271224    2.478424
     86          1           0        8.517594    3.822711    2.015266
     87          1           0        7.060727    6.718500    1.318003
     88          1           0        7.602583    5.720656   -0.095737
     89          1           0        8.561260    5.870380    1.420762
     90          1           0        6.963788    2.675345    4.174524
     91          1           0        7.144905    4.493132    4.325100
     92          1           0        8.864189    2.303183    5.109488
     93          1           0        9.249873    4.044264    5.162714
     94          1           0        9.563213    3.039103    3.732942
     95          1           0        9.013917   -2.869536    2.581301
     96          1           0        8.575907   -1.415041    3.653724
     97          1           0        9.812206   -1.235373    2.510112
     98          1           0        4.254364   -4.107794    0.864375
     99          1           0        5.812842   -5.902353   -3.139827
    100          1           0        6.867911   -4.561618   -3.770245
    101          1           0        5.165108   -4.541049   -4.022387
    102          1           0       -2.688941   -5.458626    0.996676
    103          1           0       -2.865055   -4.893340   -0.690861
    104          1           0       -3.492748   -2.715140   -0.126884
    105          1           0       -3.168574   -3.475034    4.059209
    106          1           0       -3.222049   -4.921127    3.042343
    107          1           0       -4.706800   -4.186800    3.627621
    108          1           0       -3.870318   -1.142087    1.395096
    109          1           0       -4.598335   -1.507269    3.051074
    110          1           0       -6.254517   -2.760312    1.335087
    111          1           0       -5.750173   -1.457605    0.273552
    112          1           0       -6.612382   -0.484207    3.024035
    113          1           0       -7.825330   -1.414218    2.160281
    114          1           0       -6.385494    0.702719    0.628878
    115          1           0       -6.922825    2.392222    1.845497
    116          1           0       -7.772575    1.349323    2.994531
    117          1           0       -8.639798    2.218288    1.644282
    118          1           0       -8.081397   -1.070456   -0.230048
    119          1           0       -8.141016    0.507609   -0.816037
    120          1           0       -9.979787    0.409588    1.437579
    121          1           0      -10.088390   -0.968272    0.395216
    122          1           0       -9.906550    1.769507   -1.057028
    123          1           0      -11.076224    1.691401    0.199732
    124          1           0      -11.652553   -0.698147   -0.913200
    125          1           0      -10.802959   -0.624046   -3.179140
    126          1           0      -10.448004    1.084750   -3.124340
    127          1           0      -12.115644    0.452437   -3.507468
    128          1           0      -13.563003    0.361995   -2.060287
    129          1           0      -13.055567    1.891929   -1.382312
    130          1           0      -13.183204    0.134498    0.719802
    131          1           0      -14.630623   -0.264582   -0.147989
    132          1           0      -14.724900    2.543814   -0.063202
    133          1           0      -13.953540    2.164508    1.383242
    134          1           0      -15.969913    0.320741    1.434662
    135          1           0      -16.808038    1.271337   -0.861588
    136          1           0      -17.534019    2.436395    0.223420
    137          1           0      -17.643992    0.541936    0.359824
    138          1           0      -16.169787    1.417988    3.440215
    139          1           0      -17.157903    2.648160    2.598276
    140          1           0      -15.343247    2.819440    2.826159
 ---------------------------------------------------------------------

 SCF Done:  E(RZINDO/S) =  -473.956588544     A.U. after   20 cycles

 Excitation energies and oscillator strengths:

 Excited State   1:      Singlet-A      1.2343 eV 1004.49 nm  f=0.5873  <S**2>=0.000
     175 ->178         0.19193
     176 ->177         0.66283
 This state for optimization and/or second-order correction.
 Total Energy, E(CIS/TDA) =  -473.911229071
 Copying the excited state density for this state as the 1-particle RhoCI density.

 Excited State   2:      Singlet-A      1.9293 eV  642.63 nm  f=0.0131  <S**2>=0.000
     175 ->177         0.50839
     176 ->178        -0.46767

 Excited State   3:      Singlet-A      2.9223 eV  424.27 nm  f=0.0104  <S**2>=0.000
     168 ->177         0.30176
     168 ->178         0.15877
     168 ->179        -0.34549
     168 ->180        -0.36215
     168 ->184         0.11689
     168 ->186        -0.21323

 Excited State   4:      Singlet-A      2.9698 eV  417.48 nm  f=0.0457  <S**2>=0.000
     170 ->177         0.28704
     170 ->179         0.38913
     170 ->180        -0.30936
     170 ->186         0.16194
     170 ->187        -0.18265
     170 ->199        -0.10806
     176 ->178        -0.10482

 Excited State   5:      Singlet-A      2.9874 eV  415.02 nm  f=0.7867  <S**2>=0.000
     172 ->177        -0.10340
     174 ->177        -0.11152
     175 ->177         0.32918
     176 ->178         0.39234
     176 ->179        -0.38086

 The electronic state is 1-A.
 Alpha  occ. eigenvalues --   -1.83012  -1.81274  -1.77732  -1.71022  -1.70289
 Alpha  occ. eigenvalues --   -1.68610  -1.65674  -1.61235  -1.59778  -1.57603
 Alpha  occ. eigenvalues --   -1.54988  -1.50934  -1.49407  -1.48231  -1.47253
 Alpha  occ. eigenvalues --   -1.44796  -1.44018  -1.41542  -1.37624  -1.37278
 Alpha  occ. eigenvalues --   -1.35847  -1.33515  -1.31572  -1.30517  -1.28312
 Alpha  occ. eigenvalues --   -1.27195  -1.26940  -1.23535  -1.21124  -1.17983
 Alpha  occ. eigenvalues --   -1.17676  -1.16721  -1.16501  -1.14483  -1.12729
 Alpha  occ. eigenvalues --   -1.12286  -1.10261  -1.09270  -1.05723  -1.04374
 Alpha  occ. eigenvalues --   -1.01181  -1.00011  -0.98796  -0.98065  -0.97251
 Alpha  occ. eigenvalues --   -0.96821  -0.94373  -0.94342  -0.92711  -0.92291
 Alpha  occ. eigenvalues --   -0.91558  -0.91315  -0.88879  -0.87122  -0.85739
 Alpha  occ. eigenvalues --   -0.84853  -0.84125  -0.83478  -0.83124  -0.81293
 Alpha  occ. eigenvalues --   -0.80318  -0.79890  -0.78488  -0.77361  -0.76721
 Alpha  occ. eigenvalues --   -0.75769  -0.74923  -0.74375  -0.74001  -0.73375
 Alpha  occ. eigenvalues --   -0.72818  -0.72462  -0.72141  -0.71746  -0.71379
 Alpha  occ. eigenvalues --   -0.70994  -0.70228  -0.69704  -0.68482  -0.68196
 Alpha  occ. eigenvalues --   -0.67731  -0.66983  -0.66430  -0.65574  -0.65150
 Alpha  occ. eigenvalues --   -0.65137  -0.64858  -0.64252  -0.63478  -0.63173
 Alpha  occ. eigenvalues --   -0.63088  -0.62957  -0.62202  -0.61744  -0.61567
 Alpha  occ. eigenvalues --   -0.61265  -0.61094  -0.60822  -0.60255  -0.60091
 Alpha  occ. eigenvalues --   -0.59751  -0.59048  -0.58817  -0.58737  -0.58292
 Alpha  occ. eigenvalues --   -0.57595  -0.57485  -0.57235  -0.56772  -0.56526
 Alpha  occ. eigenvalues --   -0.56019  -0.55739  -0.55227  -0.54787  -0.54428
 Alpha  occ. eigenvalues --   -0.54333  -0.53990  -0.53649  -0.53469  -0.53156
 Alpha  occ. eigenvalues --   -0.52760  -0.52539  -0.52361  -0.52026  -0.51895
 Alpha  occ. eigenvalues --   -0.51690  -0.51501  -0.51055  -0.50839  -0.50778
 Alpha  occ. eigenvalues --   -0.50579  -0.50411  -0.50212  -0.49799  -0.49665
 Alpha  occ. eigenvalues --   -0.49144  -0.48677  -0.48454  -0.48156  -0.48015
 Alpha  occ. eigenvalues --   -0.47949  -0.47665  -0.47130  -0.46859  -0.46483
 Alpha  occ. eigenvalues --   -0.46160  -0.45749  -0.45401  -0.45329  -0.44909
 Alpha  occ. eigenvalues --   -0.44701  -0.44696  -0.44598  -0.44260  -0.43995
 Alpha  occ. eigenvalues --   -0.43430  -0.43198  -0.42730  -0.42414  -0.42330
 Alpha  occ. eigenvalues --   -0.42089  -0.41959  -0.41127  -0.39186  -0.38744
 Alpha  occ. eigenvalues --   -0.38389  -0.37709  -0.35966  -0.35260  -0.34800
 Alpha  occ. eigenvalues --   -0.33808  -0.32824  -0.31687  -0.31461  -0.27285
 Alpha  occ. eigenvalues --   -0.21950
 Alpha virt. eigenvalues --   -0.08801  -0.02719  -0.00743   0.00689   0.01675
 Alpha virt. eigenvalues --    0.01792   0.02163   0.02778   0.03837   0.04453
 Alpha virt. eigenvalues --    0.05851   0.06554   0.06923   0.07478   0.07898

 Mulliken charges:
               1
     1  Mg   0.423776
     2  C   -0.047147
     3  C   -0.071811
     4  C   -0.104382
     5  C   -0.053931
     6  N   -0.285602
     7  C    0.113651
     8  C   -0.002559
     9  C   -0.000578
    10  C    0.161595
    11  C   -0.051156
    12  C   -0.018026
    13  C   -0.000880
    14  C    0.457877
    15  O   -0.507026
    16  O   -0.275521
    17  N   -0.341554
    18  C    0.101044
    19  C    0.042588
    20  C   -0.047802
    21  C    0.134109
    22  C   -0.043416
    23  C    0.338669
    24  O   -0.527448
    25  C   -0.021972
    26  N   -0.248885
    27  C    0.151559
    28  C   -0.001573
    29  C   -0.003259
    30  C    0.104677
    31  C   -0.048882
    32  C   -0.031711
    33  C   -0.058296
    34  N   -0.324042
    35  C    0.079409
    36  C    0.016231
    37  C   -0.082649
    38  C    0.109913
    39  C   -0.033742
    40  C    0.337624
    41  O   -0.516516
    42  C    0.063945
    43  C    0.499298
    44  O   -0.503592
    45  O   -0.282222
    46  C    0.067413
    47  C    0.103957
    48  C   -0.096808
    49  C   -0.009630
    50  C   -0.037114
    51  C   -0.024944
    52  C   -0.032257
    53  C   -0.036883
    54  C   -0.008462
    55  C   -0.060110
    56  C   -0.024214
    57  C   -0.033456
    58  C   -0.038646
    59  C   -0.021504
    60  C   -0.061211
    61  C   -0.041317
    62  C   -0.024824
    63  C   -0.024350
    64  C   -0.026089
    65  C   -0.063557
    66  C   -0.056538
    67  H    0.025385
    68  H    0.020407
    69  H    0.025742
    70  H    0.035744
    71  H    0.029991
    72  H    0.016966
    73  H    0.036735
    74  H    0.031092
    75  H    0.025726
    76  H    0.023969
    77  H    0.046973
    78  H    0.042919
    79  H    0.036890
    80  H    0.024477
    81  H    0.043866
    82  H    0.042963
    83  H    0.033423
    84  H    0.039137
    85  H    0.039830
    86  H    0.025960
    87  H    0.013249
    88  H    0.033891
    89  H    0.024222
    90  H    0.024422
    91  H    0.024254
    92  H    0.021120
    93  H    0.020926
    94  H    0.013769
    95  H    0.043741
    96  H    0.033641
    97  H    0.030052
    98  H    0.062940
    99  H    0.058362
   100  H    0.040660
   101  H    0.031252
   102  H    0.045717
   103  H    0.053260
   104  H    0.036950
   105  H    0.034734
   106  H    0.021357
   107  H    0.027422
   108  H    0.027091
   109  H    0.022774
   110  H    0.014500
   111  H    0.026216
   112  H    0.019083
   113  H    0.016715
   114  H    0.011088
   115  H    0.011679
   116  H    0.021306
   117  H    0.031621
   118  H    0.012397
   119  H    0.006522
   120  H    0.018019
   121  H    0.017333
   122  H    0.030841
   123  H    0.007847
   124  H    0.025785
   125  H    0.011428
   126  H    0.025720
   127  H    0.024957
   128  H    0.009136
   129  H    0.014469
   130  H    0.011637
   131  H    0.021361
   132  H    0.015257
   133  H    0.008092
   134  H    0.012788
   135  H    0.017652
   136  H    0.024667
   137  H    0.018551
   138  H    0.018718
   139  H    0.025693
   140  H    0.025682
 Sum of Mulliken charges =  -0.00000

 Dipole moment (field-independent basis, Debye):
    X=              0.4927    Y=              7.7733    Z=              2.6492  Tot=              8.2271
 N-N= 4.267919961077D+03 E-N= 0.000000000000D+00  KE=-9.209407948917D+03
 Leave Link  601 at Fri Apr 29 15:30:19 2022, MaxMem=  6710886400 cpu:               0.8 elap:               0.1
 (Enter /sw/apps/gaussian-16.0/g16/l9999.exe)
 1\1\GINC-BP1-COMPUTE162\SP\RZINDO CIS\STO-3G\C55H74Mg1N4O6\OF15641\29-
 Apr-2022\0\\#p ZINDO=(nstates=5)\\step_351_chromophore_2 ZINDO\\0,1\Mg
 ,0,3.249,-0.59,44.58\C,0,6.184,1.209,43.776\C,0,1.475,1.582,42.59\C,0,
 0.687,-2.801,44.709\C,0,5.278,-3.026,46.16\N,0,3.741,1.147,43.329\C,0,
 5.03,1.658,43.162\C,0,5.008,2.851,42.209\C,0,3.436,3.164,42.107\C,0,2.
 831,1.881,42.64\C,0,2.812,4.38,42.853\C,0,5.692,2.459,40.863\C,0,6.75,
 3.403,40.331\C,0,6.615,4.05,38.93\O,0,6.581,5.258,38.801\O,0,6.317,3.1

 Normal termination of Gaussian 16 at Fri Apr 29 15:30:19 2022.
