 Gaussian 16, Revision A.03,
 Gaussian 16:  ES64L-G16RevA.03 25-Dec-2016

 ------------------------------
 #p blyp/Def2SVP td=(nstates=5)
 ------------------------------

 --------------------------------------------------
 step_1201_chromophore_1 TDDFT with blyp functional
 --------------------------------------------------
 Symbolic Z-matrix:
 Charge =  0 Multiplicity = 1

                         Standard orientation:
 ---------------------------------------------------------------------
 Center     Atomic      Atomic             Coordinates (Angstroms)
 Number     Number       Type             X           Y           Z
 ---------------------------------------------------------------------
      1         12           0       -5.891977    0.516533   -0.087559
      2          6           0       -3.616752   -1.988763    0.494884
      3          6           0       -3.711444    2.854057    1.231587
      4          6           0       -8.371427    2.822999   -0.038757
      5          6           0       -8.342030   -1.942651   -0.723330
      6          7           0       -3.882725    0.372770    0.614526
      7          6           0       -3.098498   -0.746692    0.833163
      8          6           0       -1.768357   -0.415136    1.493546
      9          6           0       -1.937156    1.041016    1.915791
     10          6           0       -3.224898    1.509843    1.215377
     11          6           0       -2.121874    1.169666    3.455535
     12          6           0       -0.654045   -0.656574    0.551126
     13          6           0        0.465543   -1.464937    1.045910
     14          6           0        1.343666   -2.085931    0.053165
     15          8           0        1.001771   -2.442850   -1.059247
     16          8           0        2.581164   -2.096156    0.594807
     17          7           0       -5.945425    2.556339    0.233657
     18          6           0       -4.937410    3.347454    0.705649
     19          6           0       -5.262878    4.755504    0.491536
     20          6           0       -6.634973    4.786688    0.146136
     21          6           0       -7.053190    3.312134    0.079110
     22          6           0       -4.301513    5.821537    0.875722
     23          6           0       -7.545240    6.021690   -0.144663
     24          8           0       -8.757153    5.935650   -0.399232
     25          6           0       -6.850853    7.448622   -0.305773
     26          7           0       -8.100969    0.470048   -0.134063
     27          6           0       -8.866595    1.573377   -0.050927
     28          6           0      -10.353368    1.306873   -0.306346
     29          6           0      -10.253838   -0.231253   -0.789074
     30          6           0       -8.821102   -0.601649   -0.575914
     31          6           0      -11.307853    1.437942    0.901080
     32          6           0      -10.755874   -0.418265   -2.239982
     33          6           0       -9.851212    0.106263   -3.293819
     34          7           0       -5.983708   -1.576744   -0.226250
     35          6           0       -7.086978   -2.453062   -0.507730
     36          6           0       -6.578405   -3.803580   -0.447540
     37          6           0       -5.246700   -3.679167    0.001244
     38          6           0       -4.904008   -2.284853    0.011083
     39          6           0       -7.446803   -5.037973   -0.509296
     40          6           0       -4.138944   -4.418415    0.518545
     41          8           0       -3.963784   -5.623960    0.634840
     42          6           0       -2.935926   -3.397646    0.700383
     43          6           0       -1.741545   -3.885201   -0.016701
     44          8           0       -1.666870   -3.822622   -1.209816
     45          8           0       -0.772287   -4.502115    0.771777
     46          6           0        0.177209   -5.383435    0.087286
     47          6           0        3.509014   -2.851503   -0.231032
     48          6           0        4.840435   -2.193242   -0.003798
     49          6           0        6.095548   -2.720322   -0.005415
     50          6           0        6.447160   -4.086930   -0.326137
     51          6           0        7.258325   -1.866495    0.512260
     52          6           0        8.196743   -1.309767   -0.540249
     53          6           0        9.172953   -0.204567    0.029066
     54          6           0        9.086180    1.084110   -0.826569
     55          6           0        7.615221    1.669651   -0.818484
     56          6           0        9.747315    0.887633   -2.264313
     57          6           0       10.912779    1.815888   -2.725455
     58          6           0       12.322631    1.213045   -2.570963
     59          6           0       13.305352    2.166788   -1.854687
     60          6           0       13.858519    3.125541   -2.986088
     61          6           0       14.506191    1.420633   -1.055346
     62          6           0       14.760329    2.040694    0.256134
     63          6           0       14.777165    1.088212    1.419450
     64          6           0       13.588786    1.401274    2.411491
     65          6           0       13.869027    0.758444    3.739069
     66          6           0       12.248811    0.881177    1.833125
     67          1           0       -2.996478    3.489624    1.758275
     68          1           0       -9.209567    3.518808   -0.117801
     69          1           0       -9.170066   -2.618524   -0.948204
     70          1           0       -1.699703   -1.169697    2.277849
     71          1           0       -1.047882    1.579724    1.587349
     72          1           0       -3.009833    1.710983    3.780461
     73          1           0       -1.248109    1.666829    3.877622
     74          1           0       -1.999290    0.216342    3.972117
     75          1           0       -0.236841    0.291500    0.210294
     76          1           0       -1.083123   -1.152671   -0.319165
     77          1           0        0.117370   -2.187577    1.783762
     78          1           0        1.049192   -0.692214    1.546423
     79          1           0       -3.420894    5.354084    1.315011
     80          1           0       -4.672132    6.422880    1.705520
     81          1           0       -3.863996    6.469010    0.116392
     82          1           0       -6.309840    7.696644    0.607075
     83          1           0       -7.576270    8.235203   -0.512014
     84          1           0       -6.184444    7.431092   -1.168744
     85          1           0      -10.591056    1.976359   -1.133460
     86          1           0      -10.879532   -0.853416   -0.148752
     87          1           0      -10.781543    1.871638    1.752689
     88          1           0      -11.710486    0.452349    1.133621
     89          1           0      -12.107084    2.167753    0.776660
     90          1           0      -11.724046    0.073528   -2.332963
     91          1           0      -10.825534   -1.498228   -2.375066
     92          1           0       -9.358077   -0.593188   -3.968071
     93          1           0       -9.121036    0.737999   -2.787526
     94          1           0      -10.439081    0.743193   -3.953818
     95          1           0       -7.995582   -5.058254   -1.450760
     96          1           0       -8.192033   -5.079069    0.286145
     97          1           0       -6.812049   -5.921937   -0.449164
     98          1           0       -2.681536   -3.356943    1.759865
     99          1           0        1.152459   -4.985494    0.367907
    100          1           0        0.228119   -5.353723   -1.000734
    101          1           0        0.071706   -6.424077    0.394273
    102          1           0        3.279813   -2.793211   -1.295669
    103          1           0        3.414599   -3.906248    0.026124
    104          1           0        4.681221   -1.178811    0.362457
    105          1           0        7.243895   -4.077216   -1.068887
    106          1           0        5.680621   -4.759948   -0.711320
    107          1           0        6.843635   -4.575901    0.563963
    108          1           0        7.997315   -2.357379    1.145345
    109          1           0        6.890200   -1.068609    1.158434
    110          1           0        7.738208   -0.902574   -1.442344
    111          1           0        8.936155   -2.063795   -0.808326
    112          1           0       10.215033   -0.513296    0.099926
    113          1           0        8.768527    0.036960    1.011854
    114          1           0        9.767538    1.804855   -0.375414
    115          1           0        6.871687    1.033661   -0.339396
    116          1           0        7.202698    1.674979   -1.827003
    117          1           0        7.667481    2.693508   -0.448380
    118          1           0        8.948679    1.010754   -2.995963
    119          1           0       10.062389   -0.155606   -2.283671
    120          1           0       10.934574    2.787146   -2.231052
    121          1           0       10.774303    1.953089   -3.798640
    122          1           0       12.715554    0.895912   -3.537339
    123          1           0       12.259220    0.320142   -1.949774
    124          1           0       12.796352    2.848961   -1.174460
    125          1           0       13.085685    3.805491   -3.345242
    126          1           0       14.153781    2.494914   -3.823681
    127          1           0       14.740035    3.633092   -2.595719
    128          1           0       15.443248    1.359448   -1.610308
    129          1           0       14.156130    0.391792   -0.972774
    130          1           0       13.997526    2.771846    0.525822
    131          1           0       15.718584    2.538100    0.112561
    132          1           0       15.659643    1.318885    2.014640
    133          1           0       14.810297    0.049917    1.090393
    134          1           0       13.655420    2.470449    2.613272
    135          1           0       14.191656    1.482450    4.488583
    136          1           0       14.734524    0.100208    3.658183
    137          1           0       12.986799    0.334751    4.219486
    138          1           0       11.845175   -0.028431    2.279030
    139          1           0       12.311399    0.724484    0.756371
    140          1           0       11.560206    1.701372    2.036005
 ---------------------------------------------------------------------

 SCF Done:  E(RB-LYP) =  -3007.36994781     A.U. after   21 cycles

 Excitation energies and oscillator strengths:

 Excited State   1:      Singlet-A      1.7721 eV  699.64 nm  f=0.2945  <S**2>=0.000
     245 -> 248        0.17154
     246 -> 247        0.68857
     246 <- 247       -0.15317
 This state for optimization and/or second-order correction.
 Total Energy, E(TD-HF/TD-DFT) =  -3007.30482398
 Copying the excited state density for this state as the 1-particle RhoCI density.

 Excited State   2:      Singlet-A      1.9000 eV  652.55 nm  f=0.0219  <S**2>=0.000
     244 -> 247        0.56759
     245 -> 247        0.39317

 Excited State   3:      Singlet-A      1.9820 eV  625.54 nm  f=0.0144  <S**2>=0.000
     243 -> 247        0.60549
     244 -> 247       -0.25951
     245 -> 247        0.22962

 Excited State   4:      Singlet-A      2.0257 eV  612.05 nm  f=0.0527  <S**2>=0.000
     243 -> 247       -0.35581
     244 -> 247       -0.32348
     245 -> 247        0.45601
     246 -> 248       -0.18881
     246 -> 249       -0.10040

 Excited State   5:      Singlet-A      2.2389 eV  553.77 nm  f=0.0000  <S**2>=0.000
     242 -> 247        0.70622

 The electronic state is 1-A.
 Alpha  occ. eigenvalues --  -46.26994 -18.82878 -18.81207 -18.77045 -18.76155
 Alpha  occ. eigenvalues --  -18.75387 -18.75341 -14.03578 -14.02879 -14.01717
 Alpha  occ. eigenvalues --  -14.00663 -10.03696 -10.02785 -10.00865  -9.99279
 Alpha  occ. eigenvalues --   -9.97781  -9.97283  -9.96720  -9.96626  -9.96537
 Alpha  occ. eigenvalues --   -9.96523  -9.96148  -9.95574  -9.95344  -9.94642
 Alpha  occ. eigenvalues --   -9.94556  -9.94033  -9.93895  -9.93783  -9.93658
 Alpha  occ. eigenvalues --   -9.93638  -9.93634  -9.93586  -9.93583  -9.93452
 Alpha  occ. eigenvalues --   -9.93104  -9.92998  -9.92984  -9.92663  -9.92357
 Alpha  occ. eigenvalues --   -9.92256  -9.92249  -9.92201  -9.92169  -9.92097
 Alpha  occ. eigenvalues --   -9.92078  -9.92037  -9.91955  -9.91891  -9.91810
 Alpha  occ. eigenvalues --   -9.91623  -9.91565  -9.91366  -9.91311  -9.91212
 Alpha  occ. eigenvalues --   -9.91195  -9.91179  -9.91147  -9.91111  -9.91024
 Alpha  occ. eigenvalues --   -9.90755  -9.90737  -9.90676  -9.90658  -9.90279
 Alpha  occ. eigenvalues --   -9.90190  -2.91627  -1.72057  -1.71488  -1.71357
 Alpha  occ. eigenvalues --   -0.99365  -0.96669  -0.90978  -0.90947  -0.90635
 Alpha  occ. eigenvalues --   -0.89196  -0.86580  -0.85795  -0.85545  -0.84181
 Alpha  occ. eigenvalues --   -0.74709  -0.74491  -0.73755  -0.73213  -0.72736
 Alpha  occ. eigenvalues --   -0.71898  -0.71794  -0.71129  -0.70815  -0.70580
 Alpha  occ. eigenvalues --   -0.69904  -0.69711  -0.68269  -0.67659  -0.67497
 Alpha  occ. eigenvalues --   -0.66739  -0.65930  -0.65104  -0.64797  -0.63955
 Alpha  occ. eigenvalues --   -0.63801  -0.62900  -0.62307  -0.61869  -0.60627
 Alpha  occ. eigenvalues --   -0.60458  -0.60267  -0.60037  -0.59162  -0.58990
 Alpha  occ. eigenvalues --   -0.58369  -0.58049  -0.57004  -0.55488  -0.55168
 Alpha  occ. eigenvalues --   -0.54034  -0.53520  -0.52633  -0.52483  -0.51438
 Alpha  occ. eigenvalues --   -0.51030  -0.50843  -0.50465  -0.50405  -0.50219
 Alpha  occ. eigenvalues --   -0.49875  -0.48783  -0.47906  -0.47621  -0.47355
 Alpha  occ. eigenvalues --   -0.46573  -0.46324  -0.45914  -0.45025  -0.44445
 Alpha  occ. eigenvalues --   -0.44314  -0.43503  -0.43383  -0.43041  -0.42664
 Alpha  occ. eigenvalues --   -0.42478  -0.42192  -0.41633  -0.41521  -0.41311
 Alpha  occ. eigenvalues --   -0.41230  -0.40517  -0.40476  -0.40133  -0.40027
 Alpha  occ. eigenvalues --   -0.39813  -0.39730  -0.39589  -0.39261  -0.39200
 Alpha  occ. eigenvalues --   -0.38897  -0.38674  -0.38490  -0.38348  -0.38108
 Alpha  occ. eigenvalues --   -0.37903  -0.37681  -0.37537  -0.37332  -0.37314
 Alpha  occ. eigenvalues --   -0.37273  -0.36933  -0.36758  -0.36474  -0.36323
 Alpha  occ. eigenvalues --   -0.36217  -0.36062  -0.35775  -0.35748  -0.35583
 Alpha  occ. eigenvalues --   -0.35450  -0.35359  -0.34725  -0.34649  -0.34541
 Alpha  occ. eigenvalues --   -0.34489  -0.34313  -0.34181  -0.34073  -0.33902
 Alpha  occ. eigenvalues --   -0.33789  -0.33572  -0.33423  -0.33251  -0.32943
 Alpha  occ. eigenvalues --   -0.32563  -0.32390  -0.32286  -0.32144  -0.31981
 Alpha  occ. eigenvalues --   -0.31925  -0.31876  -0.31758  -0.31629  -0.31533
 Alpha  occ. eigenvalues --   -0.31387  -0.31151  -0.31120  -0.31076  -0.30840
 Alpha  occ. eigenvalues --   -0.30527  -0.30380  -0.30034  -0.29975  -0.29792
 Alpha  occ. eigenvalues --   -0.29680  -0.29526  -0.29406  -0.29295  -0.29007
 Alpha  occ. eigenvalues --   -0.28952  -0.28889  -0.28180  -0.27924  -0.27523
 Alpha  occ. eigenvalues --   -0.27501  -0.27337  -0.26977  -0.26968  -0.26467
 Alpha  occ. eigenvalues --   -0.26235  -0.26145  -0.25731  -0.25563  -0.25201
 Alpha  occ. eigenvalues --   -0.24596  -0.24422  -0.23993  -0.23863  -0.23850
 Alpha  occ. eigenvalues --   -0.23426  -0.22522  -0.22362  -0.21064  -0.20724
 Alpha  occ. eigenvalues --   -0.20388  -0.19841  -0.18854  -0.18556  -0.17386
 Alpha  occ. eigenvalues --   -0.15758
 Alpha virt. eigenvalues --   -0.11616  -0.07188  -0.06165  -0.05035  -0.02972
 Alpha virt. eigenvalues --   -0.02152  -0.02097  -0.01931  -0.01779   0.00547
 Alpha virt. eigenvalues --    0.01278   0.01624   0.02169   0.02579   0.02843

 Mulliken charges:
               1
     1  Mg   0.695531
     2  C    0.021543
     3  C   -0.056256
     4  C   -0.026433
     5  C   -0.073349
     6  N   -0.284836
     7  C   -0.090317
     8  C    0.060849
     9  C    0.042570
    10  C    0.010448
    11  C    0.120627
    12  C    0.097059
    13  C    0.134655
    14  C    0.067728
    15  O   -0.171570
    16  O   -0.251243
    17  N   -0.271915
    18  C    0.151157
    19  C   -0.106902
    20  C    0.008378
    21  C    0.123762
    22  C    0.161343
    23  C   -0.038510
    24  O   -0.171053
    25  C    0.097793
    26  N   -0.192034
    27  C   -0.022104
    28  C    0.005439
    29  C    0.010958
    30  C   -0.005298
    31  C    0.147514
    32  C    0.093718
    33  C    0.071861
    34  N   -0.273198
    35  C    0.159297
    36  C   -0.156063
    37  C    0.095891
    38  C    0.073938
    39  C    0.159685
    40  C   -0.065943
    41  O   -0.135396
    42  C    0.066566
    43  C    0.111005
    44  O   -0.144197
    45  O   -0.298471
    46  C    0.219683
    47  C    0.303244
    48  C   -0.111888
    49  C   -0.089383
    50  C    0.167827
    51  C    0.115193
    52  C    0.042192
    53  C    0.064959
    54  C   -0.082751
    55  C    0.104010
    56  C    0.083554
    57  C    0.096938
    58  C    0.096211
    59  C   -0.111527
    60  C    0.093918
    61  C    0.108261
    62  C    0.101330
    63  C    0.082492
    64  C   -0.113410
    65  C    0.127331
    66  C    0.087242
    67  H   -0.054295
    68  H   -0.050058
    69  H   -0.063181
    70  H   -0.034989
    71  H   -0.024658
    72  H    0.010194
    73  H   -0.023268
    74  H   -0.014041
    75  H   -0.034673
    76  H    0.011424
    77  H    0.008232
    78  H   -0.020320
    79  H   -0.041894
    80  H    0.006508
    81  H    0.004742
    82  H    0.002090
    83  H   -0.007007
    84  H    0.013641
    85  H   -0.013589
    86  H   -0.029622
    87  H   -0.009731
    88  H   -0.006720
    89  H   -0.007096
    90  H   -0.016993
    91  H   -0.025823
    92  H   -0.003560
    93  H   -0.000422
    94  H   -0.020168
    95  H   -0.007844
    96  H    0.007135
    97  H    0.008790
    98  H   -0.024822
    99  H   -0.006665
   100  H    0.025425
   101  H    0.019976
   102  H    0.012825
   103  H   -0.001586
   104  H   -0.033647
   105  H   -0.008322
   106  H   -0.020755
   107  H   -0.006604
   108  H   -0.035904
   109  H   -0.028278
   110  H   -0.016327
   111  H   -0.026836
   112  H   -0.017379
   113  H   -0.035344
   114  H   -0.043442
   115  H   -0.009638
   116  H   -0.026604
   117  H   -0.003462
   118  H   -0.038924
   119  H   -0.030389
   120  H   -0.024106
   121  H   -0.035079
   122  H   -0.031254
   123  H   -0.038806
   124  H   -0.025827
   125  H   -0.013878
   126  H   -0.022827
   127  H   -0.017578
   128  H   -0.034935
   129  H   -0.046181
   130  H   -0.029651
   131  H   -0.035949
   132  H   -0.048424
   133  H   -0.026675
   134  H   -0.029444
   135  H   -0.036504
   136  H   -0.018346
   137  H   -0.023853
   138  H   -0.003994
   139  H    0.004812
   140  H   -0.007252
 Sum of Mulliken charges =  -0.00000

 Dipole moment (field-independent basis, Debye):
    X=              2.5599    Y=              2.5249    Z=              2.3022  Tot=              4.2695
 Quadrupole moment (field-independent basis, Debye-Ang):
   XX=           -375.2420   YY=           -419.9953   ZZ=           -406.9758
   XY=              3.7681   XZ=              3.4428   YZ=              4.6005

 Normal termination of Gaussian 16 at Wed Apr 27 13:31:01 2022.
