 Gaussian 16, Revision A.03,
 Gaussian 16:  ES64L-G16RevA.03 25-Dec-2016

 -----------------------------------
 #p cam-b3lyp/Def2SVP td=(nstates=5)
 -----------------------------------

 -------------------------------------------------------
 step_1201_chromophore_1 TDDFT with cam-b3lyp functional
 -------------------------------------------------------
 Symbolic Z-matrix:
 Charge =  0 Multiplicity = 1

                         Standard orientation:
 ---------------------------------------------------------------------
 Center     Atomic      Atomic             Coordinates (Angstroms)
 Number     Number       Type             X           Y           Z
 ---------------------------------------------------------------------
      1         12           0       -5.891977    0.516533   -0.087559
      2          6           0       -3.616752   -1.988763    0.494884
      3          6           0       -3.711444    2.854057    1.231587
      4          6           0       -8.371427    2.822999   -0.038757
      5          6           0       -8.342030   -1.942651   -0.723330
      6          7           0       -3.882725    0.372770    0.614526
      7          6           0       -3.098498   -0.746692    0.833163
      8          6           0       -1.768357   -0.415136    1.493546
      9          6           0       -1.937156    1.041016    1.915791
     10          6           0       -3.224898    1.509843    1.215377
     11          6           0       -2.121874    1.169666    3.455535
     12          6           0       -0.654045   -0.656574    0.551126
     13          6           0        0.465543   -1.464937    1.045910
     14          6           0        1.343666   -2.085931    0.053165
     15          8           0        1.001771   -2.442850   -1.059247
     16          8           0        2.581164   -2.096156    0.594807
     17          7           0       -5.945425    2.556339    0.233657
     18          6           0       -4.937410    3.347454    0.705649
     19          6           0       -5.262878    4.755504    0.491536
     20          6           0       -6.634973    4.786688    0.146136
     21          6           0       -7.053190    3.312134    0.079110
     22          6           0       -4.301513    5.821537    0.875722
     23          6           0       -7.545240    6.021690   -0.144663
     24          8           0       -8.757153    5.935650   -0.399232
     25          6           0       -6.850853    7.448622   -0.305773
     26          7           0       -8.100969    0.470048   -0.134063
     27          6           0       -8.866595    1.573377   -0.050927
     28          6           0      -10.353368    1.306873   -0.306346
     29          6           0      -10.253838   -0.231253   -0.789074
     30          6           0       -8.821102   -0.601649   -0.575914
     31          6           0      -11.307853    1.437942    0.901080
     32          6           0      -10.755874   -0.418265   -2.239982
     33          6           0       -9.851212    0.106263   -3.293819
     34          7           0       -5.983708   -1.576744   -0.226250
     35          6           0       -7.086978   -2.453062   -0.507730
     36          6           0       -6.578405   -3.803580   -0.447540
     37          6           0       -5.246700   -3.679167    0.001244
     38          6           0       -4.904008   -2.284853    0.011083
     39          6           0       -7.446803   -5.037973   -0.509296
     40          6           0       -4.138944   -4.418415    0.518545
     41          8           0       -3.963784   -5.623960    0.634840
     42          6           0       -2.935926   -3.397646    0.700383
     43          6           0       -1.741545   -3.885201   -0.016701
     44          8           0       -1.666870   -3.822622   -1.209816
     45          8           0       -0.772287   -4.502115    0.771777
     46          6           0        0.177209   -5.383435    0.087286
     47          6           0        3.509014   -2.851503   -0.231032
     48          6           0        4.840435   -2.193242   -0.003798
     49          6           0        6.095548   -2.720322   -0.005415
     50          6           0        6.447160   -4.086930   -0.326137
     51          6           0        7.258325   -1.866495    0.512260
     52          6           0        8.196743   -1.309767   -0.540249
     53          6           0        9.172953   -0.204567    0.029066
     54          6           0        9.086180    1.084110   -0.826569
     55          6           0        7.615221    1.669651   -0.818484
     56          6           0        9.747315    0.887633   -2.264313
     57          6           0       10.912779    1.815888   -2.725455
     58          6           0       12.322631    1.213045   -2.570963
     59          6           0       13.305352    2.166788   -1.854687
     60          6           0       13.858519    3.125541   -2.986088
     61          6           0       14.506191    1.420633   -1.055346
     62          6           0       14.760329    2.040694    0.256134
     63          6           0       14.777165    1.088212    1.419450
     64          6           0       13.588786    1.401274    2.411491
     65          6           0       13.869027    0.758444    3.739069
     66          6           0       12.248811    0.881177    1.833125
     67          1           0       -2.996478    3.489624    1.758275
     68          1           0       -9.209567    3.518808   -0.117801
     69          1           0       -9.170066   -2.618524   -0.948204
     70          1           0       -1.699703   -1.169697    2.277849
     71          1           0       -1.047882    1.579724    1.587349
     72          1           0       -3.009833    1.710983    3.780461
     73          1           0       -1.248109    1.666829    3.877622
     74          1           0       -1.999290    0.216342    3.972117
     75          1           0       -0.236841    0.291500    0.210294
     76          1           0       -1.083123   -1.152671   -0.319165
     77          1           0        0.117370   -2.187577    1.783762
     78          1           0        1.049192   -0.692214    1.546423
     79          1           0       -3.420894    5.354084    1.315011
     80          1           0       -4.672132    6.422880    1.705520
     81          1           0       -3.863996    6.469010    0.116392
     82          1           0       -6.309840    7.696644    0.607075
     83          1           0       -7.576270    8.235203   -0.512014
     84          1           0       -6.184444    7.431092   -1.168744
     85          1           0      -10.591056    1.976359   -1.133460
     86          1           0      -10.879532   -0.853416   -0.148752
     87          1           0      -10.781543    1.871638    1.752689
     88          1           0      -11.710486    0.452349    1.133621
     89          1           0      -12.107084    2.167753    0.776660
     90          1           0      -11.724046    0.073528   -2.332963
     91          1           0      -10.825534   -1.498228   -2.375066
     92          1           0       -9.358077   -0.593188   -3.968071
     93          1           0       -9.121036    0.737999   -2.787526
     94          1           0      -10.439081    0.743193   -3.953818
     95          1           0       -7.995582   -5.058254   -1.450760
     96          1           0       -8.192033   -5.079069    0.286145
     97          1           0       -6.812049   -5.921937   -0.449164
     98          1           0       -2.681536   -3.356943    1.759865
     99          1           0        1.152459   -4.985494    0.367907
    100          1           0        0.228119   -5.353723   -1.000734
    101          1           0        0.071706   -6.424077    0.394273
    102          1           0        3.279813   -2.793211   -1.295669
    103          1           0        3.414599   -3.906248    0.026124
    104          1           0        4.681221   -1.178811    0.362457
    105          1           0        7.243895   -4.077216   -1.068887
    106          1           0        5.680621   -4.759948   -0.711320
    107          1           0        6.843635   -4.575901    0.563963
    108          1           0        7.997315   -2.357379    1.145345
    109          1           0        6.890200   -1.068609    1.158434
    110          1           0        7.738208   -0.902574   -1.442344
    111          1           0        8.936155   -2.063795   -0.808326
    112          1           0       10.215033   -0.513296    0.099926
    113          1           0        8.768527    0.036960    1.011854
    114          1           0        9.767538    1.804855   -0.375414
    115          1           0        6.871687    1.033661   -0.339396
    116          1           0        7.202698    1.674979   -1.827003
    117          1           0        7.667481    2.693508   -0.448380
    118          1           0        8.948679    1.010754   -2.995963
    119          1           0       10.062389   -0.155606   -2.283671
    120          1           0       10.934574    2.787146   -2.231052
    121          1           0       10.774303    1.953089   -3.798640
    122          1           0       12.715554    0.895912   -3.537339
    123          1           0       12.259220    0.320142   -1.949774
    124          1           0       12.796352    2.848961   -1.174460
    125          1           0       13.085685    3.805491   -3.345242
    126          1           0       14.153781    2.494914   -3.823681
    127          1           0       14.740035    3.633092   -2.595719
    128          1           0       15.443248    1.359448   -1.610308
    129          1           0       14.156130    0.391792   -0.972774
    130          1           0       13.997526    2.771846    0.525822
    131          1           0       15.718584    2.538100    0.112561
    132          1           0       15.659643    1.318885    2.014640
    133          1           0       14.810297    0.049917    1.090393
    134          1           0       13.655420    2.470449    2.613272
    135          1           0       14.191656    1.482450    4.488583
    136          1           0       14.734524    0.100208    3.658183
    137          1           0       12.986799    0.334751    4.219486
    138          1           0       11.845175   -0.028431    2.279030
    139          1           0       12.311399    0.724484    0.756371
    140          1           0       11.560206    1.701372    2.036005
 ---------------------------------------------------------------------

 SCF Done:  E(RCAM-B3LYP) =  -3007.17110270     A.U. after   19 cycles

 Excitation energies and oscillator strengths:

 Excited State   1:      Singlet-A      1.6563 eV  748.58 nm  f=0.3816  <S**2>=0.000
     245 -> 248        0.17278
     246 -> 247        0.68659
     245 <- 248        0.10658
 This state for optimization and/or second-order correction.
 Total Energy, E(TD-HF/TD-DFT) =  -3007.11023636
 Copying the excited state density for this state as the 1-particle RhoCI density.

 Excited State   2:      Singlet-A      2.2429 eV  552.78 nm  f=0.0853  <S**2>=0.000
     245 -> 247        0.62617
     246 -> 248       -0.31460

 Excited State   3:      Singlet-A      3.3756 eV  367.30 nm  f=0.0173  <S**2>=0.000
     239 -> 247       -0.12351
     241 -> 247       -0.34453
     241 -> 249       -0.17638
     241 -> 250       -0.14681
     242 -> 247        0.29892
     242 -> 249        0.14880
     242 -> 250        0.10681
     243 -> 247        0.36665

 Excited State   4:      Singlet-A      3.3899 eV  365.74 nm  f=0.2722  <S**2>=0.000
     241 -> 247        0.17811
     242 -> 247       -0.10546
     243 -> 247        0.43756
     245 -> 247        0.19928
     246 -> 248        0.45912

 Excited State   5:      Singlet-A      3.5100 eV  353.23 nm  f=0.3565  <S**2>=0.000
     242 -> 247        0.35403
     243 -> 247       -0.36379
     245 -> 247        0.21159
     246 -> 248        0.39610

 The electronic state is 1-A.
 Alpha  occ. eigenvalues --  -46.88486 -19.25744 -19.24089 -19.19939 -19.19409
 Alpha  occ. eigenvalues --  -19.18604 -19.18449 -14.42298 -14.41859 -14.40180
 Alpha  occ. eigenvalues --  -14.39065 -10.38862 -10.38148 -10.36217 -10.34655
 Alpha  occ. eigenvalues --  -10.31808 -10.31799 -10.31165 -10.30948 -10.30795
 Alpha  occ. eigenvalues --  -10.30661 -10.30376 -10.29871 -10.29534 -10.28957
 Alpha  occ. eigenvalues --  -10.28577 -10.28558 -10.28461 -10.28013 -10.27918
 Alpha  occ. eigenvalues --  -10.27700 -10.27681 -10.27608 -10.27598 -10.27401
 Alpha  occ. eigenvalues --  -10.27337 -10.27146 -10.26828 -10.26393 -10.26319
 Alpha  occ. eigenvalues --  -10.26083 -10.25997 -10.25971 -10.25878 -10.25849
 Alpha  occ. eigenvalues --  -10.25815 -10.25786 -10.25784 -10.25701 -10.25685
 Alpha  occ. eigenvalues --  -10.25590 -10.25341 -10.25315 -10.25077 -10.24985
 Alpha  occ. eigenvalues --  -10.24961 -10.24881 -10.24745 -10.24693 -10.24641
 Alpha  occ. eigenvalues --  -10.24454 -10.24423 -10.24319 -10.24293 -10.23844
 Alpha  occ. eigenvalues --  -10.23764  -3.17023  -1.91931  -1.91456  -1.91346
 Alpha  occ. eigenvalues --   -1.17809  -1.15203  -1.09381  -1.09014  -1.08811
 Alpha  occ. eigenvalues --   -1.07088  -1.04273  -1.03343  -1.03164  -1.01660
 Alpha  occ. eigenvalues --   -0.91672  -0.91429  -0.90651  -0.90042  -0.89448
 Alpha  occ. eigenvalues --   -0.88613  -0.88400  -0.87661  -0.87392  -0.87196
 Alpha  occ. eigenvalues --   -0.86442  -0.86110  -0.84539  -0.83795  -0.83664
 Alpha  occ. eigenvalues --   -0.82805  -0.81926  -0.81060  -0.80586  -0.79856
 Alpha  occ. eigenvalues --   -0.79714  -0.78560  -0.77984  -0.77369  -0.76007
 Alpha  occ. eigenvalues --   -0.75845  -0.75610  -0.75290  -0.74441  -0.74217
 Alpha  occ. eigenvalues --   -0.73459  -0.73078  -0.71886  -0.70259  -0.69788
 Alpha  occ. eigenvalues --   -0.68675  -0.68100  -0.67061  -0.66932  -0.65573
 Alpha  occ. eigenvalues --   -0.65140  -0.64771  -0.64608  -0.64397  -0.64107
 Alpha  occ. eigenvalues --   -0.63928  -0.62711  -0.61491  -0.61285  -0.61085
 Alpha  occ. eigenvalues --   -0.60103  -0.59873  -0.59365  -0.58398  -0.57918
 Alpha  occ. eigenvalues --   -0.57817  -0.56901  -0.56585  -0.56119  -0.55659
 Alpha  occ. eigenvalues --   -0.55553  -0.55271  -0.54858  -0.54368  -0.54254
 Alpha  occ. eigenvalues --   -0.54050  -0.53348  -0.53166  -0.52808  -0.52685
 Alpha  occ. eigenvalues --   -0.52483  -0.52363  -0.52191  -0.52158  -0.51915
 Alpha  occ. eigenvalues --   -0.51795  -0.51216  -0.51092  -0.50947  -0.50834
 Alpha  occ. eigenvalues --   -0.50304  -0.49909  -0.49743  -0.49629  -0.49445
 Alpha  occ. eigenvalues --   -0.49390  -0.49341  -0.48943  -0.48908  -0.48789
 Alpha  occ. eigenvalues --   -0.48635  -0.48244  -0.48039  -0.47901  -0.47718
 Alpha  occ. eigenvalues --   -0.47614  -0.47442  -0.46749  -0.46709  -0.46612
 Alpha  occ. eigenvalues --   -0.46427  -0.46155  -0.46011  -0.45814  -0.45739
 Alpha  occ. eigenvalues --   -0.45455  -0.45354  -0.45313  -0.44916  -0.44834
 Alpha  occ. eigenvalues --   -0.44345  -0.44169  -0.43889  -0.43834  -0.43657
 Alpha  occ. eigenvalues --   -0.43524  -0.43344  -0.43325  -0.43262  -0.43115
 Alpha  occ. eigenvalues --   -0.42890  -0.42560  -0.42531  -0.42501  -0.42213
 Alpha  occ. eigenvalues --   -0.42088  -0.41874  -0.41297  -0.41273  -0.41195
 Alpha  occ. eigenvalues --   -0.40925  -0.40747  -0.40684  -0.40527  -0.40379
 Alpha  occ. eigenvalues --   -0.40078  -0.40027  -0.39156  -0.38841  -0.38651
 Alpha  occ. eigenvalues --   -0.38400  -0.38172  -0.37842  -0.37745  -0.37571
 Alpha  occ. eigenvalues --   -0.37453  -0.37155  -0.36584  -0.36192  -0.35770
 Alpha  occ. eigenvalues --   -0.35558  -0.35105  -0.34919  -0.34549  -0.34377
 Alpha  occ. eigenvalues --   -0.34277  -0.33389  -0.32947  -0.31476  -0.30961
 Alpha  occ. eigenvalues --   -0.30654  -0.30277  -0.29736  -0.29475  -0.24268
 Alpha  occ. eigenvalues --   -0.20895
 Alpha virt. eigenvalues --   -0.08652  -0.01935   0.00243   0.01929   0.03016
 Alpha virt. eigenvalues --    0.04688   0.05402   0.05511   0.05769   0.06541
 Alpha virt. eigenvalues --    0.08188   0.08315   0.08869   0.09111   0.09123

 Mulliken charges:
               1
     1  Mg   0.828188
     2  C   -0.010800
     3  C   -0.077028
     4  C   -0.042655
     5  C   -0.076150
     6  N   -0.357516
     7  C   -0.042817
     8  C    0.010079
     9  C   -0.015941
    10  C    0.032086
    11  C    0.061947
    12  C    0.041879
    13  C    0.055405
    14  C    0.149935
    15  O   -0.211711
    16  O   -0.314021
    17  N   -0.358144
    18  C    0.156965
    19  C   -0.115327
    20  C   -0.051856
    21  C    0.142890
    22  C    0.100915
    23  C    0.035130
    24  O   -0.211544
    25  C    0.027105
    26  N   -0.256666
    27  C   -0.004141
    28  C   -0.051655
    29  C   -0.047003
    30  C    0.009336
    31  C    0.090242
    32  C    0.042870
    33  C    0.006813
    34  N   -0.361782
    35  C    0.157783
    36  C   -0.141943
    37  C    0.010574
    38  C    0.121147
    39  C    0.105914
    40  C    0.032351
    41  O   -0.174366
    42  C   -0.005575
    43  C    0.191508
    44  O   -0.177031
    45  O   -0.362006
    46  C    0.186006
    47  C    0.267321
    48  C   -0.128851
    49  C   -0.115919
    50  C    0.101079
    51  C    0.057195
    52  C   -0.013499
    53  C    0.022962
    54  C   -0.133291
    55  C    0.045549
    56  C    0.032412
    57  C    0.041806
    58  C    0.044934
    59  C   -0.167445
    60  C    0.042702
    61  C    0.053486
    62  C    0.045008
    63  C    0.024055
    64  C   -0.169380
    65  C    0.063863
    66  C    0.035894
    67  H   -0.020774
    68  H   -0.009161
    69  H   -0.026562
    70  H    0.000499
    71  H    0.010814
    72  H    0.036134
    73  H    0.002114
    74  H    0.011296
    75  H   -0.002876
    76  H    0.044930
    77  H    0.039953
    78  H    0.015230
    79  H   -0.012030
    80  H    0.031289
    81  H    0.031569
    82  H    0.027353
    83  H    0.026788
    84  H    0.040368
    85  H    0.020088
    86  H    0.005799
    87  H    0.016324
    88  H    0.016468
    89  H    0.017681
    90  H    0.011996
    91  H    0.001344
    92  H    0.021843
    93  H    0.019162
    94  H    0.005472
    95  H    0.017731
    96  H    0.033580
    97  H    0.037552
    98  H    0.018138
    99  H    0.008097
   100  H    0.052556
   101  H    0.042066
   102  H    0.046660
   103  H    0.022329
   104  H    0.000789
   105  H    0.016382
   106  H    0.005512
   107  H    0.019280
   108  H   -0.004261
   109  H    0.000992
   110  H    0.010486
   111  H    0.000489
   112  H    0.006512
   113  H   -0.007087
   114  H   -0.013134
   115  H    0.010561
   116  H   -0.002084
   117  H    0.021066
   118  H   -0.010194
   119  H   -0.003206
   120  H    0.002396
   121  H   -0.004470
   122  H   -0.001986
   123  H   -0.013578
   124  H    0.002352
   125  H    0.009820
   126  H   -0.000521
   127  H    0.005691
   128  H   -0.004708
   129  H   -0.017564
   130  H   -0.001741
   131  H   -0.005705
   132  H   -0.016399
   133  H    0.001841
   134  H    0.002640
   135  H   -0.010505
   136  H    0.006911
   137  H    0.002019
   138  H    0.019216
   139  H    0.015816
   140  H    0.015280
 Sum of Mulliken charges =  -0.00000

 Dipole moment (field-independent basis, Debye):
    X=              2.6018    Y=              2.8597    Z=              2.4238  Tot=              4.5631
 Quadrupole moment (field-independent basis, Debye-Ang):
   XX=           -371.7622   YY=           -414.5535   ZZ=           -406.9912
   XY=              2.5371   XZ=              3.8979   YZ=              4.9912

 Normal termination of Gaussian 16 at Wed Apr 27 12:32:13 2022.
