 Gaussian 16, Revision A.03,
 Gaussian 16:  ES64L-G16RevA.03 25-Dec-2016

 ---------------------------------
 #p PBE1PBE/Def2SVP td=(nstates=5)
 ---------------------------------

 -----------------------------------------------------
 step_1201_chromophore_1 TDDFT with PBE1PBE functional
 -----------------------------------------------------
 Symbolic Z-matrix:
 Charge =  0 Multiplicity = 1

                         Standard orientation:
 ---------------------------------------------------------------------
 Center     Atomic      Atomic             Coordinates (Angstroms)
 Number     Number       Type             X           Y           Z
 ---------------------------------------------------------------------
      1         12           0       -5.891977    0.516533   -0.087559
      2          6           0       -3.616752   -1.988763    0.494884
      3          6           0       -3.711444    2.854057    1.231587
      4          6           0       -8.371427    2.822999   -0.038757
      5          6           0       -8.342030   -1.942651   -0.723330
      6          7           0       -3.882725    0.372770    0.614526
      7          6           0       -3.098498   -0.746692    0.833163
      8          6           0       -1.768357   -0.415136    1.493546
      9          6           0       -1.937156    1.041016    1.915791
     10          6           0       -3.224898    1.509843    1.215377
     11          6           0       -2.121874    1.169666    3.455535
     12          6           0       -0.654045   -0.656574    0.551126
     13          6           0        0.465543   -1.464937    1.045910
     14          6           0        1.343666   -2.085931    0.053165
     15          8           0        1.001771   -2.442850   -1.059247
     16          8           0        2.581164   -2.096156    0.594807
     17          7           0       -5.945425    2.556339    0.233657
     18          6           0       -4.937410    3.347454    0.705649
     19          6           0       -5.262878    4.755504    0.491536
     20          6           0       -6.634973    4.786688    0.146136
     21          6           0       -7.053190    3.312134    0.079110
     22          6           0       -4.301513    5.821537    0.875722
     23          6           0       -7.545240    6.021690   -0.144663
     24          8           0       -8.757153    5.935650   -0.399232
     25          6           0       -6.850853    7.448622   -0.305773
     26          7           0       -8.100969    0.470048   -0.134063
     27          6           0       -8.866595    1.573377   -0.050927
     28          6           0      -10.353368    1.306873   -0.306346
     29          6           0      -10.253838   -0.231253   -0.789074
     30          6           0       -8.821102   -0.601649   -0.575914
     31          6           0      -11.307853    1.437942    0.901080
     32          6           0      -10.755874   -0.418265   -2.239982
     33          6           0       -9.851212    0.106263   -3.293819
     34          7           0       -5.983708   -1.576744   -0.226250
     35          6           0       -7.086978   -2.453062   -0.507730
     36          6           0       -6.578405   -3.803580   -0.447540
     37          6           0       -5.246700   -3.679167    0.001244
     38          6           0       -4.904008   -2.284853    0.011083
     39          6           0       -7.446803   -5.037973   -0.509296
     40          6           0       -4.138944   -4.418415    0.518545
     41          8           0       -3.963784   -5.623960    0.634840
     42          6           0       -2.935926   -3.397646    0.700383
     43          6           0       -1.741545   -3.885201   -0.016701
     44          8           0       -1.666870   -3.822622   -1.209816
     45          8           0       -0.772287   -4.502115    0.771777
     46          6           0        0.177209   -5.383435    0.087286
     47          6           0        3.509014   -2.851503   -0.231032
     48          6           0        4.840435   -2.193242   -0.003798
     49          6           0        6.095548   -2.720322   -0.005415
     50          6           0        6.447160   -4.086930   -0.326137
     51          6           0        7.258325   -1.866495    0.512260
     52          6           0        8.196743   -1.309767   -0.540249
     53          6           0        9.172953   -0.204567    0.029066
     54          6           0        9.086180    1.084110   -0.826569
     55          6           0        7.615221    1.669651   -0.818484
     56          6           0        9.747315    0.887633   -2.264313
     57          6           0       10.912779    1.815888   -2.725455
     58          6           0       12.322631    1.213045   -2.570963
     59          6           0       13.305352    2.166788   -1.854687
     60          6           0       13.858519    3.125541   -2.986088
     61          6           0       14.506191    1.420633   -1.055346
     62          6           0       14.760329    2.040694    0.256134
     63          6           0       14.777165    1.088212    1.419450
     64          6           0       13.588786    1.401274    2.411491
     65          6           0       13.869027    0.758444    3.739069
     66          6           0       12.248811    0.881177    1.833125
     67          1           0       -2.996478    3.489624    1.758275
     68          1           0       -9.209567    3.518808   -0.117801
     69          1           0       -9.170066   -2.618524   -0.948204
     70          1           0       -1.699703   -1.169697    2.277849
     71          1           0       -1.047882    1.579724    1.587349
     72          1           0       -3.009833    1.710983    3.780461
     73          1           0       -1.248109    1.666829    3.877622
     74          1           0       -1.999290    0.216342    3.972117
     75          1           0       -0.236841    0.291500    0.210294
     76          1           0       -1.083123   -1.152671   -0.319165
     77          1           0        0.117370   -2.187577    1.783762
     78          1           0        1.049192   -0.692214    1.546423
     79          1           0       -3.420894    5.354084    1.315011
     80          1           0       -4.672132    6.422880    1.705520
     81          1           0       -3.863996    6.469010    0.116392
     82          1           0       -6.309840    7.696644    0.607075
     83          1           0       -7.576270    8.235203   -0.512014
     84          1           0       -6.184444    7.431092   -1.168744
     85          1           0      -10.591056    1.976359   -1.133460
     86          1           0      -10.879532   -0.853416   -0.148752
     87          1           0      -10.781543    1.871638    1.752689
     88          1           0      -11.710486    0.452349    1.133621
     89          1           0      -12.107084    2.167753    0.776660
     90          1           0      -11.724046    0.073528   -2.332963
     91          1           0      -10.825534   -1.498228   -2.375066
     92          1           0       -9.358077   -0.593188   -3.968071
     93          1           0       -9.121036    0.737999   -2.787526
     94          1           0      -10.439081    0.743193   -3.953818
     95          1           0       -7.995582   -5.058254   -1.450760
     96          1           0       -8.192033   -5.079069    0.286145
     97          1           0       -6.812049   -5.921937   -0.449164
     98          1           0       -2.681536   -3.356943    1.759865
     99          1           0        1.152459   -4.985494    0.367907
    100          1           0        0.228119   -5.353723   -1.000734
    101          1           0        0.071706   -6.424077    0.394273
    102          1           0        3.279813   -2.793211   -1.295669
    103          1           0        3.414599   -3.906248    0.026124
    104          1           0        4.681221   -1.178811    0.362457
    105          1           0        7.243895   -4.077216   -1.068887
    106          1           0        5.680621   -4.759948   -0.711320
    107          1           0        6.843635   -4.575901    0.563963
    108          1           0        7.997315   -2.357379    1.145345
    109          1           0        6.890200   -1.068609    1.158434
    110          1           0        7.738208   -0.902574   -1.442344
    111          1           0        8.936155   -2.063795   -0.808326
    112          1           0       10.215033   -0.513296    0.099926
    113          1           0        8.768527    0.036960    1.011854
    114          1           0        9.767538    1.804855   -0.375414
    115          1           0        6.871687    1.033661   -0.339396
    116          1           0        7.202698    1.674979   -1.827003
    117          1           0        7.667481    2.693508   -0.448380
    118          1           0        8.948679    1.010754   -2.995963
    119          1           0       10.062389   -0.155606   -2.283671
    120          1           0       10.934574    2.787146   -2.231052
    121          1           0       10.774303    1.953089   -3.798640
    122          1           0       12.715554    0.895912   -3.537339
    123          1           0       12.259220    0.320142   -1.949774
    124          1           0       12.796352    2.848961   -1.174460
    125          1           0       13.085685    3.805491   -3.345242
    126          1           0       14.153781    2.494914   -3.823681
    127          1           0       14.740035    3.633092   -2.595719
    128          1           0       15.443248    1.359448   -1.610308
    129          1           0       14.156130    0.391792   -0.972774
    130          1           0       13.997526    2.771846    0.525822
    131          1           0       15.718584    2.538100    0.112561
    132          1           0       15.659643    1.318885    2.014640
    133          1           0       14.810297    0.049917    1.090393
    134          1           0       13.655420    2.470449    2.613272
    135          1           0       14.191656    1.482450    4.488583
    136          1           0       14.734524    0.100208    3.658183
    137          1           0       12.986799    0.334751    4.219486
    138          1           0       11.845175   -0.028431    2.279030
    139          1           0       12.311399    0.724484    0.756371
    140          1           0       11.560206    1.701372    2.036005
 ---------------------------------------------------------------------

 SCF Done:  E(RPBE1PBE) =  -3005.35971142     A.U. after   16 cycles

 Excitation energies and oscillator strengths:

 Excited State   1:      Singlet-A      1.8175 eV  682.19 nm  f=0.3685  <S**2>=0.000
     245 -> 248        0.16263
     246 -> 247        0.69424
     246 <- 247       -0.11151
 This state for optimization and/or second-order correction.
 Total Energy, E(TD-HF/TD-DFT) =  -3005.29292135
 Copying the excited state density for this state as the 1-particle RhoCI density.

 Excited State   2:      Singlet-A      2.2344 eV  554.88 nm  f=0.0942  <S**2>=0.000
     245 -> 247        0.64238
     246 -> 248       -0.27585

 Excited State   3:      Singlet-A      2.9025 eV  427.17 nm  f=0.0012  <S**2>=0.000
     240 -> 247        0.10928
     242 -> 247        0.29658
     243 -> 247        0.59312
     243 -> 249        0.10685

 Excited State   4:      Singlet-A      3.0907 eV  401.16 nm  f=0.0152  <S**2>=0.000
     242 -> 247        0.57404
     243 -> 247       -0.30901
     246 -> 248        0.22531

 Excited State   5:      Singlet-A      3.1152 eV  397.99 nm  f=0.0044  <S**2>=0.000
     241 -> 247        0.65198
     241 -> 248        0.11900
     241 -> 249       -0.15726
     241 -> 250        0.10571
     246 -> 248        0.10676

 The electronic state is 1-A.
 Alpha  occ. eigenvalues --  -46.91898 -19.26449 -19.24725 -19.20221 -19.19631
 Alpha  occ. eigenvalues --  -19.18772 -19.18615 -14.42006 -14.41263 -14.39840
 Alpha  occ. eigenvalues --  -14.38715 -10.35862 -10.35132 -10.33414 -10.31738
 Alpha  occ. eigenvalues --  -10.29646 -10.29207 -10.28878 -10.28695 -10.28619
 Alpha  occ. eigenvalues --  -10.28154 -10.27886 -10.27555 -10.27308 -10.26532
 Alpha  occ. eigenvalues --  -10.26407 -10.26220 -10.26108 -10.25818 -10.25627
 Alpha  occ. eigenvalues --  -10.25563 -10.25547 -10.25419 -10.25397 -10.25199
 Alpha  occ. eigenvalues --  -10.24875 -10.24758 -10.24300 -10.23849 -10.23673
 Alpha  occ. eigenvalues --  -10.23610 -10.23603 -10.23533 -10.23465 -10.23422
 Alpha  occ. eigenvalues --  -10.23360 -10.23355 -10.23332 -10.23265 -10.23256
 Alpha  occ. eigenvalues --  -10.23044 -10.23016 -10.22927 -10.22630 -10.22545
 Alpha  occ. eigenvalues --  -10.22533 -10.22460 -10.22156 -10.22073 -10.22021
 Alpha  occ. eigenvalues --  -10.22005 -10.21990 -10.21888 -10.21693 -10.21276
 Alpha  occ. eigenvalues --  -10.21222  -3.14015  -1.86864  -1.86368  -1.86260
 Alpha  occ. eigenvalues --   -1.12639  -1.09936  -1.04070  -1.03751  -1.03667
 Alpha  occ. eigenvalues --   -1.01904  -0.98896  -0.98041  -0.97790  -0.96285
 Alpha  occ. eigenvalues --   -0.85987  -0.85729  -0.84782  -0.84132  -0.83739
 Alpha  occ. eigenvalues --   -0.82740  -0.82711  -0.81991  -0.81615  -0.81413
 Alpha  occ. eigenvalues --   -0.80743  -0.80420  -0.78712  -0.78063  -0.77935
 Alpha  occ. eigenvalues --   -0.77078  -0.76165  -0.75319  -0.74871  -0.74045
 Alpha  occ. eigenvalues --   -0.73884  -0.72826  -0.72286  -0.71684  -0.70316
 Alpha  occ. eigenvalues --   -0.69926  -0.69746  -0.69628  -0.68611  -0.68392
 Alpha  occ. eigenvalues --   -0.67818  -0.67429  -0.66326  -0.64593  -0.64125
 Alpha  occ. eigenvalues --   -0.63086  -0.62355  -0.61521  -0.61107  -0.60079
 Alpha  occ. eigenvalues --   -0.59696  -0.59277  -0.58910  -0.58824  -0.58630
 Alpha  occ. eigenvalues --   -0.58030  -0.56891  -0.56052  -0.55651  -0.55379
 Alpha  occ. eigenvalues --   -0.54606  -0.54464  -0.53954  -0.53024  -0.52395
 Alpha  occ. eigenvalues --   -0.52263  -0.51455  -0.51060  -0.50723  -0.50210
 Alpha  occ. eigenvalues --   -0.50061  -0.49685  -0.49413  -0.48947  -0.48650
 Alpha  occ. eigenvalues --   -0.48545  -0.47874  -0.47693  -0.47310  -0.47244
 Alpha  occ. eigenvalues --   -0.46963  -0.46922  -0.46803  -0.46680  -0.46429
 Alpha  occ. eigenvalues --   -0.46314  -0.45832  -0.45651  -0.45389  -0.45366
 Alpha  occ. eigenvalues --   -0.44862  -0.44457  -0.44320  -0.44208  -0.44048
 Alpha  occ. eigenvalues --   -0.43995  -0.43932  -0.43575  -0.43503  -0.43343
 Alpha  occ. eigenvalues --   -0.43236  -0.42836  -0.42661  -0.42536  -0.42329
 Alpha  occ. eigenvalues --   -0.42232  -0.42136  -0.41427  -0.41410  -0.41276
 Alpha  occ. eigenvalues --   -0.41080  -0.40827  -0.40741  -0.40555  -0.40382
 Alpha  occ. eigenvalues --   -0.40143  -0.40082  -0.39994  -0.39607  -0.39534
 Alpha  occ. eigenvalues --   -0.39088  -0.38927  -0.38727  -0.38567  -0.38483
 Alpha  occ. eigenvalues --   -0.38314  -0.38099  -0.38045  -0.38010  -0.37914
 Alpha  occ. eigenvalues --   -0.37595  -0.37401  -0.37344  -0.37210  -0.36965
 Alpha  occ. eigenvalues --   -0.36871  -0.36769  -0.36239  -0.36031  -0.35974
 Alpha  occ. eigenvalues --   -0.35774  -0.35618  -0.35394  -0.35305  -0.35259
 Alpha  occ. eigenvalues --   -0.34939  -0.34820  -0.33906  -0.33617  -0.33583
 Alpha  occ. eigenvalues --   -0.33147  -0.33017  -0.32749  -0.32637  -0.32501
 Alpha  occ. eigenvalues --   -0.32463  -0.32190  -0.31645  -0.31097  -0.30700
 Alpha  occ. eigenvalues --   -0.30461  -0.30019  -0.29818  -0.29567  -0.29339
 Alpha  occ. eigenvalues --   -0.29210  -0.28887  -0.27964  -0.26964  -0.26086
 Alpha  occ. eigenvalues --   -0.25782  -0.25570  -0.25145  -0.24788  -0.21145
 Alpha  occ. eigenvalues --   -0.18607
 Alpha virt. eigenvalues --   -0.11158  -0.05465  -0.03938  -0.02470   0.00012
 Alpha virt. eigenvalues --    0.00449   0.00897   0.01006   0.01161   0.03437
 Alpha virt. eigenvalues --    0.03910   0.04779   0.05027   0.05556   0.05757

 Mulliken charges:
               1
     1  Mg   0.976101
     2  C   -0.018772
     3  C   -0.074129
     4  C   -0.040592
     5  C   -0.072053
     6  N   -0.454410
     7  C    0.023161
     8  C   -0.066993
     9  C   -0.100111
    10  C    0.067744
    11  C    0.009474
    12  C    0.001882
    13  C   -0.029221
    14  C    0.223356
    15  O   -0.245023
    16  O   -0.345876
    17  N   -0.473210
    18  C    0.173443
    19  C   -0.141064
    20  C   -0.091035
    21  C    0.171485
    22  C    0.042911
    23  C    0.082493
    24  O   -0.246553
    25  C   -0.045283
    26  N   -0.361742
    27  C    0.040106
    28  C   -0.129923
    29  C   -0.128154
    30  C    0.051497
    31  C    0.036344
    32  C   -0.017856
    33  C   -0.067289
    34  N   -0.484799
    35  C    0.173718
    36  C   -0.153009
    37  C   -0.047175
    38  C    0.183671
    39  C    0.052357
    40  C    0.121915
    41  O   -0.219720
    42  C   -0.101312
    43  C    0.279432
    44  O   -0.212192
    45  O   -0.395648
    46  C    0.126940
    47  C    0.226090
    48  C   -0.138343
    49  C   -0.169478
    50  C    0.040574
    51  C   -0.005176
    52  C   -0.074637
    53  C   -0.036783
    54  C   -0.218770
    55  C   -0.015783
    56  C   -0.017206
    57  C   -0.022856
    58  C   -0.009057
    59  C   -0.253242
    60  C   -0.016864
    61  C    0.001716
    62  C   -0.016111
    63  C   -0.035308
    64  C   -0.264912
    65  C    0.006104
    66  C   -0.028337
    67  H    0.012071
    68  H    0.022715
    69  H    0.004215
    70  H    0.038309
    71  H    0.045660
    72  H    0.062834
    73  H    0.030270
    74  H    0.038799
    75  H    0.030141
    76  H    0.078978
    77  H    0.071329
    78  H    0.049362
    79  H    0.017200
    80  H    0.058793
    81  H    0.058728
    82  H    0.053404
    83  H    0.054097
    84  H    0.066753
    85  H    0.055695
    86  H    0.043066
    87  H    0.044160
    88  H    0.043059
    89  H    0.045177
    90  H    0.045139
    91  H    0.035090
    92  H    0.049472
    93  H    0.051491
    94  H    0.033822
    95  H    0.044832
    96  H    0.060133
    97  H    0.064820
    98  H    0.057093
    99  H    0.034644
   100  H    0.073212
   101  H    0.064470
   102  H    0.073823
   103  H    0.049633
   104  H    0.030436
   105  H    0.044761
   106  H    0.032478
   107  H    0.047203
   108  H    0.028952
   109  H    0.030848
   110  H    0.043353
   111  H    0.033721
   112  H    0.041398
   113  H    0.026850
   114  H    0.028502
   115  H    0.039395
   116  H    0.024728
   117  H    0.048492
   118  H    0.021622
   119  H    0.029722
   120  H    0.033454
   121  H    0.029153
   122  H    0.030081
   123  H    0.018632
   124  H    0.038471
   125  H    0.037823
   126  H    0.027432
   127  H    0.034518
   128  H    0.027036
   129  H    0.013530
   130  H    0.030443
   131  H    0.027475
   132  H    0.018843
   133  H    0.033539
   134  H    0.039200
   135  H    0.018003
   136  H    0.034115
   137  H    0.029403
   138  H    0.044842
   139  H    0.049837
   140  H    0.042710
 Sum of Mulliken charges =  -0.00000

 Dipole moment (field-independent basis, Debye):
    X=              2.6208    Y=              2.9493    Z=              2.4676  Tot=              4.6537
 Quadrupole moment (field-independent basis, Debye-Ang):
   XX=           -366.0493   YY=           -412.1051   ZZ=           -404.2995
   XY=              2.5709   XZ=              4.3677   YZ=              5.2941

 Normal termination of Gaussian 16 at Wed Apr 27 12:51:13 2022.
