 Gaussian 16, Revision A.03,
 Gaussian 16:  ES64L-G16RevA.03 25-Dec-2016

 --------------------------------
 #p wB97XD/Def2SVP td=(nstates=5)
 --------------------------------

 ----------------------------------------------------
 step_1201_chromophore_1 TDDFT with wB97XD functional
 ----------------------------------------------------
 Symbolic Z-matrix:
 Charge =  0 Multiplicity = 1

                         Standard orientation:
 ---------------------------------------------------------------------
 Center     Atomic      Atomic             Coordinates (Angstroms)
 Number     Number       Type             X           Y           Z
 ---------------------------------------------------------------------
      1         12           0       -5.891977    0.516533   -0.087559
      2          6           0       -3.616752   -1.988763    0.494884
      3          6           0       -3.711444    2.854057    1.231587
      4          6           0       -8.371427    2.822999   -0.038757
      5          6           0       -8.342030   -1.942651   -0.723330
      6          7           0       -3.882725    0.372770    0.614526
      7          6           0       -3.098498   -0.746692    0.833163
      8          6           0       -1.768357   -0.415136    1.493546
      9          6           0       -1.937156    1.041016    1.915791
     10          6           0       -3.224898    1.509843    1.215377
     11          6           0       -2.121874    1.169666    3.455535
     12          6           0       -0.654045   -0.656574    0.551126
     13          6           0        0.465543   -1.464937    1.045910
     14          6           0        1.343666   -2.085931    0.053165
     15          8           0        1.001771   -2.442850   -1.059247
     16          8           0        2.581164   -2.096156    0.594807
     17          7           0       -5.945425    2.556339    0.233657
     18          6           0       -4.937410    3.347454    0.705649
     19          6           0       -5.262878    4.755504    0.491536
     20          6           0       -6.634973    4.786688    0.146136
     21          6           0       -7.053190    3.312134    0.079110
     22          6           0       -4.301513    5.821537    0.875722
     23          6           0       -7.545240    6.021690   -0.144663
     24          8           0       -8.757153    5.935650   -0.399232
     25          6           0       -6.850853    7.448622   -0.305773
     26          7           0       -8.100969    0.470048   -0.134063
     27          6           0       -8.866595    1.573377   -0.050927
     28          6           0      -10.353368    1.306873   -0.306346
     29          6           0      -10.253838   -0.231253   -0.789074
     30          6           0       -8.821102   -0.601649   -0.575914
     31          6           0      -11.307853    1.437942    0.901080
     32          6           0      -10.755874   -0.418265   -2.239982
     33          6           0       -9.851212    0.106263   -3.293819
     34          7           0       -5.983708   -1.576744   -0.226250
     35          6           0       -7.086978   -2.453062   -0.507730
     36          6           0       -6.578405   -3.803580   -0.447540
     37          6           0       -5.246700   -3.679167    0.001244
     38          6           0       -4.904008   -2.284853    0.011083
     39          6           0       -7.446803   -5.037973   -0.509296
     40          6           0       -4.138944   -4.418415    0.518545
     41          8           0       -3.963784   -5.623960    0.634840
     42          6           0       -2.935926   -3.397646    0.700383
     43          6           0       -1.741545   -3.885201   -0.016701
     44          8           0       -1.666870   -3.822622   -1.209816
     45          8           0       -0.772287   -4.502115    0.771777
     46          6           0        0.177209   -5.383435    0.087286
     47          6           0        3.509014   -2.851503   -0.231032
     48          6           0        4.840435   -2.193242   -0.003798
     49          6           0        6.095548   -2.720322   -0.005415
     50          6           0        6.447160   -4.086930   -0.326137
     51          6           0        7.258325   -1.866495    0.512260
     52          6           0        8.196743   -1.309767   -0.540249
     53          6           0        9.172953   -0.204567    0.029066
     54          6           0        9.086180    1.084110   -0.826569
     55          6           0        7.615221    1.669651   -0.818484
     56          6           0        9.747315    0.887633   -2.264313
     57          6           0       10.912779    1.815888   -2.725455
     58          6           0       12.322631    1.213045   -2.570963
     59          6           0       13.305352    2.166788   -1.854687
     60          6           0       13.858519    3.125541   -2.986088
     61          6           0       14.506191    1.420633   -1.055346
     62          6           0       14.760329    2.040694    0.256134
     63          6           0       14.777165    1.088212    1.419450
     64          6           0       13.588786    1.401274    2.411491
     65          6           0       13.869027    0.758444    3.739069
     66          6           0       12.248811    0.881177    1.833125
     67          1           0       -2.996478    3.489624    1.758275
     68          1           0       -9.209567    3.518808   -0.117801
     69          1           0       -9.170066   -2.618524   -0.948204
     70          1           0       -1.699703   -1.169697    2.277849
     71          1           0       -1.047882    1.579724    1.587349
     72          1           0       -3.009833    1.710983    3.780461
     73          1           0       -1.248109    1.666829    3.877622
     74          1           0       -1.999290    0.216342    3.972117
     75          1           0       -0.236841    0.291500    0.210294
     76          1           0       -1.083123   -1.152671   -0.319165
     77          1           0        0.117370   -2.187577    1.783762
     78          1           0        1.049192   -0.692214    1.546423
     79          1           0       -3.420894    5.354084    1.315011
     80          1           0       -4.672132    6.422880    1.705520
     81          1           0       -3.863996    6.469010    0.116392
     82          1           0       -6.309840    7.696644    0.607075
     83          1           0       -7.576270    8.235203   -0.512014
     84          1           0       -6.184444    7.431092   -1.168744
     85          1           0      -10.591056    1.976359   -1.133460
     86          1           0      -10.879532   -0.853416   -0.148752
     87          1           0      -10.781543    1.871638    1.752689
     88          1           0      -11.710486    0.452349    1.133621
     89          1           0      -12.107084    2.167753    0.776660
     90          1           0      -11.724046    0.073528   -2.332963
     91          1           0      -10.825534   -1.498228   -2.375066
     92          1           0       -9.358077   -0.593188   -3.968071
     93          1           0       -9.121036    0.737999   -2.787526
     94          1           0      -10.439081    0.743193   -3.953818
     95          1           0       -7.995582   -5.058254   -1.450760
     96          1           0       -8.192033   -5.079069    0.286145
     97          1           0       -6.812049   -5.921937   -0.449164
     98          1           0       -2.681536   -3.356943    1.759865
     99          1           0        1.152459   -4.985494    0.367907
    100          1           0        0.228119   -5.353723   -1.000734
    101          1           0        0.071706   -6.424077    0.394273
    102          1           0        3.279813   -2.793211   -1.295669
    103          1           0        3.414599   -3.906248    0.026124
    104          1           0        4.681221   -1.178811    0.362457
    105          1           0        7.243895   -4.077216   -1.068887
    106          1           0        5.680621   -4.759948   -0.711320
    107          1           0        6.843635   -4.575901    0.563963
    108          1           0        7.997315   -2.357379    1.145345
    109          1           0        6.890200   -1.068609    1.158434
    110          1           0        7.738208   -0.902574   -1.442344
    111          1           0        8.936155   -2.063795   -0.808326
    112          1           0       10.215033   -0.513296    0.099926
    113          1           0        8.768527    0.036960    1.011854
    114          1           0        9.767538    1.804855   -0.375414
    115          1           0        6.871687    1.033661   -0.339396
    116          1           0        7.202698    1.674979   -1.827003
    117          1           0        7.667481    2.693508   -0.448380
    118          1           0        8.948679    1.010754   -2.995963
    119          1           0       10.062389   -0.155606   -2.283671
    120          1           0       10.934574    2.787146   -2.231052
    121          1           0       10.774303    1.953089   -3.798640
    122          1           0       12.715554    0.895912   -3.537339
    123          1           0       12.259220    0.320142   -1.949774
    124          1           0       12.796352    2.848961   -1.174460
    125          1           0       13.085685    3.805491   -3.345242
    126          1           0       14.153781    2.494914   -3.823681
    127          1           0       14.740035    3.633092   -2.595719
    128          1           0       15.443248    1.359448   -1.610308
    129          1           0       14.156130    0.391792   -0.972774
    130          1           0       13.997526    2.771846    0.525822
    131          1           0       15.718584    2.538100    0.112561
    132          1           0       15.659643    1.318885    2.014640
    133          1           0       14.810297    0.049917    1.090393
    134          1           0       13.655420    2.470449    2.613272
    135          1           0       14.191656    1.482450    4.488583
    136          1           0       14.734524    0.100208    3.658183
    137          1           0       12.986799    0.334751    4.219486
    138          1           0       11.845175   -0.028431    2.279030
    139          1           0       12.311399    0.724484    0.756371
    140          1           0       11.560206    1.701372    2.036005
 ---------------------------------------------------------------------

 SCF Done:  E(RwB97XD) =  -3007.87260992     A.U. after   19 cycles

 Excitation energies and oscillator strengths:

 Excited State   1:      Singlet-A      1.5967 eV  776.52 nm  f=0.3796  <S**2>=0.000
     245 -> 248        0.17896
     246 -> 247        0.68411
     245 <- 248        0.11613
 This state for optimization and/or second-order correction.
 Total Energy, E(TD-HF/TD-DFT) =  -3007.81393325
 Copying the excited state density for this state as the 1-particle RhoCI density.

 Excited State   2:      Singlet-A      2.1884 eV  566.56 nm  f=0.0838  <S**2>=0.000
     245 -> 247        0.62494
     246 -> 248       -0.31580

 Excited State   3:      Singlet-A      3.3973 eV  364.95 nm  f=0.0604  <S**2>=0.000
     242 -> 247       -0.14010
     242 -> 249       -0.11954
     243 -> 247        0.57573
     243 -> 249        0.11559
     246 -> 248        0.24231

 Excited State   4:      Singlet-A      3.4037 eV  364.27 nm  f=0.2348  <S**2>=0.000
     241 -> 247        0.31586
     241 -> 249        0.14083
     241 -> 250        0.10973
     242 -> 247        0.32566
     242 -> 249        0.15088
     245 -> 247        0.18408
     246 -> 248        0.39808

 Excited State   5:      Singlet-A      3.5320 eV  351.03 nm  f=0.3686  <S**2>=0.000
     241 -> 249        0.10447
     242 -> 247        0.39154
     243 -> 247        0.33410
     245 -> 247       -0.21171
     246 -> 248       -0.39121

 The electronic state is 1-A.
 Alpha  occ. eigenvalues --  -46.94819 -19.30983 -19.29316 -19.24856 -19.24426
 Alpha  occ. eigenvalues --  -19.23676 -19.23364 -14.46915 -14.46470 -14.44766
 Alpha  occ. eigenvalues --  -14.43670 -10.42649 -10.42002 -10.40213 -10.38691
 Alpha  occ. eigenvalues --  -10.35858 -10.35693 -10.35208 -10.34950 -10.34804
 Alpha  occ. eigenvalues --  -10.34424 -10.34390 -10.33921 -10.33498 -10.32963
 Alpha  occ. eigenvalues --  -10.32754 -10.32598 -10.32563 -10.32119 -10.31984
 Alpha  occ. eigenvalues --  -10.31813 -10.31728 -10.31662 -10.31631 -10.31464
 Alpha  occ. eigenvalues --  -10.31378 -10.31151 -10.30739 -10.30249 -10.30179
 Alpha  occ. eigenvalues --  -10.29990 -10.29914 -10.29874 -10.29870 -10.29791
 Alpha  occ. eigenvalues --  -10.29767 -10.29747 -10.29723 -10.29694 -10.29540
 Alpha  occ. eigenvalues --  -10.29519 -10.29414 -10.29271 -10.29021 -10.28910
 Alpha  occ. eigenvalues --  -10.28905 -10.28825 -10.28584 -10.28491 -10.28464
 Alpha  occ. eigenvalues --  -10.28380 -10.28348 -10.28232 -10.28129 -10.27648
 Alpha  occ. eigenvalues --  -10.27643  -3.20794  -1.94391  -1.93895  -1.93787
 Alpha  occ. eigenvalues --   -1.19989  -1.17356  -1.11638  -1.11222  -1.10982
 Alpha  occ. eigenvalues --   -1.09288  -1.06267  -1.05376  -1.05178  -1.03658
 Alpha  occ. eigenvalues --   -0.93621  -0.93317  -0.92466  -0.91790  -0.91326
 Alpha  occ. eigenvalues --   -0.90388  -0.90302  -0.89561  -0.89250  -0.89074
 Alpha  occ. eigenvalues --   -0.88397  -0.88014  -0.86362  -0.85680  -0.85569
 Alpha  occ. eigenvalues --   -0.84694  -0.83802  -0.82973  -0.82532  -0.81755
 Alpha  occ. eigenvalues --   -0.81559  -0.80474  -0.79911  -0.79284  -0.77946
 Alpha  occ. eigenvalues --   -0.77635  -0.77433  -0.77210  -0.76270  -0.76058
 Alpha  occ. eigenvalues --   -0.75401  -0.75020  -0.73847  -0.72178  -0.71690
 Alpha  occ. eigenvalues --   -0.70662  -0.69986  -0.69042  -0.68787  -0.67545
 Alpha  occ. eigenvalues --   -0.67141  -0.66723  -0.66461  -0.66367  -0.66079
 Alpha  occ. eigenvalues --   -0.65718  -0.64537  -0.63473  -0.63181  -0.62969
 Alpha  occ. eigenvalues --   -0.62034  -0.61873  -0.61352  -0.60403  -0.59888
 Alpha  occ. eigenvalues --   -0.59721  -0.58876  -0.58506  -0.58089  -0.57618
 Alpha  occ. eigenvalues --   -0.57472  -0.57161  -0.56820  -0.56323  -0.56110
 Alpha  occ. eigenvalues --   -0.55951  -0.55271  -0.55057  -0.54690  -0.54588
 Alpha  occ. eigenvalues --   -0.54342  -0.54293  -0.54111  -0.54060  -0.53827
 Alpha  occ. eigenvalues --   -0.53710  -0.53131  -0.53032  -0.52907  -0.52724
 Alpha  occ. eigenvalues --   -0.52208  -0.51783  -0.51654  -0.51536  -0.51360
 Alpha  occ. eigenvalues --   -0.51295  -0.51259  -0.50861  -0.50833  -0.50680
 Alpha  occ. eigenvalues --   -0.50548  -0.50120  -0.49952  -0.49817  -0.49586
 Alpha  occ. eigenvalues --   -0.49509  -0.49393  -0.48666  -0.48611  -0.48552
 Alpha  occ. eigenvalues --   -0.48298  -0.48013  -0.47916  -0.47741  -0.47592
 Alpha  occ. eigenvalues --   -0.47308  -0.47283  -0.47215  -0.46809  -0.46761
 Alpha  occ. eigenvalues --   -0.46283  -0.46125  -0.45813  -0.45719  -0.45594
 Alpha  occ. eigenvalues --   -0.45448  -0.45222  -0.45197  -0.45171  -0.45034
 Alpha  occ. eigenvalues --   -0.44749  -0.44530  -0.44436  -0.44366  -0.44128
 Alpha  occ. eigenvalues --   -0.44023  -0.43820  -0.43221  -0.43131  -0.43112
 Alpha  occ. eigenvalues --   -0.42821  -0.42666  -0.42538  -0.42377  -0.42296
 Alpha  occ. eigenvalues --   -0.41960  -0.41885  -0.40990  -0.40670  -0.40548
 Alpha  occ. eigenvalues --   -0.40232  -0.40038  -0.39715  -0.39691  -0.39532
 Alpha  occ. eigenvalues --   -0.39393  -0.39207  -0.38537  -0.38048  -0.37619
 Alpha  occ. eigenvalues --   -0.37543  -0.36950  -0.36780  -0.36452  -0.36372
 Alpha  occ. eigenvalues --   -0.36121  -0.35573  -0.34987  -0.33645  -0.32894
 Alpha  occ. eigenvalues --   -0.32737  -0.32388  -0.31903  -0.31508  -0.26190
 Alpha  occ. eigenvalues --   -0.22695
 Alpha virt. eigenvalues --   -0.07000  -0.00004   0.02291   0.04038   0.06162
 Alpha virt. eigenvalues --    0.07001   0.07596   0.07683   0.08013   0.09545
 Alpha virt. eigenvalues --    0.10673   0.11600   0.11637   0.12378   0.12412

 Mulliken charges:
               1
     1  Mg   0.965508
     2  C   -0.028980
     3  C   -0.092595
     4  C   -0.050951
     5  C   -0.084945
     6  N   -0.427695
     7  C    0.002408
     8  C   -0.037579
     9  C   -0.071620
    10  C    0.057665
    11  C    0.017518
    12  C    0.012037
    13  C   -0.007328
    14  C    0.206244
    15  O   -0.239201
    16  O   -0.343632
    17  N   -0.440668
    18  C    0.169549
    19  C   -0.133237
    20  C   -0.088186
    21  C    0.162038
    22  C    0.053280
    23  C    0.077310
    24  O   -0.241741
    25  C   -0.030829
    26  N   -0.324263
    27  C    0.018269
    28  C   -0.106532
    29  C   -0.092490
    30  C    0.033022
    31  C    0.045065
    32  C   -0.006214
    33  C   -0.047961
    34  N   -0.448811
    35  C    0.165479
    36  C   -0.148421
    37  C   -0.041276
    38  C    0.164247
    39  C    0.061694
    40  C    0.106447
    41  O   -0.209555
    42  C   -0.064589
    43  C    0.249922
    44  O   -0.204086
    45  O   -0.391094
    46  C    0.145099
    47  C    0.238527
    48  C   -0.146447
    49  C   -0.150302
    50  C    0.050552
    51  C    0.014979
    52  C   -0.059529
    53  C   -0.013707
    54  C   -0.184766
    55  C   -0.002347
    56  C   -0.004741
    57  C   -0.006257
    58  C    0.009343
    59  C   -0.220783
    60  C   -0.003490
    61  C    0.014122
    62  C    0.002575
    63  C   -0.019916
    64  C   -0.231054
    65  C    0.015540
    66  C   -0.006705
    67  H    0.004662
    68  H    0.017978
    69  H    0.000196
    70  H    0.021350
    71  H    0.036797
    72  H    0.057233
    73  H    0.024512
    74  H    0.033004
    75  H    0.022960
    76  H    0.066342
    77  H    0.063119
    78  H    0.042553
    79  H    0.011674
    80  H    0.053152
    81  H    0.054822
    82  H    0.047066
    83  H    0.052545
    84  H    0.061904
    85  H    0.045594
    86  H    0.031844
    87  H    0.038116
    88  H    0.036859
    89  H    0.040124
    90  H    0.037804
    91  H    0.026241
    92  H    0.044963
    93  H    0.037238
    94  H    0.029004
    95  H    0.040038
    96  H    0.056160
    97  H    0.062128
    98  H    0.048019
    99  H    0.025098
   100  H    0.070447
   101  H    0.061740
   102  H    0.069140
   103  H    0.042992
   104  H    0.026895
   105  H    0.038522
   106  H    0.028205
   107  H    0.041693
   108  H    0.021388
   109  H    0.021765
   110  H    0.031894
   111  H    0.024699
   112  H    0.028382
   113  H    0.015363
   114  H    0.012230
   115  H    0.029187
   116  H    0.018154
   117  H    0.044315
   118  H    0.013108
   119  H    0.018410
   120  H    0.023577
   121  H    0.022248
   122  H    0.022102
   123  H    0.004725
   124  H    0.022585
   125  H    0.032107
   126  H    0.019253
   127  H    0.028025
   128  H    0.021032
   129  H    0.002208
   130  H    0.016849
   131  H    0.020968
   132  H    0.009752
   133  H    0.024894
   134  H    0.028873
   135  H    0.012381
   136  H    0.027733
   137  H    0.023813
   138  H    0.039512
   139  H    0.027258
   140  H    0.036561
 Sum of Mulliken charges =  -0.00000

 Dipole moment (field-independent basis, Debye):
    X=              2.6177    Y=              2.8567    Z=              2.4279  Tot=              4.5725
 Quadrupole moment (field-independent basis, Debye-Ang):
   XX=           -366.1753   YY=           -409.8775   ZZ=           -404.0068
   XY=              2.9689   XZ=              4.5279   YZ=              5.0949

 Normal termination of Gaussian 16 at Wed Apr 27 13:18:58 2022.
