 Gaussian 16, Revision A.03,
 Gaussian 16:  ES64L-G16RevA.03 25-Dec-2016

 --------------------
 #p ZINDO=(nstates=5)
 --------------------

 -----------------------------
 step_1201_chromophore_1 ZINDO
 -----------------------------
 Symbolic Z-matrix:
 Charge =  0 Multiplicity = 1

                         Standard orientation:
 ---------------------------------------------------------------------
 Center     Atomic      Atomic             Coordinates (Angstroms)
 Number     Number       Type             X           Y           Z
 ---------------------------------------------------------------------
      1         12           0       -5.891977    0.516533   -0.087559
      2          6           0       -3.616752   -1.988763    0.494884
      3          6           0       -3.711444    2.854057    1.231587
      4          6           0       -8.371427    2.822999   -0.038757
      5          6           0       -8.342030   -1.942651   -0.723330
      6          7           0       -3.882725    0.372770    0.614526
      7          6           0       -3.098498   -0.746692    0.833163
      8          6           0       -1.768357   -0.415136    1.493546
      9          6           0       -1.937156    1.041016    1.915791
     10          6           0       -3.224898    1.509843    1.215377
     11          6           0       -2.121874    1.169666    3.455535
     12          6           0       -0.654045   -0.656574    0.551126
     13          6           0        0.465543   -1.464937    1.045910
     14          6           0        1.343666   -2.085931    0.053165
     15          8           0        1.001771   -2.442850   -1.059247
     16          8           0        2.581164   -2.096156    0.594807
     17          7           0       -5.945425    2.556339    0.233657
     18          6           0       -4.937410    3.347454    0.705649
     19          6           0       -5.262878    4.755504    0.491536
     20          6           0       -6.634973    4.786688    0.146136
     21          6           0       -7.053190    3.312134    0.079110
     22          6           0       -4.301513    5.821537    0.875722
     23          6           0       -7.545240    6.021690   -0.144663
     24          8           0       -8.757153    5.935650   -0.399232
     25          6           0       -6.850853    7.448622   -0.305773
     26          7           0       -8.100969    0.470048   -0.134063
     27          6           0       -8.866595    1.573377   -0.050927
     28          6           0      -10.353368    1.306873   -0.306346
     29          6           0      -10.253838   -0.231253   -0.789074
     30          6           0       -8.821102   -0.601649   -0.575914
     31          6           0      -11.307853    1.437942    0.901080
     32          6           0      -10.755874   -0.418265   -2.239982
     33          6           0       -9.851212    0.106263   -3.293819
     34          7           0       -5.983708   -1.576744   -0.226250
     35          6           0       -7.086978   -2.453062   -0.507730
     36          6           0       -6.578405   -3.803580   -0.447540
     37          6           0       -5.246700   -3.679167    0.001244
     38          6           0       -4.904008   -2.284853    0.011083
     39          6           0       -7.446803   -5.037973   -0.509296
     40          6           0       -4.138944   -4.418415    0.518545
     41          8           0       -3.963784   -5.623960    0.634840
     42          6           0       -2.935926   -3.397646    0.700383
     43          6           0       -1.741545   -3.885201   -0.016701
     44          8           0       -1.666870   -3.822622   -1.209816
     45          8           0       -0.772287   -4.502115    0.771777
     46          6           0        0.177209   -5.383435    0.087286
     47          6           0        3.509014   -2.851503   -0.231032
     48          6           0        4.840435   -2.193242   -0.003798
     49          6           0        6.095548   -2.720322   -0.005415
     50          6           0        6.447160   -4.086930   -0.326137
     51          6           0        7.258325   -1.866495    0.512260
     52          6           0        8.196743   -1.309767   -0.540249
     53          6           0        9.172953   -0.204567    0.029066
     54          6           0        9.086180    1.084110   -0.826569
     55          6           0        7.615221    1.669651   -0.818484
     56          6           0        9.747315    0.887633   -2.264313
     57          6           0       10.912779    1.815888   -2.725455
     58          6           0       12.322631    1.213045   -2.570963
     59          6           0       13.305352    2.166788   -1.854687
     60          6           0       13.858519    3.125541   -2.986088
     61          6           0       14.506191    1.420633   -1.055346
     62          6           0       14.760329    2.040694    0.256134
     63          6           0       14.777165    1.088212    1.419450
     64          6           0       13.588786    1.401274    2.411491
     65          6           0       13.869027    0.758444    3.739069
     66          6           0       12.248811    0.881177    1.833125
     67          1           0       -2.996478    3.489624    1.758275
     68          1           0       -9.209567    3.518808   -0.117801
     69          1           0       -9.170066   -2.618524   -0.948204
     70          1           0       -1.699703   -1.169697    2.277849
     71          1           0       -1.047882    1.579724    1.587349
     72          1           0       -3.009833    1.710983    3.780461
     73          1           0       -1.248109    1.666829    3.877622
     74          1           0       -1.999290    0.216342    3.972117
     75          1           0       -0.236841    0.291500    0.210294
     76          1           0       -1.083123   -1.152671   -0.319165
     77          1           0        0.117370   -2.187577    1.783762
     78          1           0        1.049192   -0.692214    1.546423
     79          1           0       -3.420894    5.354084    1.315011
     80          1           0       -4.672132    6.422880    1.705520
     81          1           0       -3.863996    6.469010    0.116392
     82          1           0       -6.309840    7.696644    0.607075
     83          1           0       -7.576270    8.235203   -0.512014
     84          1           0       -6.184444    7.431092   -1.168744
     85          1           0      -10.591056    1.976359   -1.133460
     86          1           0      -10.879532   -0.853416   -0.148752
     87          1           0      -10.781543    1.871638    1.752689
     88          1           0      -11.710486    0.452349    1.133621
     89          1           0      -12.107084    2.167753    0.776660
     90          1           0      -11.724046    0.073528   -2.332963
     91          1           0      -10.825534   -1.498228   -2.375066
     92          1           0       -9.358077   -0.593188   -3.968071
     93          1           0       -9.121036    0.737999   -2.787526
     94          1           0      -10.439081    0.743193   -3.953818
     95          1           0       -7.995582   -5.058254   -1.450760
     96          1           0       -8.192033   -5.079069    0.286145
     97          1           0       -6.812049   -5.921937   -0.449164
     98          1           0       -2.681536   -3.356943    1.759865
     99          1           0        1.152459   -4.985494    0.367907
    100          1           0        0.228119   -5.353723   -1.000734
    101          1           0        0.071706   -6.424077    0.394273
    102          1           0        3.279813   -2.793211   -1.295669
    103          1           0        3.414599   -3.906248    0.026124
    104          1           0        4.681221   -1.178811    0.362457
    105          1           0        7.243895   -4.077216   -1.068887
    106          1           0        5.680621   -4.759948   -0.711320
    107          1           0        6.843635   -4.575901    0.563963
    108          1           0        7.997315   -2.357379    1.145345
    109          1           0        6.890200   -1.068609    1.158434
    110          1           0        7.738208   -0.902574   -1.442344
    111          1           0        8.936155   -2.063795   -0.808326
    112          1           0       10.215033   -0.513296    0.099926
    113          1           0        8.768527    0.036960    1.011854
    114          1           0        9.767538    1.804855   -0.375414
    115          1           0        6.871687    1.033661   -0.339396
    116          1           0        7.202698    1.674979   -1.827003
    117          1           0        7.667481    2.693508   -0.448380
    118          1           0        8.948679    1.010754   -2.995963
    119          1           0       10.062389   -0.155606   -2.283671
    120          1           0       10.934574    2.787146   -2.231052
    121          1           0       10.774303    1.953089   -3.798640
    122          1           0       12.715554    0.895912   -3.537339
    123          1           0       12.259220    0.320142   -1.949774
    124          1           0       12.796352    2.848961   -1.174460
    125          1           0       13.085685    3.805491   -3.345242
    126          1           0       14.153781    2.494914   -3.823681
    127          1           0       14.740035    3.633092   -2.595719
    128          1           0       15.443248    1.359448   -1.610308
    129          1           0       14.156130    0.391792   -0.972774
    130          1           0       13.997526    2.771846    0.525822
    131          1           0       15.718584    2.538100    0.112561
    132          1           0       15.659643    1.318885    2.014640
    133          1           0       14.810297    0.049917    1.090393
    134          1           0       13.655420    2.470449    2.613272
    135          1           0       14.191656    1.482450    4.488583
    136          1           0       14.734524    0.100208    3.658183
    137          1           0       12.986799    0.334751    4.219486
    138          1           0       11.845175   -0.028431    2.279030
    139          1           0       12.311399    0.724484    0.756371
    140          1           0       11.560206    1.701372    2.036005
 ---------------------------------------------------------------------

 SCF Done:  E(RZINDO/S) =  -474.473525225     A.U. after   19 cycles

 Excitation energies and oscillator strengths:

 Excited State   1:      Singlet-A      1.2029 eV 1030.68 nm  f=0.6232  <S**2>=0.000
     175 ->178         0.18379
     176 ->177         0.66468
 This state for optimization and/or second-order correction.
 Total Energy, E(CIS/TDA) =  -474.429318327
 Copying the excited state density for this state as the 1-particle RhoCI density.

 Excited State   2:      Singlet-A      1.9553 eV  634.08 nm  f=0.0088  <S**2>=0.000
     175 ->177         0.50993
     176 ->178        -0.46857

 Excited State   3:      Singlet-A      2.8578 eV  433.84 nm  f=0.0954  <S**2>=0.000
     169 ->177         0.28315
     169 ->179        -0.32371
     169 ->180         0.20850
     169 ->186        -0.11632
     169 ->187         0.11419
     172 ->177         0.12865
     175 ->177         0.12876
     176 ->178         0.16571
     176 ->179         0.28307

 Excited State   4:      Singlet-A      2.9044 eV  426.88 nm  f=0.2080  <S**2>=0.000
     169 ->177        -0.17501
     169 ->179         0.19052
     169 ->180        -0.15230
     175 ->177         0.20899
     176 ->178         0.26209
     176 ->179         0.42092
     176 ->180         0.20425

 Excited State   5:      Singlet-A      2.9976 eV  413.61 nm  f=0.7413  <S**2>=0.000
     171 ->177        -0.10795
     173 ->177         0.11298
     175 ->177        -0.35152
     176 ->178        -0.36496
     176 ->179         0.42435

 The electronic state is 1-A.
 Alpha  occ. eigenvalues --   -1.83875  -1.81868  -1.79827  -1.76682  -1.71527
 Alpha  occ. eigenvalues --   -1.70856  -1.65918  -1.62090  -1.57716  -1.55730
 Alpha  occ. eigenvalues --   -1.54836  -1.53624  -1.49274  -1.47922  -1.47588
 Alpha  occ. eigenvalues --   -1.45249  -1.43865  -1.39988  -1.39669  -1.38762
 Alpha  occ. eigenvalues --   -1.36066  -1.33277  -1.33049  -1.31538  -1.29983
 Alpha  occ. eigenvalues --   -1.26418  -1.24930  -1.22893  -1.20355  -1.17629
 Alpha  occ. eigenvalues --   -1.17242  -1.17206  -1.15015  -1.13800  -1.12499
 Alpha  occ. eigenvalues --   -1.11622  -1.10386  -1.09963  -1.06515  -1.04264
 Alpha  occ. eigenvalues --   -1.03430  -1.02983  -0.98406  -0.97893  -0.97738
 Alpha  occ. eigenvalues --   -0.97097  -0.94299  -0.93593  -0.92997  -0.92439
 Alpha  occ. eigenvalues --   -0.90292  -0.89139  -0.88583  -0.87471  -0.85759
 Alpha  occ. eigenvalues --   -0.84715  -0.84196  -0.83534  -0.82218  -0.80399
 Alpha  occ. eigenvalues --   -0.79731  -0.78938  -0.78214  -0.77473  -0.76349
 Alpha  occ. eigenvalues --   -0.76233  -0.75236  -0.74622  -0.74225  -0.73883
 Alpha  occ. eigenvalues --   -0.73576  -0.72562  -0.72428  -0.71911  -0.71547
 Alpha  occ. eigenvalues --   -0.70761  -0.69748  -0.69075  -0.68951  -0.68009
 Alpha  occ. eigenvalues --   -0.67162  -0.66180  -0.66065  -0.65347  -0.65124
 Alpha  occ. eigenvalues --   -0.64815  -0.64680  -0.64207  -0.63518  -0.63106
 Alpha  occ. eigenvalues --   -0.62606  -0.62338  -0.62179  -0.62081  -0.61498
 Alpha  occ. eigenvalues --   -0.61298  -0.61155  -0.60979  -0.60418  -0.60194
 Alpha  occ. eigenvalues --   -0.59959  -0.59073  -0.58838  -0.58229  -0.57974
 Alpha  occ. eigenvalues --   -0.57516  -0.57228  -0.56647  -0.56112  -0.56035
 Alpha  occ. eigenvalues --   -0.55731  -0.55326  -0.54646  -0.54465  -0.54283
 Alpha  occ. eigenvalues --   -0.53747  -0.53424  -0.53379  -0.53054  -0.52565
 Alpha  occ. eigenvalues --   -0.52482  -0.51780  -0.51726  -0.51609  -0.51066
 Alpha  occ. eigenvalues --   -0.50884  -0.50346  -0.50261  -0.49956  -0.49589
 Alpha  occ. eigenvalues --   -0.49378  -0.49330  -0.49039  -0.49000  -0.48721
 Alpha  occ. eigenvalues --   -0.48614  -0.48430  -0.48089  -0.47888  -0.47630
 Alpha  occ. eigenvalues --   -0.47454  -0.47213  -0.46931  -0.46695  -0.46610
 Alpha  occ. eigenvalues --   -0.45809  -0.45796  -0.45671  -0.45296  -0.45185
 Alpha  occ. eigenvalues --   -0.44937  -0.44608  -0.44309  -0.44270  -0.43918
 Alpha  occ. eigenvalues --   -0.43138  -0.42918  -0.42844  -0.42620  -0.42299
 Alpha  occ. eigenvalues --   -0.41960  -0.41948  -0.40630  -0.39031  -0.38276
 Alpha  occ. eigenvalues --   -0.37385  -0.37131  -0.35665  -0.35091  -0.34741
 Alpha  occ. eigenvalues --   -0.33107  -0.32593  -0.32347  -0.31729  -0.26917
 Alpha  occ. eigenvalues --   -0.21284
 Alpha virt. eigenvalues --   -0.08297  -0.01984  -0.00534   0.00968   0.02399
 Alpha virt. eigenvalues --    0.02509   0.02610   0.03538   0.04440   0.05099
 Alpha virt. eigenvalues --    0.06361   0.06863   0.07065   0.07853   0.08216

 Mulliken charges:
               1
     1  Mg   0.423094
     2  C   -0.067893
     3  C   -0.089518
     4  C   -0.043124
     5  C   -0.045560
     6  N   -0.317353
     7  C    0.152931
     8  C    0.013049
     9  C    0.015751
    10  C    0.102468
    11  C   -0.055490
    12  C   -0.016791
    13  C    0.006263
    14  C    0.477222
    15  O   -0.508841
    16  O   -0.264156
    17  N   -0.295263
    18  C    0.108560
    19  C   -0.000416
    20  C   -0.053272
    21  C    0.122191
    22  C   -0.043072
    23  C    0.317728
    24  O   -0.516032
    25  C   -0.031600
    26  N   -0.262711
    27  C    0.119421
    28  C   -0.005501
    29  C    0.001370
    30  C    0.131210
    31  C   -0.050574
    32  C   -0.020284
    33  C   -0.054061
    34  N   -0.331811
    35  C    0.090621
    36  C    0.050459
    37  C   -0.046370
    38  C    0.154382
    39  C   -0.036057
    40  C    0.334545
    41  O   -0.518721
    42  C    0.044131
    43  C    0.496218
    44  O   -0.497723
    45  O   -0.280373
    46  C    0.077685
    47  C    0.104166
    48  C   -0.092552
    49  C   -0.000009
    50  C   -0.032897
    51  C   -0.019251
    52  C   -0.033952
    53  C   -0.041355
    54  C   -0.018947
    55  C   -0.060387
    56  C   -0.039201
    57  C   -0.034362
    58  C   -0.032371
    59  C   -0.028460
    60  C   -0.064139
    61  C   -0.034104
    62  C   -0.030591
    63  C   -0.035925
    64  C   -0.011779
    65  C   -0.060715
    66  C   -0.055938
    67  H    0.029095
    68  H    0.038520
    69  H    0.024606
    70  H    0.029073
    71  H    0.034612
    72  H    0.034211
    73  H    0.009262
    74  H    0.019538
    75  H    0.020861
    76  H    0.036269
    77  H    0.048555
    78  H    0.025950
    79  H    0.014174
    80  H    0.026053
    81  H    0.034069
    82  H    0.033715
    83  H    0.036123
    84  H    0.037202
    85  H    0.039719
    86  H    0.025821
    87  H    0.021385
    88  H    0.025727
    89  H    0.022717
    90  H    0.021885
    91  H    0.014293
    92  H    0.025666
    93  H    0.024179
    94  H    0.010921
    95  H    0.027139
    96  H    0.033609
    97  H    0.034184
    98  H    0.032221
    99  H    0.024186
   100  H    0.057030
   101  H    0.040962
   102  H    0.057768
   103  H    0.043740
   104  H    0.028841
   105  H    0.024688
   106  H    0.019309
   107  H    0.026188
   108  H    0.021730
   109  H    0.018440
   110  H    0.029351
   111  H    0.014067
   112  H    0.023509
   113  H    0.012830
   114  H    0.010239
   115  H    0.026814
   116  H    0.014817
   117  H    0.023192
   118  H    0.013931
   119  H    0.019992
   120  H    0.027122
   121  H    0.014964
   122  H    0.023033
   123  H    0.010114
   124  H    0.025858
   125  H    0.021178
   126  H    0.016722
   127  H    0.016121
   128  H    0.020910
   129  H    0.013823
   130  H    0.021195
   131  H    0.014451
   132  H    0.008184
   133  H    0.027195
   134  H    0.027884
   135  H    0.004249
   136  H    0.021214
   137  H    0.018766
   138  H    0.025678
   139  H    0.020760
   140  H    0.013632
 Sum of Mulliken charges =  -0.00000

 Dipole moment (field-independent basis, Debye):
    X=              3.3190    Y=              2.9635    Z=              5.1415  Tot=              6.7995
 N-N= 4.280941949091D+03 E-N= 0.000000000000D+00  KE=-9.236840389591D+03
 Leave Link  601 at Wed Apr 27 13:31:07 2022, MaxMem=  6710886400 cpu:               0.7 elap:               0.0
 (Enter /sw/apps/gaussian-16.0/g16/l9999.exe)
 1\1\GINC-BP1-COMPUTE196\SP\RZINDO CIS\STO-3G\C55H74Mg1N4O6\OF15641\27-
 Apr-2022\0\\#p ZINDO=(nstates=5)\\step_1201_chromophore_1 ZINDO\\0,1\M
 g,0,-1.756,17.823,26.364\C,0,-2.168,15.748,29.069\C,0,-2.639,20.561,28
 .283\C,0,-2.007,19.719,23.569\C,0,-1.592,14.976,24.285\N,0,-2.19,18.04
 3,28.441\C,0,-2.364,17.077,29.417\C,0,-2.821,17.658,30.747\C,0,-3.18,1
 9.099,30.398\C,0,-2.633,19.31,28.975\C,0,-4.721,19.315,30.386\C,0,-1.7
 53,17.519,31.761\C,0,-2.138,16.932,33.049\C,0,-1.073,16.379,33.887\O,0

 Normal termination of Gaussian 16 at Wed Apr 27 13:31:07 2022.
