 Gaussian 16, Revision A.03,
 Gaussian 16:  ES64L-G16RevA.03 25-Dec-2016

 ------------------------------
 #p blyp/Def2SVP td=(nstates=5)
 ------------------------------

 --------------------------------------------------
 step_451_chromophore_23 TDDFT with blyp functional
 --------------------------------------------------
 Symbolic Z-matrix:
 Charge =  0 Multiplicity = 1

                         Standard orientation:
 ---------------------------------------------------------------------
 Center     Atomic      Atomic             Coordinates (Angstroms)
 Number     Number       Type             X           Y           Z
 ---------------------------------------------------------------------
      1         12           0        4.696137    0.941128   -0.424813
      2          6           0        3.408976   -2.281220   -0.693812
      3          6           0        1.817621    2.167638   -1.811032
      4          6           0        5.682643    4.042025    0.405388
      5          6           0        7.332637   -0.421402    1.537413
      6          7           0        2.860631    0.030749   -1.174002
      7          6           0        2.603839   -1.288501   -1.220485
      8          6           0        1.307092   -1.657589   -1.980366
      9          6           0        0.879167   -0.168185   -2.444095
     10          6           0        1.914756    0.714371   -1.728673
     11          6           0        0.835586    0.009663   -3.966358
     12          6           0        0.275454   -2.477497   -1.108703
     13          6           0       -0.168244   -3.833952   -1.536204
     14          6           0       -1.614965   -3.921021   -1.843192
     15          8           0       -2.103025   -4.065020   -2.924944
     16          8           0       -2.369978   -3.903728   -0.709856
     17          7           0        3.899579    2.941763   -0.654135
     18          6           0        2.697745    3.139635   -1.309492
     19          6           0        2.546443    4.569667   -1.384165
     20          6           0        3.734421    5.154471   -0.831994
     21          6           0        4.519517    4.069592   -0.341084
     22          6           0        1.499731    5.269156   -2.241895
     23          6           0        4.069881    6.680082   -0.791627
     24          8           0        3.436993    7.467214   -1.432224
     25          6           0        5.301756    7.167849    0.000207
     26          7           0        6.387558    1.726586    0.653383
     27          6           0        6.525407    3.007680    0.898231
     28          6           0        7.711926    3.328014    1.766947
     29          6           0        8.025441    1.892397    2.381135
     30          6           0        7.187597    1.004248    1.435990
     31          6           0        8.927243    4.028193    1.110003
     32          6           0        7.510555    1.685790    3.899279
     33          6           0        8.648115    1.504316    4.944224
     34          7           0        5.413311   -0.924552    0.074693
     35          6           0        6.492290   -1.354102    0.890115
     36          6           0        6.547691   -2.812736    0.907772
     37          6           0        5.280821   -3.186898    0.447187
     38          6           0        4.707514   -2.066946   -0.156933
     39          6           0        7.499103   -3.676931    1.649575
     40          6           0        4.467401   -4.309537    0.284438
     41          8           0        4.624602   -5.498000    0.644992
     42          6           0        3.262155   -3.802975   -0.533607
     43          6           0        3.365223   -4.611642   -1.858639
     44          8           0        3.953042   -4.192792   -2.871456
     45          8           0        2.712238   -5.798686   -1.653212
     46          6           0        2.698502   -6.536129   -2.898751
     47          6           0       -3.818680   -4.100047   -0.776761
     48          6           0       -4.530804   -3.843765    0.524549
     49          6           0       -4.322359   -2.742934    1.271928
     50          6           0       -3.592983   -1.504016    0.835854
     51          6           0       -4.897000   -2.729804    2.652915
     52          6           0       -6.208775   -1.956131    2.733229
     53          6           0       -7.349938   -2.938403    3.119987
     54          6           0       -8.545153   -2.909605    2.104124
     55          6           0       -9.386117   -4.246200    2.160960
     56          6           0       -9.418836   -1.665634    2.363525
     57          6           0       -9.450099   -0.684539    1.161911
     58          6           0       -8.768427    0.614701    1.586157
     59          6           0       -8.640575    1.607458    0.370461
     60          6           0       -7.321109    1.473914   -0.405009
     61          6           0       -8.904435    3.144880    0.824175
     62          6           0      -10.389350    3.468877    0.799150
     63          6           0      -10.809723    4.611973   -0.093703
     64          6           0      -11.991568    4.147636   -1.022744
     65          6           0      -11.750755    4.678205   -2.523648
     66          6           0      -13.318895    4.595172   -0.358415
     67          1           0        0.868099    2.490911   -2.243045
     68          1           0        6.044045    5.014510    0.744521
     69          1           0        8.182534   -0.788357    2.117183
     70          1           0        1.547165   -2.196577   -2.898031
     71          1           0       -0.152334   -0.027447   -2.121860
     72          1           0        0.882775    1.098940   -3.985701
     73          1           0       -0.152056   -0.309682   -4.299491
     74          1           0        1.634267   -0.525163   -4.479548
     75          1           0       -0.634166   -1.883731   -1.016103
     76          1           0        0.592801   -2.548223   -0.068078
     77          1           0        0.104782   -4.470024   -0.693794
     78          1           0        0.510505   -4.071510   -2.355056
     79          1           0        1.164356    4.672007   -3.090165
     80          1           0        1.741987    6.202085   -2.750890
     81          1           0        0.588449    5.513355   -1.696169
     82          1           0        6.182212    6.682646   -0.421073
     83          1           0        5.221667    7.021421    1.077538
     84          1           0        5.295831    8.252259   -0.112304
     85          1           0        7.519562    3.976793    2.621796
     86          1           0        9.104965    1.795595    2.265522
     87          1           0        8.675694    4.096451    0.051391
     88          1           0        9.755611    3.341919    1.285606
     89          1           0        9.050090    5.067374    1.414777
     90          1           0        6.862879    0.814595    4.002736
     91          1           0        7.018108    2.598530    4.235342
     92          1           0        8.352882    1.810987    5.947664
     93          1           0        9.415622    2.229128    4.673024
     94          1           0        8.956208    0.459481    4.979982
     95          1           0        7.408646   -3.587667    2.731816
     96          1           0        8.445894   -3.340749    1.226736
     97          1           0        7.393235   -4.719536    1.349897
     98          1           0        2.390338   -4.104714    0.046971
     99          1           0        3.653787   -7.061150   -2.887550
    100          1           0        2.642691   -5.996217   -3.844653
    101          1           0        1.870212   -7.243046   -2.846466
    102          1           0       -4.007510   -5.099034   -1.170032
    103          1           0       -4.287208   -3.345935   -1.407904
    104          1           0       -5.070875   -4.689732    0.948685
    105          1           0       -2.651311   -1.449394    1.382893
    106          1           0       -4.166970   -0.605205    1.060233
    107          1           0       -3.412736   -1.568593   -0.237374
    108          1           0       -4.179420   -2.236079    3.308351
    109          1           0       -5.015359   -3.746395    3.028844
    110          1           0       -6.458177   -1.397649    1.831601
    111          1           0       -6.069615   -1.178926    3.484989
    112          1           0       -7.668031   -2.664405    4.126231
    113          1           0       -7.031050   -3.979999    3.162377
    114          1           0       -7.978798   -2.774357    1.183016
    115          1           0      -10.461650   -4.160883    2.311874
    116          1           0       -9.051027   -4.861187    2.995792
    117          1           0       -9.199577   -4.947329    1.347639
    118          1           0       -9.207978   -1.159786    3.305712
    119          1           0      -10.396419   -2.051726    2.654885
    120          1           0      -10.526041   -0.584403    1.015690
    121          1           0       -9.046422   -1.007855    0.203144
    122          1           0       -7.802723    0.551124    2.087717
    123          1           0       -9.294229    1.084008    2.417282
    124          1           0       -9.447138    1.352307   -0.316810
    125          1           0       -6.604070    0.742057   -0.031968
    126          1           0       -6.778914    2.409434   -0.542948
    127          1           0       -7.630104    1.269071   -1.430204
    128          1           0       -8.300189    3.865791    0.273119
    129          1           0       -8.701199    3.178836    1.894622
    130          1           0      -10.712531    3.834283    1.774464
    131          1           0      -10.951492    2.592470    0.477174
    132          1           0       -9.957157    4.967727   -0.672943
    133          1           0      -11.100494    5.537281    0.403585
    134          1           0      -11.918244    3.074208   -1.195688
    135          1           0      -12.700458    4.613075   -3.053538
    136          1           0      -11.015398    4.131535   -3.114805
    137          1           0      -11.316033    5.677141   -2.539939
    138          1           0      -13.793495    5.238197   -1.099883
    139          1           0      -13.161565    5.340067    0.421769
    140          1           0      -13.892640    3.702258   -0.111067
 ---------------------------------------------------------------------

 SCF Done:  E(RB-LYP) =  -3007.34569657     A.U. after   22 cycles

 Excitation energies and oscillator strengths:

 Excited State   1:      Singlet-A      1.8250 eV  679.38 nm  f=0.2774  <S**2>=0.000
     245 -> 248        0.20734
     246 -> 247        0.68247
     246 <- 247       -0.14281
 This state for optimization and/or second-order correction.
 Total Energy, E(TD-HF/TD-DFT) =  -3007.27863035
 Copying the excited state density for this state as the 1-particle RhoCI density.

 Excited State   2:      Singlet-A      1.9478 eV  636.55 nm  f=0.0251  <S**2>=0.000
     244 -> 247        0.56244
     245 -> 247       -0.39911
     246 -> 248        0.12120

 Excited State   3:      Singlet-A      1.9915 eV  622.56 nm  f=0.0003  <S**2>=0.000
     243 -> 247        0.70198

 Excited State   4:      Singlet-A      2.0445 eV  606.44 nm  f=0.0428  <S**2>=0.000
     244 -> 247        0.41323
     245 -> 247        0.50237
     246 -> 248       -0.24747

 Excited State   5:      Singlet-A      2.2521 eV  550.53 nm  f=0.0005  <S**2>=0.000
     242 -> 247        0.70331

 The electronic state is 1-A.
 Alpha  occ. eigenvalues --  -46.28005 -18.83409 -18.81283 -18.77690 -18.76149
 Alpha  occ. eigenvalues --  -18.76083 -18.75555 -14.04151 -14.03703 -14.01294
 Alpha  occ. eigenvalues --  -14.00721 -10.04769 -10.03490 -10.00256  -9.99125
 Alpha  occ. eigenvalues --   -9.97655  -9.97356  -9.97138  -9.96896  -9.96736
 Alpha  occ. eigenvalues --   -9.96731  -9.95986  -9.95722  -9.95373  -9.94576
 Alpha  occ. eigenvalues --   -9.94268  -9.94262  -9.94259  -9.94018  -9.93794
 Alpha  occ. eigenvalues --   -9.93671  -9.93618  -9.93593  -9.93518  -9.93408
 Alpha  occ. eigenvalues --   -9.93354  -9.93218  -9.92918  -9.92852  -9.92843
 Alpha  occ. eigenvalues --   -9.92552  -9.92500  -9.92467  -9.92343  -9.92283
 Alpha  occ. eigenvalues --   -9.92249  -9.92215  -9.92094  -9.92075  -9.92040
 Alpha  occ. eigenvalues --   -9.91625  -9.91537  -9.91513  -9.91494  -9.91493
 Alpha  occ. eigenvalues --   -9.91212  -9.91147  -9.91063  -9.90910  -9.90884
 Alpha  occ. eigenvalues --   -9.90847  -9.90803  -9.90742  -9.90640  -9.90267
 Alpha  occ. eigenvalues --   -9.90235  -2.92532  -1.72976  -1.72405  -1.72242
 Alpha  occ. eigenvalues --   -0.98543  -0.98166  -0.93204  -0.90272  -0.90092
 Alpha  occ. eigenvalues --   -0.89865  -0.88601  -0.88354  -0.86127  -0.85381
 Alpha  occ. eigenvalues --   -0.75804  -0.74313  -0.73386  -0.72710  -0.72257
 Alpha  occ. eigenvalues --   -0.72134  -0.71791  -0.71232  -0.70550  -0.70333
 Alpha  occ. eigenvalues --   -0.69939  -0.68758  -0.68218  -0.67747  -0.67638
 Alpha  occ. eigenvalues --   -0.66564  -0.66002  -0.65322  -0.65140  -0.64875
 Alpha  occ. eigenvalues --   -0.64221  -0.62747  -0.62147  -0.61588  -0.60720
 Alpha  occ. eigenvalues --   -0.60492  -0.60145  -0.59912  -0.59559  -0.58681
 Alpha  occ. eigenvalues --   -0.58134  -0.57714  -0.57088  -0.55728  -0.54321
 Alpha  occ. eigenvalues --   -0.54131  -0.53514  -0.52554  -0.52417  -0.52234
 Alpha  occ. eigenvalues --   -0.51816  -0.51098  -0.50901  -0.50606  -0.50267
 Alpha  occ. eigenvalues --   -0.50153  -0.49794  -0.49066  -0.48921  -0.46977
 Alpha  occ. eigenvalues --   -0.46534  -0.46298  -0.45779  -0.45307  -0.45180
 Alpha  occ. eigenvalues --   -0.44954  -0.44572  -0.43595  -0.43304  -0.42722
 Alpha  occ. eigenvalues --   -0.42412  -0.42068  -0.41743  -0.41581  -0.41293
 Alpha  occ. eigenvalues --   -0.41029  -0.40799  -0.40586  -0.40440  -0.40118
 Alpha  occ. eigenvalues --   -0.40060  -0.39803  -0.39405  -0.39297  -0.39202
 Alpha  occ. eigenvalues --   -0.38827  -0.38691  -0.38654  -0.38483  -0.38289
 Alpha  occ. eigenvalues --   -0.38246  -0.37905  -0.37596  -0.37420  -0.37343
 Alpha  occ. eigenvalues --   -0.37192  -0.37146  -0.36582  -0.36552  -0.36487
 Alpha  occ. eigenvalues --   -0.36344  -0.36206  -0.36119  -0.35763  -0.35469
 Alpha  occ. eigenvalues --   -0.35376  -0.35149  -0.34956  -0.34919  -0.34775
 Alpha  occ. eigenvalues --   -0.34582  -0.34536  -0.34312  -0.34293  -0.34135
 Alpha  occ. eigenvalues --   -0.33754  -0.33749  -0.33730  -0.33262  -0.33097
 Alpha  occ. eigenvalues --   -0.33017  -0.32858  -0.32753  -0.32528  -0.32335
 Alpha  occ. eigenvalues --   -0.32181  -0.31886  -0.31775  -0.31689  -0.31512
 Alpha  occ. eigenvalues --   -0.31326  -0.31221  -0.31078  -0.30978  -0.30860
 Alpha  occ. eigenvalues --   -0.30735  -0.30511  -0.30451  -0.30084  -0.30021
 Alpha  occ. eigenvalues --   -0.29768  -0.29449  -0.29415  -0.29292  -0.29198
 Alpha  occ. eigenvalues --   -0.29035  -0.29005  -0.28480  -0.27926  -0.27770
 Alpha  occ. eigenvalues --   -0.27557  -0.27370  -0.27172  -0.26833  -0.26564
 Alpha  occ. eigenvalues --   -0.26387  -0.26086  -0.25818  -0.25573  -0.25508
 Alpha  occ. eigenvalues --   -0.25107  -0.24535  -0.24338  -0.23631  -0.23306
 Alpha  occ. eigenvalues --   -0.23189  -0.22683  -0.22120  -0.21491  -0.20979
 Alpha  occ. eigenvalues --   -0.20193  -0.19960  -0.18943  -0.18807  -0.17647
 Alpha  occ. eigenvalues --   -0.16078
 Alpha virt. eigenvalues --   -0.11692  -0.07408  -0.06745  -0.04639  -0.03012
 Alpha virt. eigenvalues --   -0.02804  -0.02392  -0.01809  -0.01399  -0.00330
 Alpha virt. eigenvalues --    0.00865   0.01273   0.01887   0.02426   0.02753

 Mulliken charges:
               1
     1  Mg   0.689902
     2  C    0.055523
     3  C   -0.077305
     4  C   -0.045889
     5  C   -0.079622
     6  N   -0.145385
     7  C   -0.094076
     8  C    0.006954
     9  C   -0.035142
    10  C    0.003519
    11  C    0.140094
    12  C    0.077313
    13  C    0.182247
    14  C    0.042950
    15  O   -0.163706
    16  O   -0.283371
    17  N   -0.266571
    18  C    0.159084
    19  C   -0.109462
    20  C    0.020795
    21  C    0.125727
    22  C    0.145846
    23  C   -0.081430
    24  O   -0.121563
    25  C    0.122347
    26  N   -0.147156
    27  C   -0.010198
    28  C   -0.037960
    29  C    0.004705
    30  C    0.019720
    31  C    0.146684
    32  C    0.086047
    33  C    0.043460
    34  N   -0.292626
    35  C    0.121282
    36  C   -0.179920
    37  C    0.105553
    38  C    0.073946
    39  C    0.176417
    40  C   -0.081190
    41  O   -0.161513
    42  C    0.047892
    43  C    0.131261
    44  O   -0.197295
    45  O   -0.242992
    46  C    0.221714
    47  C    0.312864
    48  C   -0.111017
    49  C   -0.163025
    50  C    0.165640
    51  C    0.157991
    52  C    0.061954
    53  C    0.077270
    54  C   -0.079999
    55  C    0.114180
    56  C    0.136697
    57  C    0.096027
    58  C    0.073202
    59  C   -0.085533
    60  C    0.113980
    61  C    0.118177
    62  C    0.080112
    63  C    0.084226
    64  C   -0.129476
    65  C    0.072123
    66  C    0.147670
    67  H   -0.044176
    68  H   -0.099811
    69  H   -0.052437
    70  H   -0.008425
    71  H   -0.029356
    72  H   -0.019919
    73  H   -0.000115
    74  H    0.009359
    75  H   -0.023310
    76  H   -0.021549
    77  H    0.000004
    78  H   -0.010175
    79  H   -0.019138
    80  H    0.004179
    81  H   -0.012768
    82  H    0.023343
    83  H    0.015881
    84  H   -0.014806
    85  H   -0.028580
    86  H   -0.026609
    87  H   -0.014007
    88  H   -0.006767
    89  H    0.000378
    90  H   -0.003922
    91  H   -0.016190
    92  H   -0.011252
    93  H   -0.010813
    94  H    0.004115
    95  H    0.019466
    96  H   -0.006969
    97  H    0.004614
    98  H   -0.004573
    99  H    0.010433
   100  H    0.023022
   101  H    0.013135
   102  H   -0.009810
   103  H    0.000199
   104  H   -0.038221
   105  H    0.004587
   106  H   -0.005254
   107  H   -0.007247
   108  H   -0.043806
   109  H   -0.025940
   110  H   -0.000774
   111  H   -0.031966
   112  H   -0.033457
   113  H   -0.034218
   114  H   -0.029888
   115  H   -0.012170
   116  H   -0.032445
   117  H   -0.019329
   118  H   -0.043395
   119  H   -0.057080
   120  H   -0.029061
   121  H   -0.017341
   122  H   -0.039963
   123  H   -0.044529
   124  H   -0.032767
   125  H   -0.008561
   126  H   -0.027956
   127  H   -0.021678
   128  H   -0.027996
   129  H   -0.039075
   130  H   -0.036844
   131  H   -0.017287
   132  H   -0.052682
   133  H   -0.038783
   134  H   -0.026631
   135  H   -0.015105
   136  H   -0.019659
   137  H   -0.017654
   138  H   -0.032970
   139  H   -0.018861
   140  H    0.003681
 Sum of Mulliken charges =  -0.00000

 Dipole moment (field-independent basis, Debye):
    X=              0.2270    Y=              1.5014    Z=              3.5393  Tot=              3.8513
 Quadrupole moment (field-independent basis, Debye-Ang):
   XX=           -371.0164   YY=           -442.3475   ZZ=           -405.1981
   XY=             22.5516   XZ=              9.7222   YZ=             12.5276

 Normal termination of Gaussian 16 at Fri Apr 29 20:19:15 2022.
