 Gaussian 16, Revision A.03,
 Gaussian 16:  ES64L-G16RevA.03 25-Dec-2016

 -----------------------------------
 #p cam-b3lyp/Def2SVP td=(nstates=5)
 -----------------------------------

 -------------------------------------------------------
 step_451_chromophore_23 TDDFT with cam-b3lyp functional
 -------------------------------------------------------
 Symbolic Z-matrix:
 Charge =  0 Multiplicity = 1

                         Standard orientation:
 ---------------------------------------------------------------------
 Center     Atomic      Atomic             Coordinates (Angstroms)
 Number     Number       Type             X           Y           Z
 ---------------------------------------------------------------------
      1         12           0        4.696137    0.941128   -0.424813
      2          6           0        3.408976   -2.281220   -0.693812
      3          6           0        1.817621    2.167638   -1.811032
      4          6           0        5.682643    4.042025    0.405388
      5          6           0        7.332637   -0.421402    1.537413
      6          7           0        2.860631    0.030749   -1.174002
      7          6           0        2.603839   -1.288501   -1.220485
      8          6           0        1.307092   -1.657589   -1.980366
      9          6           0        0.879167   -0.168185   -2.444095
     10          6           0        1.914756    0.714371   -1.728673
     11          6           0        0.835586    0.009663   -3.966358
     12          6           0        0.275454   -2.477497   -1.108703
     13          6           0       -0.168244   -3.833952   -1.536204
     14          6           0       -1.614965   -3.921021   -1.843192
     15          8           0       -2.103025   -4.065020   -2.924944
     16          8           0       -2.369978   -3.903728   -0.709856
     17          7           0        3.899579    2.941763   -0.654135
     18          6           0        2.697745    3.139635   -1.309492
     19          6           0        2.546443    4.569667   -1.384165
     20          6           0        3.734421    5.154471   -0.831994
     21          6           0        4.519517    4.069592   -0.341084
     22          6           0        1.499731    5.269156   -2.241895
     23          6           0        4.069881    6.680082   -0.791627
     24          8           0        3.436993    7.467214   -1.432224
     25          6           0        5.301756    7.167849    0.000207
     26          7           0        6.387558    1.726586    0.653383
     27          6           0        6.525407    3.007680    0.898231
     28          6           0        7.711926    3.328014    1.766947
     29          6           0        8.025441    1.892397    2.381135
     30          6           0        7.187597    1.004248    1.435990
     31          6           0        8.927243    4.028193    1.110003
     32          6           0        7.510555    1.685790    3.899279
     33          6           0        8.648115    1.504316    4.944224
     34          7           0        5.413311   -0.924552    0.074693
     35          6           0        6.492290   -1.354102    0.890115
     36          6           0        6.547691   -2.812736    0.907772
     37          6           0        5.280821   -3.186898    0.447187
     38          6           0        4.707514   -2.066946   -0.156933
     39          6           0        7.499103   -3.676931    1.649575
     40          6           0        4.467401   -4.309537    0.284438
     41          8           0        4.624602   -5.498000    0.644992
     42          6           0        3.262155   -3.802975   -0.533607
     43          6           0        3.365223   -4.611642   -1.858639
     44          8           0        3.953042   -4.192792   -2.871456
     45          8           0        2.712238   -5.798686   -1.653212
     46          6           0        2.698502   -6.536129   -2.898751
     47          6           0       -3.818680   -4.100047   -0.776761
     48          6           0       -4.530804   -3.843765    0.524549
     49          6           0       -4.322359   -2.742934    1.271928
     50          6           0       -3.592983   -1.504016    0.835854
     51          6           0       -4.897000   -2.729804    2.652915
     52          6           0       -6.208775   -1.956131    2.733229
     53          6           0       -7.349938   -2.938403    3.119987
     54          6           0       -8.545153   -2.909605    2.104124
     55          6           0       -9.386117   -4.246200    2.160960
     56          6           0       -9.418836   -1.665634    2.363525
     57          6           0       -9.450099   -0.684539    1.161911
     58          6           0       -8.768427    0.614701    1.586157
     59          6           0       -8.640575    1.607458    0.370461
     60          6           0       -7.321109    1.473914   -0.405009
     61          6           0       -8.904435    3.144880    0.824175
     62          6           0      -10.389350    3.468877    0.799150
     63          6           0      -10.809723    4.611973   -0.093703
     64          6           0      -11.991568    4.147636   -1.022744
     65          6           0      -11.750755    4.678205   -2.523648
     66          6           0      -13.318895    4.595172   -0.358415
     67          1           0        0.868099    2.490911   -2.243045
     68          1           0        6.044045    5.014510    0.744521
     69          1           0        8.182534   -0.788357    2.117183
     70          1           0        1.547165   -2.196577   -2.898031
     71          1           0       -0.152334   -0.027447   -2.121860
     72          1           0        0.882775    1.098940   -3.985701
     73          1           0       -0.152056   -0.309682   -4.299491
     74          1           0        1.634267   -0.525163   -4.479548
     75          1           0       -0.634166   -1.883731   -1.016103
     76          1           0        0.592801   -2.548223   -0.068078
     77          1           0        0.104782   -4.470024   -0.693794
     78          1           0        0.510505   -4.071510   -2.355056
     79          1           0        1.164356    4.672007   -3.090165
     80          1           0        1.741987    6.202085   -2.750890
     81          1           0        0.588449    5.513355   -1.696169
     82          1           0        6.182212    6.682646   -0.421073
     83          1           0        5.221667    7.021421    1.077538
     84          1           0        5.295831    8.252259   -0.112304
     85          1           0        7.519562    3.976793    2.621796
     86          1           0        9.104965    1.795595    2.265522
     87          1           0        8.675694    4.096451    0.051391
     88          1           0        9.755611    3.341919    1.285606
     89          1           0        9.050090    5.067374    1.414777
     90          1           0        6.862879    0.814595    4.002736
     91          1           0        7.018108    2.598530    4.235342
     92          1           0        8.352882    1.810987    5.947664
     93          1           0        9.415622    2.229128    4.673024
     94          1           0        8.956208    0.459481    4.979982
     95          1           0        7.408646   -3.587667    2.731816
     96          1           0        8.445894   -3.340749    1.226736
     97          1           0        7.393235   -4.719536    1.349897
     98          1           0        2.390338   -4.104714    0.046971
     99          1           0        3.653787   -7.061150   -2.887550
    100          1           0        2.642691   -5.996217   -3.844653
    101          1           0        1.870212   -7.243046   -2.846466
    102          1           0       -4.007510   -5.099034   -1.170032
    103          1           0       -4.287208   -3.345935   -1.407904
    104          1           0       -5.070875   -4.689732    0.948685
    105          1           0       -2.651311   -1.449394    1.382893
    106          1           0       -4.166970   -0.605205    1.060233
    107          1           0       -3.412736   -1.568593   -0.237374
    108          1           0       -4.179420   -2.236079    3.308351
    109          1           0       -5.015359   -3.746395    3.028844
    110          1           0       -6.458177   -1.397649    1.831601
    111          1           0       -6.069615   -1.178926    3.484989
    112          1           0       -7.668031   -2.664405    4.126231
    113          1           0       -7.031050   -3.979999    3.162377
    114          1           0       -7.978798   -2.774357    1.183016
    115          1           0      -10.461650   -4.160883    2.311874
    116          1           0       -9.051027   -4.861187    2.995792
    117          1           0       -9.199577   -4.947329    1.347639
    118          1           0       -9.207978   -1.159786    3.305712
    119          1           0      -10.396419   -2.051726    2.654885
    120          1           0      -10.526041   -0.584403    1.015690
    121          1           0       -9.046422   -1.007855    0.203144
    122          1           0       -7.802723    0.551124    2.087717
    123          1           0       -9.294229    1.084008    2.417282
    124          1           0       -9.447138    1.352307   -0.316810
    125          1           0       -6.604070    0.742057   -0.031968
    126          1           0       -6.778914    2.409434   -0.542948
    127          1           0       -7.630104    1.269071   -1.430204
    128          1           0       -8.300189    3.865791    0.273119
    129          1           0       -8.701199    3.178836    1.894622
    130          1           0      -10.712531    3.834283    1.774464
    131          1           0      -10.951492    2.592470    0.477174
    132          1           0       -9.957157    4.967727   -0.672943
    133          1           0      -11.100494    5.537281    0.403585
    134          1           0      -11.918244    3.074208   -1.195688
    135          1           0      -12.700458    4.613075   -3.053538
    136          1           0      -11.015398    4.131535   -3.114805
    137          1           0      -11.316033    5.677141   -2.539939
    138          1           0      -13.793495    5.238197   -1.099883
    139          1           0      -13.161565    5.340067    0.421769
    140          1           0      -13.892640    3.702258   -0.111067
 ---------------------------------------------------------------------

 SCF Done:  E(RCAM-B3LYP) =  -3007.14531961     A.U. after   18 cycles

 Excitation energies and oscillator strengths:

 Excited State   1:      Singlet-A      1.7496 eV  708.62 nm  f=0.3662  <S**2>=0.000
     245 -> 248        0.19433
     246 -> 247        0.68125
     245 <- 248        0.10921
 This state for optimization and/or second-order correction.
 Total Energy, E(TD-HF/TD-DFT) =  -3007.08102135
 Copying the excited state density for this state as the 1-particle RhoCI density.

 Excited State   2:      Singlet-A      2.2638 eV  547.68 nm  f=0.0665  <S**2>=0.000
     245 -> 247        0.61255
     246 -> 248       -0.34098

 Excited State   3:      Singlet-A      3.3057 eV  375.07 nm  f=0.0822  <S**2>=0.000
     242 -> 247        0.13656
     243 -> 247        0.39032
     244 -> 247        0.46403
     245 -> 247        0.11038
     246 -> 248        0.29158

 Excited State   4:      Singlet-A      3.4386 eV  360.57 nm  f=0.1534  <S**2>=0.000
     239 -> 247        0.14482
     239 -> 249        0.12100
     241 -> 247        0.43622
     241 -> 249        0.30576
     241 -> 250       -0.11501
     242 -> 247        0.15499
     244 -> 247        0.11120
     245 -> 247       -0.15154
     246 -> 248       -0.25604

 Excited State   5:      Singlet-A      3.4762 eV  356.66 nm  f=0.4195  <S**2>=0.000
     241 -> 247        0.13834
     241 -> 249        0.12715
     242 -> 247        0.30348
     242 -> 249        0.10028
     243 -> 247       -0.18323
     244 -> 247       -0.23579
     245 -> 247        0.24084
     246 -> 248        0.43348

 The electronic state is 1-A.
 Alpha  occ. eigenvalues --  -46.89593 -19.26336 -19.24172 -19.20773 -19.19484
 Alpha  occ. eigenvalues --  -19.19193 -19.18528 -14.43075 -14.42523 -14.39635
 Alpha  occ. eigenvalues --  -14.39189 -10.40326 -10.38704 -10.35591 -10.34331
 Alpha  occ. eigenvalues --  -10.31865 -10.31723 -10.31313 -10.31262 -10.31122
 Alpha  occ. eigenvalues --  -10.31082 -10.30334 -10.30005 -10.29940 -10.28736
 Alpha  occ. eigenvalues --  -10.28649 -10.28523 -10.28388 -10.28222 -10.28129
 Alpha  occ. eigenvalues --  -10.27898 -10.27822 -10.27762 -10.27745 -10.27467
 Alpha  occ. eigenvalues --  -10.27145 -10.27059 -10.27006 -10.26990 -10.26770
 Alpha  occ. eigenvalues --  -10.26687 -10.26653 -10.26420 -10.26228 -10.26162
 Alpha  occ. eigenvalues --  -10.25877 -10.25872 -10.25843 -10.25799 -10.25796
 Alpha  occ. eigenvalues --  -10.25472 -10.25416 -10.25273 -10.25201 -10.25112
 Alpha  occ. eigenvalues --  -10.24888 -10.24813 -10.24668 -10.24583 -10.24498
 Alpha  occ. eigenvalues --  -10.24493 -10.24446 -10.24405 -10.24397 -10.23924
 Alpha  occ. eigenvalues --  -10.23836  -3.18020  -1.92942  -1.92469  -1.92317
 Alpha  occ. eigenvalues --   -1.17011  -1.16711  -1.11848  -1.08268  -1.07998
 Alpha  occ. eigenvalues --   -1.07995  -1.06467  -1.06116  -1.03907  -1.02789
 Alpha  occ. eigenvalues --   -0.92872  -0.91227  -0.90220  -0.89492  -0.89062
 Alpha  occ. eigenvalues --   -0.88745  -0.88475  -0.87836  -0.86990  -0.86850
 Alpha  occ. eigenvalues --   -0.86421  -0.85451  -0.84517  -0.83988  -0.83745
 Alpha  occ. eigenvalues --   -0.82624  -0.82016  -0.81377  -0.80983  -0.80848
 Alpha  occ. eigenvalues --   -0.80010  -0.78393  -0.77683  -0.77242  -0.76134
 Alpha  occ. eigenvalues --   -0.75842  -0.75497  -0.75268  -0.74846  -0.73893
 Alpha  occ. eigenvalues --   -0.73171  -0.72695  -0.72018  -0.70596  -0.68890
 Alpha  occ. eigenvalues --   -0.68682  -0.68007  -0.67016  -0.66728  -0.66296
 Alpha  occ. eigenvalues --   -0.66061  -0.65365  -0.65097  -0.64657  -0.64225
 Alpha  occ. eigenvalues --   -0.64074  -0.63806  -0.62874  -0.62863  -0.60776
 Alpha  occ. eigenvalues --   -0.60200  -0.59850  -0.59217  -0.58809  -0.58703
 Alpha  occ. eigenvalues --   -0.58356  -0.58164  -0.56881  -0.56646  -0.55973
 Alpha  occ. eigenvalues --   -0.55796  -0.54905  -0.54693  -0.54472  -0.54306
 Alpha  occ. eigenvalues --   -0.53819  -0.53575  -0.53439  -0.53112  -0.52904
 Alpha  occ. eigenvalues --   -0.52658  -0.52599  -0.52348  -0.51895  -0.51723
 Alpha  occ. eigenvalues --   -0.51585  -0.51065  -0.50989  -0.50894  -0.50738
 Alpha  occ. eigenvalues --   -0.50600  -0.50417  -0.50029  -0.49909  -0.49761
 Alpha  occ. eigenvalues --   -0.49570  -0.49303  -0.49279  -0.48839  -0.48635
 Alpha  occ. eigenvalues --   -0.48521  -0.48463  -0.48351  -0.48261  -0.47564
 Alpha  occ. eigenvalues --   -0.47452  -0.47307  -0.46954  -0.46805  -0.46722
 Alpha  occ. eigenvalues --   -0.46544  -0.46311  -0.46288  -0.46090  -0.46065
 Alpha  occ. eigenvalues --   -0.45635  -0.45492  -0.45418  -0.45141  -0.44878
 Alpha  occ. eigenvalues --   -0.44612  -0.44470  -0.44366  -0.44168  -0.44094
 Alpha  occ. eigenvalues --   -0.43737  -0.43637  -0.43578  -0.43429  -0.43139
 Alpha  occ. eigenvalues --   -0.42938  -0.42725  -0.42547  -0.42503  -0.42318
 Alpha  occ. eigenvalues --   -0.42205  -0.41964  -0.41857  -0.41491  -0.41292
 Alpha  occ. eigenvalues --   -0.41076  -0.40954  -0.40774  -0.40521  -0.40202
 Alpha  occ. eigenvalues --   -0.40100  -0.39948  -0.39641  -0.38869  -0.38758
 Alpha  occ. eigenvalues --   -0.38536  -0.38224  -0.37987  -0.37732  -0.37377
 Alpha  occ. eigenvalues --   -0.37187  -0.37172  -0.37005  -0.36668  -0.36477
 Alpha  occ. eigenvalues --   -0.36160  -0.34979  -0.34836  -0.34661  -0.33780
 Alpha  occ. eigenvalues --   -0.33741  -0.33610  -0.33544  -0.31464  -0.31160
 Alpha  occ. eigenvalues --   -0.30751  -0.30098  -0.29725  -0.29678  -0.24502
 Alpha  occ. eigenvalues --   -0.21300
 Alpha virt. eigenvalues --   -0.08687  -0.02494  -0.00272   0.02364   0.02790
 Alpha virt. eigenvalues --    0.04608   0.04655   0.04994   0.05871   0.06163
 Alpha virt. eigenvalues --    0.07713   0.08068   0.08492   0.08942   0.09077

 Mulliken charges:
               1
     1  Mg   0.823809
     2  C    0.026836
     3  C   -0.089171
     4  C   -0.068732
     5  C   -0.080685
     6  N   -0.221718
     7  C   -0.054105
     8  C   -0.039572
     9  C   -0.083721
    10  C    0.024748
    11  C    0.085233
    12  C    0.024955
    13  C    0.110192
    14  C    0.124198
    15  O   -0.203389
    16  O   -0.346753
    17  N   -0.357414
    18  C    0.163517
    19  C   -0.107562
    20  C   -0.044627
    21  C    0.155087
    22  C    0.082860
    23  C   -0.000504
    24  O   -0.161377
    25  C    0.037811
    26  N   -0.221743
    27  C    0.012716
    28  C   -0.088015
    29  C   -0.049276
    30  C    0.029997
    31  C    0.089525
    32  C    0.031865
    33  C   -0.013158
    34  N   -0.379769
    35  C    0.121109
    36  C   -0.166905
    37  C    0.028236
    38  C    0.114814
    39  C    0.116675
    40  C    0.009379
    41  O   -0.201747
    42  C   -0.022218
    43  C    0.213015
    44  O   -0.234417
    45  O   -0.302928
    46  C    0.174229
    47  C    0.276377
    48  C   -0.132786
    49  C   -0.178527
    50  C    0.109470
    51  C    0.093669
    52  C    0.011141
    53  C    0.029586
    54  C   -0.134869
    55  C    0.054515
    56  C    0.080675
    57  C    0.037552
    58  C    0.022429
    59  C   -0.137559
    60  C    0.057516
    61  C    0.063192
    62  C    0.026989
    63  C    0.030563
    64  C   -0.187730
    65  C    0.018324
    66  C    0.083113
    67  H   -0.008449
    68  H   -0.062640
    69  H   -0.016419
    70  H    0.024829
    71  H    0.005995
    72  H    0.003010
    73  H    0.025447
    74  H    0.033533
    75  H    0.005032
    76  H    0.011333
    77  H    0.035151
    78  H    0.019360
    79  H    0.007337
    80  H    0.036773
    81  H    0.015804
    82  H    0.048434
    83  H    0.043792
    84  H    0.022258
    85  H    0.006550
    86  H    0.006731
    87  H    0.011693
    88  H    0.017488
    89  H    0.023508
    90  H    0.025208
    91  H    0.010197
    92  H    0.013363
    93  H    0.009532
    94  H    0.024891
    95  H    0.043759
    96  H    0.017523
    97  H    0.033348
    98  H    0.036323
    99  H    0.035621
   100  H    0.047374
   101  H    0.037052
   102  H    0.020759
   103  H    0.028153
   104  H   -0.005819
   105  H    0.029073
   106  H    0.017164
   107  H    0.013804
   108  H   -0.011398
   109  H    0.005233
   110  H    0.017761
   111  H   -0.002347
   112  H   -0.005257
   113  H   -0.007204
   114  H    0.000627
   115  H    0.011939
   116  H   -0.007793
   117  H    0.005521
   118  H   -0.013711
   119  H   -0.025129
   120  H    0.000704
   121  H    0.009504
   122  H   -0.012987
   123  H   -0.015345
   124  H   -0.002872
   125  H    0.010401
   126  H   -0.002526
   127  H    0.002445
   128  H   -0.000359
   129  H   -0.009438
   130  H   -0.006800
   131  H    0.006837
   132  H   -0.023200
   133  H   -0.010188
   134  H    0.003551
   135  H    0.008343
   136  H    0.004430
   137  H    0.004568
   138  H   -0.007242
   139  H    0.005805
   140  H    0.027311
 Sum of Mulliken charges =  -0.00000

 Dipole moment (field-independent basis, Debye):
    X=              0.0928    Y=              2.2722    Z=              3.4937  Tot=              4.1686
 Quadrupole moment (field-independent basis, Debye-Ang):
   XX=           -370.9380   YY=           -438.4631   ZZ=           -404.5769
   XY=             26.5634   XZ=             10.7819   YZ=             12.7532

 Normal termination of Gaussian 16 at Fri Apr 29 19:19:22 2022.
