 Gaussian 16, Revision A.03,
 Gaussian 16:  ES64L-G16RevA.03 25-Dec-2016

 ---------------------------------
 #p PBE1PBE/Def2SVP td=(nstates=5)
 ---------------------------------

 -----------------------------------------------------
 step_451_chromophore_23 TDDFT with PBE1PBE functional
 -----------------------------------------------------
 Symbolic Z-matrix:
 Charge =  0 Multiplicity = 1

                         Standard orientation:
 ---------------------------------------------------------------------
 Center     Atomic      Atomic             Coordinates (Angstroms)
 Number     Number       Type             X           Y           Z
 ---------------------------------------------------------------------
      1         12           0        4.696137    0.941128   -0.424813
      2          6           0        3.408976   -2.281220   -0.693812
      3          6           0        1.817621    2.167638   -1.811032
      4          6           0        5.682643    4.042025    0.405388
      5          6           0        7.332637   -0.421402    1.537413
      6          7           0        2.860631    0.030749   -1.174002
      7          6           0        2.603839   -1.288501   -1.220485
      8          6           0        1.307092   -1.657589   -1.980366
      9          6           0        0.879167   -0.168185   -2.444095
     10          6           0        1.914756    0.714371   -1.728673
     11          6           0        0.835586    0.009663   -3.966358
     12          6           0        0.275454   -2.477497   -1.108703
     13          6           0       -0.168244   -3.833952   -1.536204
     14          6           0       -1.614965   -3.921021   -1.843192
     15          8           0       -2.103025   -4.065020   -2.924944
     16          8           0       -2.369978   -3.903728   -0.709856
     17          7           0        3.899579    2.941763   -0.654135
     18          6           0        2.697745    3.139635   -1.309492
     19          6           0        2.546443    4.569667   -1.384165
     20          6           0        3.734421    5.154471   -0.831994
     21          6           0        4.519517    4.069592   -0.341084
     22          6           0        1.499731    5.269156   -2.241895
     23          6           0        4.069881    6.680082   -0.791627
     24          8           0        3.436993    7.467214   -1.432224
     25          6           0        5.301756    7.167849    0.000207
     26          7           0        6.387558    1.726586    0.653383
     27          6           0        6.525407    3.007680    0.898231
     28          6           0        7.711926    3.328014    1.766947
     29          6           0        8.025441    1.892397    2.381135
     30          6           0        7.187597    1.004248    1.435990
     31          6           0        8.927243    4.028193    1.110003
     32          6           0        7.510555    1.685790    3.899279
     33          6           0        8.648115    1.504316    4.944224
     34          7           0        5.413311   -0.924552    0.074693
     35          6           0        6.492290   -1.354102    0.890115
     36          6           0        6.547691   -2.812736    0.907772
     37          6           0        5.280821   -3.186898    0.447187
     38          6           0        4.707514   -2.066946   -0.156933
     39          6           0        7.499103   -3.676931    1.649575
     40          6           0        4.467401   -4.309537    0.284438
     41          8           0        4.624602   -5.498000    0.644992
     42          6           0        3.262155   -3.802975   -0.533607
     43          6           0        3.365223   -4.611642   -1.858639
     44          8           0        3.953042   -4.192792   -2.871456
     45          8           0        2.712238   -5.798686   -1.653212
     46          6           0        2.698502   -6.536129   -2.898751
     47          6           0       -3.818680   -4.100047   -0.776761
     48          6           0       -4.530804   -3.843765    0.524549
     49          6           0       -4.322359   -2.742934    1.271928
     50          6           0       -3.592983   -1.504016    0.835854
     51          6           0       -4.897000   -2.729804    2.652915
     52          6           0       -6.208775   -1.956131    2.733229
     53          6           0       -7.349938   -2.938403    3.119987
     54          6           0       -8.545153   -2.909605    2.104124
     55          6           0       -9.386117   -4.246200    2.160960
     56          6           0       -9.418836   -1.665634    2.363525
     57          6           0       -9.450099   -0.684539    1.161911
     58          6           0       -8.768427    0.614701    1.586157
     59          6           0       -8.640575    1.607458    0.370461
     60          6           0       -7.321109    1.473914   -0.405009
     61          6           0       -8.904435    3.144880    0.824175
     62          6           0      -10.389350    3.468877    0.799150
     63          6           0      -10.809723    4.611973   -0.093703
     64          6           0      -11.991568    4.147636   -1.022744
     65          6           0      -11.750755    4.678205   -2.523648
     66          6           0      -13.318895    4.595172   -0.358415
     67          1           0        0.868099    2.490911   -2.243045
     68          1           0        6.044045    5.014510    0.744521
     69          1           0        8.182534   -0.788357    2.117183
     70          1           0        1.547165   -2.196577   -2.898031
     71          1           0       -0.152334   -0.027447   -2.121860
     72          1           0        0.882775    1.098940   -3.985701
     73          1           0       -0.152056   -0.309682   -4.299491
     74          1           0        1.634267   -0.525163   -4.479548
     75          1           0       -0.634166   -1.883731   -1.016103
     76          1           0        0.592801   -2.548223   -0.068078
     77          1           0        0.104782   -4.470024   -0.693794
     78          1           0        0.510505   -4.071510   -2.355056
     79          1           0        1.164356    4.672007   -3.090165
     80          1           0        1.741987    6.202085   -2.750890
     81          1           0        0.588449    5.513355   -1.696169
     82          1           0        6.182212    6.682646   -0.421073
     83          1           0        5.221667    7.021421    1.077538
     84          1           0        5.295831    8.252259   -0.112304
     85          1           0        7.519562    3.976793    2.621796
     86          1           0        9.104965    1.795595    2.265522
     87          1           0        8.675694    4.096451    0.051391
     88          1           0        9.755611    3.341919    1.285606
     89          1           0        9.050090    5.067374    1.414777
     90          1           0        6.862879    0.814595    4.002736
     91          1           0        7.018108    2.598530    4.235342
     92          1           0        8.352882    1.810987    5.947664
     93          1           0        9.415622    2.229128    4.673024
     94          1           0        8.956208    0.459481    4.979982
     95          1           0        7.408646   -3.587667    2.731816
     96          1           0        8.445894   -3.340749    1.226736
     97          1           0        7.393235   -4.719536    1.349897
     98          1           0        2.390338   -4.104714    0.046971
     99          1           0        3.653787   -7.061150   -2.887550
    100          1           0        2.642691   -5.996217   -3.844653
    101          1           0        1.870212   -7.243046   -2.846466
    102          1           0       -4.007510   -5.099034   -1.170032
    103          1           0       -4.287208   -3.345935   -1.407904
    104          1           0       -5.070875   -4.689732    0.948685
    105          1           0       -2.651311   -1.449394    1.382893
    106          1           0       -4.166970   -0.605205    1.060233
    107          1           0       -3.412736   -1.568593   -0.237374
    108          1           0       -4.179420   -2.236079    3.308351
    109          1           0       -5.015359   -3.746395    3.028844
    110          1           0       -6.458177   -1.397649    1.831601
    111          1           0       -6.069615   -1.178926    3.484989
    112          1           0       -7.668031   -2.664405    4.126231
    113          1           0       -7.031050   -3.979999    3.162377
    114          1           0       -7.978798   -2.774357    1.183016
    115          1           0      -10.461650   -4.160883    2.311874
    116          1           0       -9.051027   -4.861187    2.995792
    117          1           0       -9.199577   -4.947329    1.347639
    118          1           0       -9.207978   -1.159786    3.305712
    119          1           0      -10.396419   -2.051726    2.654885
    120          1           0      -10.526041   -0.584403    1.015690
    121          1           0       -9.046422   -1.007855    0.203144
    122          1           0       -7.802723    0.551124    2.087717
    123          1           0       -9.294229    1.084008    2.417282
    124          1           0       -9.447138    1.352307   -0.316810
    125          1           0       -6.604070    0.742057   -0.031968
    126          1           0       -6.778914    2.409434   -0.542948
    127          1           0       -7.630104    1.269071   -1.430204
    128          1           0       -8.300189    3.865791    0.273119
    129          1           0       -8.701199    3.178836    1.894622
    130          1           0      -10.712531    3.834283    1.774464
    131          1           0      -10.951492    2.592470    0.477174
    132          1           0       -9.957157    4.967727   -0.672943
    133          1           0      -11.100494    5.537281    0.403585
    134          1           0      -11.918244    3.074208   -1.195688
    135          1           0      -12.700458    4.613075   -3.053538
    136          1           0      -11.015398    4.131535   -3.114805
    137          1           0      -11.316033    5.677141   -2.539939
    138          1           0      -13.793495    5.238197   -1.099883
    139          1           0      -13.161565    5.340067    0.421769
    140          1           0      -13.892640    3.702258   -0.111067
 ---------------------------------------------------------------------

 SCF Done:  E(RPBE1PBE) =  -3005.33470258     A.U. after   15 cycles

 Excitation energies and oscillator strengths:

 Excited State   1:      Singlet-A      1.8898 eV  656.06 nm  f=0.3517  <S**2>=0.000
     245 -> 248        0.18884
     246 -> 247        0.68805
     246 <- 247       -0.10131
 This state for optimization and/or second-order correction.
 Total Energy, E(TD-HF/TD-DFT) =  -3005.26525265
 Copying the excited state density for this state as the 1-particle RhoCI density.

 Excited State   2:      Singlet-A      2.2585 eV  548.96 nm  f=0.0747  <S**2>=0.000
     245 -> 247        0.63335
     246 -> 248       -0.30215

 Excited State   3:      Singlet-A      2.9733 eV  416.99 nm  f=0.0023  <S**2>=0.000
     240 -> 247        0.23931
     240 -> 249       -0.10468
     242 -> 247        0.56682
     242 -> 249       -0.17415
     243 -> 247        0.24440

 Excited State   4:      Singlet-A      2.9936 eV  414.16 nm  f=0.0007  <S**2>=0.000
     242 -> 247       -0.21927
     243 -> 247        0.63993
     246 -> 248        0.12828

 Excited State   5:      Singlet-A      3.1355 eV  395.42 nm  f=0.0007  <S**2>=0.000
     241 -> 247        0.67304
     241 -> 249        0.12633
     241 -> 250       -0.11710

 The electronic state is 1-A.
 Alpha  occ. eigenvalues --  -46.92972 -19.27014 -19.24826 -19.21070 -19.19530
 Alpha  occ. eigenvalues --  -19.19415 -19.18929 -14.42486 -14.41996 -14.39403
 Alpha  occ. eigenvalues --  -14.38772 -10.37409 -10.35688 -10.32622 -10.31563
 Alpha  occ. eigenvalues --  -10.29404 -10.29099 -10.29022 -10.28895 -10.28891
 Alpha  occ. eigenvalues --  -10.28509 -10.27960 -10.27796 -10.27360 -10.26559
 Alpha  occ. eigenvalues --  -10.26338 -10.26233 -10.26159 -10.25993 -10.25878
 Alpha  occ. eigenvalues --  -10.25680 -10.25588 -10.25563 -10.25501 -10.25168
 Alpha  occ. eigenvalues --  -10.24770 -10.24767 -10.24636 -10.24508 -10.24315
 Alpha  occ. eigenvalues --  -10.24229 -10.24134 -10.23661 -10.23661 -10.23584
 Alpha  occ. eigenvalues --  -10.23567 -10.23532 -10.23517 -10.23339 -10.23335
 Alpha  occ. eigenvalues --  -10.22965 -10.22845 -10.22784 -10.22754 -10.22640
 Alpha  occ. eigenvalues --  -10.22436 -10.22415 -10.22307 -10.22155 -10.22087
 Alpha  occ. eigenvalues --  -10.22070 -10.21878 -10.21809 -10.21776 -10.21480
 Alpha  occ. eigenvalues --  -10.21347  -3.14983  -1.87846  -1.87350  -1.87203
 Alpha  occ. eigenvalues --   -1.11822  -1.11500  -1.06471  -1.03098  -1.02850
 Alpha  occ. eigenvalues --   -1.02835  -1.01071  -1.00766  -0.98466  -0.97595
 Alpha  occ. eigenvalues --   -0.87309  -0.85369  -0.84409  -0.83571  -0.83341
 Alpha  occ. eigenvalues --   -0.83038  -0.82577  -0.82170  -0.81390  -0.81011
 Alpha  occ. eigenvalues --   -0.80638  -0.79619  -0.78729  -0.78220  -0.78051
 Alpha  occ. eigenvalues --   -0.76785  -0.76294  -0.75551  -0.75222  -0.75077
 Alpha  occ. eigenvalues --   -0.74151  -0.72714  -0.72015  -0.71481  -0.70447
 Alpha  occ. eigenvalues --   -0.70046  -0.69820  -0.69343  -0.68975  -0.68074
 Alpha  occ. eigenvalues --   -0.67534  -0.67109  -0.66491  -0.64884  -0.63334
 Alpha  occ. eigenvalues --   -0.63143  -0.62261  -0.61336  -0.60947  -0.60768
 Alpha  occ. eigenvalues --   -0.60507  -0.59573  -0.59544  -0.59200  -0.58567
 Alpha  occ. eigenvalues --   -0.58316  -0.57930  -0.57466  -0.57070  -0.55252
 Alpha  occ. eigenvalues --   -0.54741  -0.54406  -0.53812  -0.53241  -0.53136
 Alpha  occ. eigenvalues --   -0.52907  -0.52610  -0.51296  -0.51104  -0.50457
 Alpha  occ. eigenvalues --   -0.50362  -0.49486  -0.49321  -0.49051  -0.48861
 Alpha  occ. eigenvalues --   -0.48284  -0.48077  -0.47950  -0.47667  -0.47394
 Alpha  occ. eigenvalues --   -0.47153  -0.47054  -0.46880  -0.46434  -0.46196
 Alpha  occ. eigenvalues --   -0.46079  -0.45627  -0.45600  -0.45435  -0.45371
 Alpha  occ. eigenvalues --   -0.45197  -0.44948  -0.44578  -0.44489  -0.44333
 Alpha  occ. eigenvalues --   -0.44090  -0.43850  -0.43776  -0.43529  -0.43279
 Alpha  occ. eigenvalues --   -0.43171  -0.43084  -0.42990  -0.42920  -0.42172
 Alpha  occ. eigenvalues --   -0.42084  -0.41945  -0.41687  -0.41550  -0.41315
 Alpha  occ. eigenvalues --   -0.41245  -0.40938  -0.40923  -0.40752  -0.40644
 Alpha  occ. eigenvalues --   -0.40417  -0.40251  -0.40020  -0.39862  -0.39621
 Alpha  occ. eigenvalues --   -0.39379  -0.39194  -0.39084  -0.38974  -0.38825
 Alpha  occ. eigenvalues --   -0.38554  -0.38329  -0.38279  -0.38179  -0.37960
 Alpha  occ. eigenvalues --   -0.37649  -0.37432  -0.37333  -0.37285  -0.37110
 Alpha  occ. eigenvalues --   -0.37044  -0.36774  -0.36740  -0.36299  -0.35976
 Alpha  occ. eigenvalues --   -0.35970  -0.35750  -0.35642  -0.35260  -0.35107
 Alpha  occ. eigenvalues --   -0.34867  -0.34830  -0.34603  -0.33835  -0.33665
 Alpha  occ. eigenvalues --   -0.33321  -0.33008  -0.32772  -0.32741  -0.32209
 Alpha  occ. eigenvalues --   -0.32163  -0.32004  -0.31953  -0.31687  -0.31453
 Alpha  occ. eigenvalues --   -0.31025  -0.30160  -0.29733  -0.29605  -0.29244
 Alpha  occ. eigenvalues --   -0.28635  -0.28524  -0.28398  -0.27094  -0.26010
 Alpha  occ. eigenvalues --   -0.25841  -0.25589  -0.25171  -0.24988  -0.21400
 Alpha  occ. eigenvalues --   -0.18981
 Alpha virt. eigenvalues --   -0.11229  -0.05897  -0.04502  -0.01994  -0.00133
 Alpha virt. eigenvalues --    0.00115   0.00287   0.01101   0.01548   0.02278
 Alpha virt. eigenvalues --    0.03792   0.04307   0.04775   0.05267   0.05715

 Mulliken charges:
               1
     1  Mg   0.968421
     2  C    0.015741
     3  C   -0.074664
     4  C   -0.066990
     5  C   -0.067422
     6  N   -0.339855
     7  C    0.005208
     8  C   -0.097091
     9  C   -0.158176
    10  C    0.067578
    11  C    0.024748
    12  C   -0.024842
    13  C    0.027973
    14  C    0.192870
    15  O   -0.240079
    16  O   -0.375671
    17  N   -0.473859
    18  C    0.180024
    19  C   -0.132183
    20  C   -0.091344
    21  C    0.184955
    22  C    0.025358
    23  C    0.056031
    24  O   -0.198556
    25  C   -0.042003
    26  N   -0.333426
    27  C    0.048035
    28  C   -0.153506
    29  C   -0.125322
    30  C    0.065347
    31  C    0.031554
    32  C   -0.025971
    33  C   -0.086413
    34  N   -0.500998
    35  C    0.139067
    36  C   -0.169321
    37  C   -0.013780
    38  C    0.179466
    39  C    0.056886
    40  C    0.088163
    41  O   -0.246123
    42  C   -0.126996
    43  C    0.293939
    44  O   -0.266384
    45  O   -0.331893
    46  C    0.117044
    47  C    0.229948
    48  C   -0.140998
    49  C   -0.220446
    50  C    0.044165
    51  C    0.029153
    52  C   -0.053132
    53  C   -0.022326
    54  C   -0.224710
    55  C   -0.003874
    56  C    0.035125
    57  C   -0.031906
    58  C   -0.027566
    59  C   -0.225516
    60  C   -0.003070
    61  C    0.007393
    62  C   -0.035448
    63  C   -0.018813
    64  C   -0.280239
    65  C   -0.043712
    66  C    0.022504
    67  H    0.021764
    68  H   -0.026007
    69  H    0.014449
    70  H    0.061769
    71  H    0.042118
    72  H    0.033218
    73  H    0.053410
    74  H    0.059639
    75  H    0.041210
    76  H    0.043424
    77  H    0.068078
    78  H    0.055901
    79  H    0.032935
    80  H    0.062907
    81  H    0.043841
    82  H    0.074407
    83  H    0.069761
    84  H    0.050613
    85  H    0.043408
    86  H    0.042019
    87  H    0.040787
    88  H    0.044155
    89  H    0.049911
    90  H    0.057953
    91  H    0.043050
    92  H    0.042071
    93  H    0.038119
    94  H    0.052298
    95  H    0.070938
    96  H    0.046560
    97  H    0.061741
    98  H    0.073718
    99  H    0.059202
   100  H    0.068554
   101  H    0.059281
   102  H    0.047459
   103  H    0.054963
   104  H    0.023518
   105  H    0.057124
   106  H    0.045813
   107  H    0.041496
   108  H    0.022965
   109  H    0.036290
   110  H    0.053926
   111  H    0.030089
   112  H    0.027777
   113  H    0.024463
   114  H    0.039562
   115  H    0.037974
   116  H    0.019200
   117  H    0.033324
   118  H    0.016960
   119  H    0.007332
   120  H    0.034078
   121  H    0.040942
   122  H    0.019936
   123  H    0.017361
   124  H    0.035749
   125  H    0.039583
   126  H    0.024713
   127  H    0.029923
   128  H    0.029517
   129  H    0.024568
   130  H    0.026439
   131  H    0.038123
   132  H    0.009434
   133  H    0.021784
   134  H    0.040988
   135  H    0.036000
   136  H    0.032359
   137  H    0.032138
   138  H    0.020802
   139  H    0.032155
   140  H    0.053898
 Sum of Mulliken charges =  -0.00000

 Dipole moment (field-independent basis, Debye):
    X=              0.2622    Y=              1.9861    Z=              3.6590  Tot=              4.1715
 Quadrupole moment (field-independent basis, Debye-Ang):
   XX=           -364.8940   YY=           -436.1440   ZZ=           -401.1210
   XY=             25.4706   XZ=             12.3177   YZ=             12.8524

 Normal termination of Gaussian 16 at Fri Apr 29 19:37:32 2022.
