 Gaussian 16, Revision A.03,
 Gaussian 16:  ES64L-G16RevA.03 25-Dec-2016

 --------------------------------
 #p wB97XD/Def2SVP td=(nstates=5)
 --------------------------------

 ----------------------------------------------------
 step_451_chromophore_23 TDDFT with wB97XD functional
 ----------------------------------------------------
 Symbolic Z-matrix:
 Charge =  0 Multiplicity = 1

                         Standard orientation:
 ---------------------------------------------------------------------
 Center     Atomic      Atomic             Coordinates (Angstroms)
 Number     Number       Type             X           Y           Z
 ---------------------------------------------------------------------
      1         12           0        4.696137    0.941128   -0.424813
      2          6           0        3.408976   -2.281220   -0.693812
      3          6           0        1.817621    2.167638   -1.811032
      4          6           0        5.682643    4.042025    0.405388
      5          6           0        7.332637   -0.421402    1.537413
      6          7           0        2.860631    0.030749   -1.174002
      7          6           0        2.603839   -1.288501   -1.220485
      8          6           0        1.307092   -1.657589   -1.980366
      9          6           0        0.879167   -0.168185   -2.444095
     10          6           0        1.914756    0.714371   -1.728673
     11          6           0        0.835586    0.009663   -3.966358
     12          6           0        0.275454   -2.477497   -1.108703
     13          6           0       -0.168244   -3.833952   -1.536204
     14          6           0       -1.614965   -3.921021   -1.843192
     15          8           0       -2.103025   -4.065020   -2.924944
     16          8           0       -2.369978   -3.903728   -0.709856
     17          7           0        3.899579    2.941763   -0.654135
     18          6           0        2.697745    3.139635   -1.309492
     19          6           0        2.546443    4.569667   -1.384165
     20          6           0        3.734421    5.154471   -0.831994
     21          6           0        4.519517    4.069592   -0.341084
     22          6           0        1.499731    5.269156   -2.241895
     23          6           0        4.069881    6.680082   -0.791627
     24          8           0        3.436993    7.467214   -1.432224
     25          6           0        5.301756    7.167849    0.000207
     26          7           0        6.387558    1.726586    0.653383
     27          6           0        6.525407    3.007680    0.898231
     28          6           0        7.711926    3.328014    1.766947
     29          6           0        8.025441    1.892397    2.381135
     30          6           0        7.187597    1.004248    1.435990
     31          6           0        8.927243    4.028193    1.110003
     32          6           0        7.510555    1.685790    3.899279
     33          6           0        8.648115    1.504316    4.944224
     34          7           0        5.413311   -0.924552    0.074693
     35          6           0        6.492290   -1.354102    0.890115
     36          6           0        6.547691   -2.812736    0.907772
     37          6           0        5.280821   -3.186898    0.447187
     38          6           0        4.707514   -2.066946   -0.156933
     39          6           0        7.499103   -3.676931    1.649575
     40          6           0        4.467401   -4.309537    0.284438
     41          8           0        4.624602   -5.498000    0.644992
     42          6           0        3.262155   -3.802975   -0.533607
     43          6           0        3.365223   -4.611642   -1.858639
     44          8           0        3.953042   -4.192792   -2.871456
     45          8           0        2.712238   -5.798686   -1.653212
     46          6           0        2.698502   -6.536129   -2.898751
     47          6           0       -3.818680   -4.100047   -0.776761
     48          6           0       -4.530804   -3.843765    0.524549
     49          6           0       -4.322359   -2.742934    1.271928
     50          6           0       -3.592983   -1.504016    0.835854
     51          6           0       -4.897000   -2.729804    2.652915
     52          6           0       -6.208775   -1.956131    2.733229
     53          6           0       -7.349938   -2.938403    3.119987
     54          6           0       -8.545153   -2.909605    2.104124
     55          6           0       -9.386117   -4.246200    2.160960
     56          6           0       -9.418836   -1.665634    2.363525
     57          6           0       -9.450099   -0.684539    1.161911
     58          6           0       -8.768427    0.614701    1.586157
     59          6           0       -8.640575    1.607458    0.370461
     60          6           0       -7.321109    1.473914   -0.405009
     61          6           0       -8.904435    3.144880    0.824175
     62          6           0      -10.389350    3.468877    0.799150
     63          6           0      -10.809723    4.611973   -0.093703
     64          6           0      -11.991568    4.147636   -1.022744
     65          6           0      -11.750755    4.678205   -2.523648
     66          6           0      -13.318895    4.595172   -0.358415
     67          1           0        0.868099    2.490911   -2.243045
     68          1           0        6.044045    5.014510    0.744521
     69          1           0        8.182534   -0.788357    2.117183
     70          1           0        1.547165   -2.196577   -2.898031
     71          1           0       -0.152334   -0.027447   -2.121860
     72          1           0        0.882775    1.098940   -3.985701
     73          1           0       -0.152056   -0.309682   -4.299491
     74          1           0        1.634267   -0.525163   -4.479548
     75          1           0       -0.634166   -1.883731   -1.016103
     76          1           0        0.592801   -2.548223   -0.068078
     77          1           0        0.104782   -4.470024   -0.693794
     78          1           0        0.510505   -4.071510   -2.355056
     79          1           0        1.164356    4.672007   -3.090165
     80          1           0        1.741987    6.202085   -2.750890
     81          1           0        0.588449    5.513355   -1.696169
     82          1           0        6.182212    6.682646   -0.421073
     83          1           0        5.221667    7.021421    1.077538
     84          1           0        5.295831    8.252259   -0.112304
     85          1           0        7.519562    3.976793    2.621796
     86          1           0        9.104965    1.795595    2.265522
     87          1           0        8.675694    4.096451    0.051391
     88          1           0        9.755611    3.341919    1.285606
     89          1           0        9.050090    5.067374    1.414777
     90          1           0        6.862879    0.814595    4.002736
     91          1           0        7.018108    2.598530    4.235342
     92          1           0        8.352882    1.810987    5.947664
     93          1           0        9.415622    2.229128    4.673024
     94          1           0        8.956208    0.459481    4.979982
     95          1           0        7.408646   -3.587667    2.731816
     96          1           0        8.445894   -3.340749    1.226736
     97          1           0        7.393235   -4.719536    1.349897
     98          1           0        2.390338   -4.104714    0.046971
     99          1           0        3.653787   -7.061150   -2.887550
    100          1           0        2.642691   -5.996217   -3.844653
    101          1           0        1.870212   -7.243046   -2.846466
    102          1           0       -4.007510   -5.099034   -1.170032
    103          1           0       -4.287208   -3.345935   -1.407904
    104          1           0       -5.070875   -4.689732    0.948685
    105          1           0       -2.651311   -1.449394    1.382893
    106          1           0       -4.166970   -0.605205    1.060233
    107          1           0       -3.412736   -1.568593   -0.237374
    108          1           0       -4.179420   -2.236079    3.308351
    109          1           0       -5.015359   -3.746395    3.028844
    110          1           0       -6.458177   -1.397649    1.831601
    111          1           0       -6.069615   -1.178926    3.484989
    112          1           0       -7.668031   -2.664405    4.126231
    113          1           0       -7.031050   -3.979999    3.162377
    114          1           0       -7.978798   -2.774357    1.183016
    115          1           0      -10.461650   -4.160883    2.311874
    116          1           0       -9.051027   -4.861187    2.995792
    117          1           0       -9.199577   -4.947329    1.347639
    118          1           0       -9.207978   -1.159786    3.305712
    119          1           0      -10.396419   -2.051726    2.654885
    120          1           0      -10.526041   -0.584403    1.015690
    121          1           0       -9.046422   -1.007855    0.203144
    122          1           0       -7.802723    0.551124    2.087717
    123          1           0       -9.294229    1.084008    2.417282
    124          1           0       -9.447138    1.352307   -0.316810
    125          1           0       -6.604070    0.742057   -0.031968
    126          1           0       -6.778914    2.409434   -0.542948
    127          1           0       -7.630104    1.269071   -1.430204
    128          1           0       -8.300189    3.865791    0.273119
    129          1           0       -8.701199    3.178836    1.894622
    130          1           0      -10.712531    3.834283    1.774464
    131          1           0      -10.951492    2.592470    0.477174
    132          1           0       -9.957157    4.967727   -0.672943
    133          1           0      -11.100494    5.537281    0.403585
    134          1           0      -11.918244    3.074208   -1.195688
    135          1           0      -12.700458    4.613075   -3.053538
    136          1           0      -11.015398    4.131535   -3.114805
    137          1           0      -11.316033    5.677141   -2.539939
    138          1           0      -13.793495    5.238197   -1.099883
    139          1           0      -13.161565    5.340067    0.421769
    140          1           0      -13.892640    3.702258   -0.111067
 ---------------------------------------------------------------------

 SCF Done:  E(RwB97XD) =  -3007.84515791     A.U. after   20 cycles

 Excitation energies and oscillator strengths:

 Excited State   1:      Singlet-A      1.6972 eV  730.53 nm  f=0.3645  <S**2>=0.000
     245 -> 248        0.19919
     246 -> 247        0.67938
     245 <- 248        0.11817
 This state for optimization and/or second-order correction.
 Total Energy, E(TD-HF/TD-DFT) =  -3007.78278758
 Copying the excited state density for this state as the 1-particle RhoCI density.

 Excited State   2:      Singlet-A      2.2081 eV  561.50 nm  f=0.0648  <S**2>=0.000
     245 -> 247        0.61107
     246 -> 248       -0.34214

 Excited State   3:      Singlet-A      3.3143 eV  374.08 nm  f=0.1025  <S**2>=0.000
     242 -> 247        0.18724
     243 -> 247        0.56976
     245 -> 247        0.11784
     246 -> 248        0.31225

 Excited State   4:      Singlet-A      3.4651 eV  357.81 nm  f=0.2735  <S**2>=0.000
     241 -> 247        0.38001
     241 -> 249        0.28878
     241 -> 250       -0.10630
     242 -> 247        0.13133
     243 -> 247        0.21005
     245 -> 247       -0.20130
     246 -> 248       -0.34034

 Excited State   5:      Singlet-A      3.4938 eV  354.87 nm  f=0.2816  <S**2>=0.000
     241 -> 247        0.20053
     241 -> 249        0.19703
     242 -> 247        0.32499
     242 -> 249        0.15644
     243 -> 247       -0.29629
     245 -> 247        0.19326
     246 -> 248        0.35295

 The electronic state is 1-A.
 Alpha  occ. eigenvalues --  -46.95927 -19.31549 -19.29411 -19.25726 -19.24506
 Alpha  occ. eigenvalues --  -19.24126 -19.23572 -14.47639 -14.47075 -14.44239
 Alpha  occ. eigenvalues --  -14.43796 -10.44205 -10.42501 -10.39582 -10.38321
 Alpha  occ. eigenvalues --  -10.35909 -10.35610 -10.35348 -10.35088 -10.35076
 Alpha  occ. eigenvalues --  -10.34989 -10.34441 -10.33996 -10.33991 -10.32726
 Alpha  occ. eigenvalues --  -10.32705 -10.32691 -10.32467 -10.32283 -10.32172
 Alpha  occ. eigenvalues --  -10.32004 -10.31890 -10.31878 -10.31783 -10.31490
 Alpha  occ. eigenvalues --  -10.31133 -10.31113 -10.30988 -10.30987 -10.30750
 Alpha  occ. eigenvalues --  -10.30671 -10.30520 -10.30322 -10.30103 -10.29994
 Alpha  occ. eigenvalues --  -10.29842 -10.29840 -10.29785 -10.29675 -10.29641
 Alpha  occ. eigenvalues --  -10.29430 -10.29338 -10.29222 -10.29133 -10.29025
 Alpha  occ. eigenvalues --  -10.28826 -10.28764 -10.28513 -10.28502 -10.28421
 Alpha  occ. eigenvalues --  -10.28419 -10.28305 -10.28233 -10.28206 -10.27830
 Alpha  occ. eigenvalues --  -10.27726  -3.21801  -1.95413  -1.94915  -1.94767
 Alpha  occ. eigenvalues --   -1.19190  -1.18886  -1.14084  -1.10454  -1.10203
 Alpha  occ. eigenvalues --   -1.10194  -1.08475  -1.08112  -1.05995  -1.04804
 Alpha  occ. eigenvalues --   -0.94842  -0.93039  -0.92054  -0.91247  -0.91025
 Alpha  occ. eigenvalues --   -0.90588  -0.90243  -0.89745  -0.88902  -0.88666
 Alpha  occ. eigenvalues --   -0.88288  -0.87440  -0.86399  -0.85872  -0.85614
 Alpha  occ. eigenvalues --   -0.84450  -0.83931  -0.83312  -0.82880  -0.82755
 Alpha  occ. eigenvalues --   -0.81825  -0.80304  -0.79617  -0.79182  -0.78063
 Alpha  occ. eigenvalues --   -0.77704  -0.77449  -0.77051  -0.76653  -0.75732
 Alpha  occ. eigenvalues --   -0.75100  -0.74649  -0.74014  -0.72511  -0.70856
 Alpha  occ. eigenvalues --   -0.70626  -0.69883  -0.68986  -0.68588  -0.68216
 Alpha  occ. eigenvalues --   -0.68022  -0.67202  -0.67097  -0.66650  -0.66074
 Alpha  occ. eigenvalues --   -0.65983  -0.65605  -0.64853  -0.64703  -0.62782
 Alpha  occ. eigenvalues --   -0.62152  -0.61834  -0.61201  -0.60712  -0.60621
 Alpha  occ. eigenvalues --   -0.60327  -0.60096  -0.58783  -0.58605  -0.57856
 Alpha  occ. eigenvalues --   -0.57790  -0.56839  -0.56655  -0.56399  -0.56241
 Alpha  occ. eigenvalues --   -0.55692  -0.55463  -0.55357  -0.54977  -0.54836
 Alpha  occ. eigenvalues --   -0.54588  -0.54481  -0.54271  -0.53842  -0.53611
 Alpha  occ. eigenvalues --   -0.53517  -0.52949  -0.52905  -0.52817  -0.52645
 Alpha  occ. eigenvalues --   -0.52511  -0.52294  -0.52005  -0.51821  -0.51665
 Alpha  occ. eigenvalues --   -0.51441  -0.51259  -0.51162  -0.50803  -0.50537
 Alpha  occ. eigenvalues --   -0.50410  -0.50356  -0.50221  -0.50198  -0.49491
 Alpha  occ. eigenvalues --   -0.49341  -0.49199  -0.48876  -0.48747  -0.48579
 Alpha  occ. eigenvalues --   -0.48497  -0.48243  -0.48165  -0.48054  -0.47909
 Alpha  occ. eigenvalues --   -0.47547  -0.47414  -0.47267  -0.47058  -0.46792
 Alpha  occ. eigenvalues --   -0.46484  -0.46373  -0.46252  -0.46091  -0.46002
 Alpha  occ. eigenvalues --   -0.45698  -0.45589  -0.45488  -0.45320  -0.45041
 Alpha  occ. eigenvalues --   -0.44903  -0.44593  -0.44474  -0.44430  -0.44230
 Alpha  occ. eigenvalues --   -0.44137  -0.43833  -0.43751  -0.43395  -0.43135
 Alpha  occ. eigenvalues --   -0.42984  -0.42852  -0.42644  -0.42344  -0.42100
 Alpha  occ. eigenvalues --   -0.41946  -0.41853  -0.41528  -0.40750  -0.40649
 Alpha  occ. eigenvalues --   -0.40384  -0.40065  -0.39819  -0.39750  -0.39261
 Alpha  occ. eigenvalues --   -0.39198  -0.39044  -0.39012  -0.38624  -0.38458
 Alpha  occ. eigenvalues --   -0.37995  -0.37002  -0.36685  -0.36607  -0.35960
 Alpha  occ. eigenvalues --   -0.35597  -0.35536  -0.35389  -0.33667  -0.33125
 Alpha  occ. eigenvalues --   -0.32749  -0.32229  -0.31904  -0.31719  -0.26426
 Alpha  occ. eigenvalues --   -0.23108
 Alpha virt. eigenvalues --   -0.07038  -0.00594   0.01800   0.04503   0.05895
 Alpha virt. eigenvalues --    0.06846   0.06992   0.07635   0.08336   0.08563
 Alpha virt. eigenvalues --    0.10487   0.11104   0.11519   0.11967   0.12430

 Mulliken charges:
               1
     1  Mg   0.961235
     2  C    0.014697
     3  C   -0.098066
     4  C   -0.079510
     5  C   -0.085905
     6  N   -0.299410
     7  C   -0.021019
     8  C   -0.078228
     9  C   -0.133480
    10  C    0.052400
    11  C    0.037378
    12  C   -0.009948
    13  C    0.047013
    14  C    0.184038
    15  O   -0.236411
    16  O   -0.374032
    17  N   -0.440159
    18  C    0.177640
    19  C   -0.123350
    20  C   -0.085388
    21  C    0.181374
    22  C    0.035884
    23  C    0.049495
    24  O   -0.193618
    25  C   -0.025675
    26  N   -0.297024
    27  C    0.036711
    28  C   -0.133312
    29  C   -0.096903
    30  C    0.050832
    31  C    0.042805
    32  C   -0.013327
    33  C   -0.068252
    34  N   -0.467005
    35  C    0.129572
    36  C   -0.170593
    37  C   -0.013293
    38  C    0.155190
    39  C    0.069125
    40  C    0.074296
    41  O   -0.236496
    42  C   -0.085359
    43  C    0.272008
    44  O   -0.261595
    45  O   -0.331634
    46  C    0.131345
    47  C    0.243909
    48  C   -0.152557
    49  C   -0.204220
    50  C    0.059240
    51  C    0.048728
    52  C   -0.030757
    53  C   -0.005441
    54  C   -0.190290
    55  C    0.008386
    56  C    0.045701
    57  C   -0.012700
    58  C   -0.013765
    59  C   -0.190899
    60  C    0.008439
    61  C    0.023532
    62  C   -0.016086
    63  C   -0.006055
    64  C   -0.249740
    65  C   -0.029950
    66  C    0.033122
    67  H    0.016467
    68  H   -0.039494
    69  H    0.010936
    70  H    0.049341
    71  H    0.033035
    72  H    0.023591
    73  H    0.049077
    74  H    0.055419
    75  H    0.027520
    76  H    0.035410
    77  H    0.062485
    78  H    0.044341
    79  H    0.027975
    80  H    0.060523
    81  H    0.040170
    82  H    0.067877
    83  H    0.065470
    84  H    0.049419
    85  H    0.032709
    86  H    0.029595
    87  H    0.033243
    88  H    0.038749
    89  H    0.045223
    90  H    0.049455
    91  H    0.033836
    92  H    0.036370
    93  H    0.029785
    94  H    0.046180
    95  H    0.066066
    96  H    0.039424
    97  H    0.057616
    98  H    0.064002
    99  H    0.055162
   100  H    0.064185
   101  H    0.056244
   102  H    0.044870
   103  H    0.048884
   104  H    0.020344
   105  H    0.052014
   106  H    0.040019
   107  H    0.032781
   108  H    0.015873
   109  H    0.027734
   110  H    0.029130
   111  H    0.023554
   112  H    0.019320
   113  H    0.012598
   114  H    0.023156
   115  H    0.032481
   116  H    0.012340
   117  H    0.028080
   118  H    0.007210
   119  H   -0.000952
   120  H    0.026659
   121  H    0.032019
   122  H    0.007611
   123  H    0.007500
   124  H    0.019574
   125  H    0.033084
   126  H    0.018786
   127  H    0.024239
   128  H    0.021131
   129  H    0.015038
   130  H    0.019406
   131  H    0.023387
   132  H   -0.001227
   133  H    0.013085
   134  H    0.028928
   135  H    0.029746
   136  H    0.026613
   137  H    0.025213
   138  H    0.014071
   139  H    0.025916
   140  H    0.049743
 Sum of Mulliken charges =  -0.00000

 Dipole moment (field-independent basis, Debye):
    X=              0.0799    Y=              2.4065    Z=              3.5073  Tot=              4.2542
 Quadrupole moment (field-independent basis, Debye-Ang):
   XX=           -366.7073   YY=           -433.9381   ZZ=           -401.0660
   XY=             27.1919   XZ=             11.4447   YZ=             12.5289

 Normal termination of Gaussian 16 at Fri Apr 29 20:06:05 2022.
