 Gaussian 16, Revision A.03,
 Gaussian 16:  ES64L-G16RevA.03 25-Dec-2016

 --------------------
 #p ZINDO=(nstates=5)
 --------------------

 -----------------------------
 step_451_chromophore_23 ZINDO
 -----------------------------
 Symbolic Z-matrix:
 Charge =  0 Multiplicity = 1

                         Standard orientation:
 ---------------------------------------------------------------------
 Center     Atomic      Atomic             Coordinates (Angstroms)
 Number     Number       Type             X           Y           Z
 ---------------------------------------------------------------------
      1         12           0        4.696137    0.941128   -0.424813
      2          6           0        3.408976   -2.281220   -0.693812
      3          6           0        1.817621    2.167638   -1.811032
      4          6           0        5.682643    4.042025    0.405388
      5          6           0        7.332637   -0.421402    1.537413
      6          7           0        2.860631    0.030749   -1.174002
      7          6           0        2.603839   -1.288501   -1.220485
      8          6           0        1.307092   -1.657589   -1.980366
      9          6           0        0.879167   -0.168185   -2.444095
     10          6           0        1.914756    0.714371   -1.728673
     11          6           0        0.835586    0.009663   -3.966358
     12          6           0        0.275454   -2.477497   -1.108703
     13          6           0       -0.168244   -3.833952   -1.536204
     14          6           0       -1.614965   -3.921021   -1.843192
     15          8           0       -2.103025   -4.065020   -2.924944
     16          8           0       -2.369978   -3.903728   -0.709856
     17          7           0        3.899579    2.941763   -0.654135
     18          6           0        2.697745    3.139635   -1.309492
     19          6           0        2.546443    4.569667   -1.384165
     20          6           0        3.734421    5.154471   -0.831994
     21          6           0        4.519517    4.069592   -0.341084
     22          6           0        1.499731    5.269156   -2.241895
     23          6           0        4.069881    6.680082   -0.791627
     24          8           0        3.436993    7.467214   -1.432224
     25          6           0        5.301756    7.167849    0.000207
     26          7           0        6.387558    1.726586    0.653383
     27          6           0        6.525407    3.007680    0.898231
     28          6           0        7.711926    3.328014    1.766947
     29          6           0        8.025441    1.892397    2.381135
     30          6           0        7.187597    1.004248    1.435990
     31          6           0        8.927243    4.028193    1.110003
     32          6           0        7.510555    1.685790    3.899279
     33          6           0        8.648115    1.504316    4.944224
     34          7           0        5.413311   -0.924552    0.074693
     35          6           0        6.492290   -1.354102    0.890115
     36          6           0        6.547691   -2.812736    0.907772
     37          6           0        5.280821   -3.186898    0.447187
     38          6           0        4.707514   -2.066946   -0.156933
     39          6           0        7.499103   -3.676931    1.649575
     40          6           0        4.467401   -4.309537    0.284438
     41          8           0        4.624602   -5.498000    0.644992
     42          6           0        3.262155   -3.802975   -0.533607
     43          6           0        3.365223   -4.611642   -1.858639
     44          8           0        3.953042   -4.192792   -2.871456
     45          8           0        2.712238   -5.798686   -1.653212
     46          6           0        2.698502   -6.536129   -2.898751
     47          6           0       -3.818680   -4.100047   -0.776761
     48          6           0       -4.530804   -3.843765    0.524549
     49          6           0       -4.322359   -2.742934    1.271928
     50          6           0       -3.592983   -1.504016    0.835854
     51          6           0       -4.897000   -2.729804    2.652915
     52          6           0       -6.208775   -1.956131    2.733229
     53          6           0       -7.349938   -2.938403    3.119987
     54          6           0       -8.545153   -2.909605    2.104124
     55          6           0       -9.386117   -4.246200    2.160960
     56          6           0       -9.418836   -1.665634    2.363525
     57          6           0       -9.450099   -0.684539    1.161911
     58          6           0       -8.768427    0.614701    1.586157
     59          6           0       -8.640575    1.607458    0.370461
     60          6           0       -7.321109    1.473914   -0.405009
     61          6           0       -8.904435    3.144880    0.824175
     62          6           0      -10.389350    3.468877    0.799150
     63          6           0      -10.809723    4.611973   -0.093703
     64          6           0      -11.991568    4.147636   -1.022744
     65          6           0      -11.750755    4.678205   -2.523648
     66          6           0      -13.318895    4.595172   -0.358415
     67          1           0        0.868099    2.490911   -2.243045
     68          1           0        6.044045    5.014510    0.744521
     69          1           0        8.182534   -0.788357    2.117183
     70          1           0        1.547165   -2.196577   -2.898031
     71          1           0       -0.152334   -0.027447   -2.121860
     72          1           0        0.882775    1.098940   -3.985701
     73          1           0       -0.152056   -0.309682   -4.299491
     74          1           0        1.634267   -0.525163   -4.479548
     75          1           0       -0.634166   -1.883731   -1.016103
     76          1           0        0.592801   -2.548223   -0.068078
     77          1           0        0.104782   -4.470024   -0.693794
     78          1           0        0.510505   -4.071510   -2.355056
     79          1           0        1.164356    4.672007   -3.090165
     80          1           0        1.741987    6.202085   -2.750890
     81          1           0        0.588449    5.513355   -1.696169
     82          1           0        6.182212    6.682646   -0.421073
     83          1           0        5.221667    7.021421    1.077538
     84          1           0        5.295831    8.252259   -0.112304
     85          1           0        7.519562    3.976793    2.621796
     86          1           0        9.104965    1.795595    2.265522
     87          1           0        8.675694    4.096451    0.051391
     88          1           0        9.755611    3.341919    1.285606
     89          1           0        9.050090    5.067374    1.414777
     90          1           0        6.862879    0.814595    4.002736
     91          1           0        7.018108    2.598530    4.235342
     92          1           0        8.352882    1.810987    5.947664
     93          1           0        9.415622    2.229128    4.673024
     94          1           0        8.956208    0.459481    4.979982
     95          1           0        7.408646   -3.587667    2.731816
     96          1           0        8.445894   -3.340749    1.226736
     97          1           0        7.393235   -4.719536    1.349897
     98          1           0        2.390338   -4.104714    0.046971
     99          1           0        3.653787   -7.061150   -2.887550
    100          1           0        2.642691   -5.996217   -3.844653
    101          1           0        1.870212   -7.243046   -2.846466
    102          1           0       -4.007510   -5.099034   -1.170032
    103          1           0       -4.287208   -3.345935   -1.407904
    104          1           0       -5.070875   -4.689732    0.948685
    105          1           0       -2.651311   -1.449394    1.382893
    106          1           0       -4.166970   -0.605205    1.060233
    107          1           0       -3.412736   -1.568593   -0.237374
    108          1           0       -4.179420   -2.236079    3.308351
    109          1           0       -5.015359   -3.746395    3.028844
    110          1           0       -6.458177   -1.397649    1.831601
    111          1           0       -6.069615   -1.178926    3.484989
    112          1           0       -7.668031   -2.664405    4.126231
    113          1           0       -7.031050   -3.979999    3.162377
    114          1           0       -7.978798   -2.774357    1.183016
    115          1           0      -10.461650   -4.160883    2.311874
    116          1           0       -9.051027   -4.861187    2.995792
    117          1           0       -9.199577   -4.947329    1.347639
    118          1           0       -9.207978   -1.159786    3.305712
    119          1           0      -10.396419   -2.051726    2.654885
    120          1           0      -10.526041   -0.584403    1.015690
    121          1           0       -9.046422   -1.007855    0.203144
    122          1           0       -7.802723    0.551124    2.087717
    123          1           0       -9.294229    1.084008    2.417282
    124          1           0       -9.447138    1.352307   -0.316810
    125          1           0       -6.604070    0.742057   -0.031968
    126          1           0       -6.778914    2.409434   -0.542948
    127          1           0       -7.630104    1.269071   -1.430204
    128          1           0       -8.300189    3.865791    0.273119
    129          1           0       -8.701199    3.178836    1.894622
    130          1           0      -10.712531    3.834283    1.774464
    131          1           0      -10.951492    2.592470    0.477174
    132          1           0       -9.957157    4.967727   -0.672943
    133          1           0      -11.100494    5.537281    0.403585
    134          1           0      -11.918244    3.074208   -1.195688
    135          1           0      -12.700458    4.613075   -3.053538
    136          1           0      -11.015398    4.131535   -3.114805
    137          1           0      -11.316033    5.677141   -2.539939
    138          1           0      -13.793495    5.238197   -1.099883
    139          1           0      -13.161565    5.340067    0.421769
    140          1           0      -13.892640    3.702258   -0.111067
 ---------------------------------------------------------------------

 SCF Done:  E(RZINDO/S) =  -474.481725311     A.U. after   20 cycles

 Excitation energies and oscillator strengths:

 Excited State   1:      Singlet-A      1.3030 eV  951.51 nm  f=0.5679  <S**2>=0.000
     175 ->178         0.19624
     176 ->177         0.66191
 This state for optimization and/or second-order correction.
 Total Energy, E(CIS/TDA) =  -474.433839861
 Copying the excited state density for this state as the 1-particle RhoCI density.

 Excited State   2:      Singlet-A      1.9174 eV  646.61 nm  f=0.0037  <S**2>=0.000
     175 ->177        -0.48734
     176 ->178         0.48941

 Excited State   3:      Singlet-A      2.8084 eV  441.47 nm  f=0.1077  <S**2>=0.000
     170 ->179         0.13205
     175 ->177         0.18006
     176 ->178         0.23088
     176 ->179         0.56010

 Excited State   4:      Singlet-A      2.9238 eV  424.05 nm  f=0.1497  <S**2>=0.000
     169 ->177        -0.13025
     169 ->179        -0.18595
     170 ->177        -0.25010
     170 ->178        -0.13654
     170 ->179        -0.34900
     170 ->180         0.14376
     170 ->186        -0.11465
     173 ->179        -0.11019
     175 ->177         0.16609
     176 ->178         0.18607
     176 ->179         0.10775

 Excited State   5:      Singlet-A      3.0426 eV  407.49 nm  f=1.2509  <S**2>=0.000
     171 ->177         0.13733
     175 ->177         0.39252
     176 ->178         0.36909
     176 ->179        -0.33471

 The electronic state is 1-A.
 Alpha  occ. eigenvalues --   -1.84943  -1.83656  -1.81950  -1.75003  -1.74045
 Alpha  occ. eigenvalues --   -1.72071  -1.65501  -1.61453  -1.60384  -1.58338
 Alpha  occ. eigenvalues --   -1.55485  -1.51372  -1.49133  -1.48273  -1.46307
 Alpha  occ. eigenvalues --   -1.45698  -1.43693  -1.40903  -1.39403  -1.37580
 Alpha  occ. eigenvalues --   -1.37016  -1.34187  -1.32898  -1.31497  -1.28937
 Alpha  occ. eigenvalues --   -1.28324  -1.27348  -1.22858  -1.21596  -1.19467
 Alpha  occ. eigenvalues --   -1.16983  -1.15720  -1.15490  -1.14384  -1.13361
 Alpha  occ. eigenvalues --   -1.12599  -1.09799  -1.09535  -1.05453  -1.02813
 Alpha  occ. eigenvalues --   -1.02675  -1.01267  -0.98129  -0.97291  -0.96963
 Alpha  occ. eigenvalues --   -0.94556  -0.94188  -0.93977  -0.93226  -0.93080
 Alpha  occ. eigenvalues --   -0.92443  -0.91628  -0.91007  -0.88869  -0.87154
 Alpha  occ. eigenvalues --   -0.86845  -0.85851  -0.83744  -0.82835  -0.80655
 Alpha  occ. eigenvalues --   -0.79497  -0.78578  -0.77731  -0.77148  -0.76720
 Alpha  occ. eigenvalues --   -0.76301  -0.75801  -0.75250  -0.74593  -0.73895
 Alpha  occ. eigenvalues --   -0.72992  -0.71886  -0.71736  -0.71331  -0.71136
 Alpha  occ. eigenvalues --   -0.70944  -0.70037  -0.69721  -0.69231  -0.68637
 Alpha  occ. eigenvalues --   -0.67194  -0.66704  -0.66496  -0.66045  -0.65515
 Alpha  occ. eigenvalues --   -0.65157  -0.64847  -0.64709  -0.64148  -0.63777
 Alpha  occ. eigenvalues --   -0.63345  -0.63092  -0.62721  -0.62563  -0.62275
 Alpha  occ. eigenvalues --   -0.61369  -0.60981  -0.60911  -0.60290  -0.60242
 Alpha  occ. eigenvalues --   -0.59768  -0.59300  -0.59138  -0.58997  -0.58480
 Alpha  occ. eigenvalues --   -0.58288  -0.57777  -0.57252  -0.56796  -0.56490
 Alpha  occ. eigenvalues --   -0.56186  -0.55491  -0.55447  -0.55202  -0.54850
 Alpha  occ. eigenvalues --   -0.54061  -0.53824  -0.53482  -0.53288  -0.53087
 Alpha  occ. eigenvalues --   -0.52797  -0.52643  -0.52103  -0.51772  -0.51582
 Alpha  occ. eigenvalues --   -0.51488  -0.51227  -0.50714  -0.50582  -0.50512
 Alpha  occ. eigenvalues --   -0.50352  -0.50059  -0.49600  -0.49116  -0.49048
 Alpha  occ. eigenvalues --   -0.48797  -0.48753  -0.48708  -0.48468  -0.47957
 Alpha  occ. eigenvalues --   -0.47836  -0.47577  -0.47157  -0.46975  -0.46622
 Alpha  occ. eigenvalues --   -0.46520  -0.46394  -0.45981  -0.45759  -0.45468
 Alpha  occ. eigenvalues --   -0.45283  -0.44879  -0.44715  -0.44237  -0.44100
 Alpha  occ. eigenvalues --   -0.43947  -0.42448  -0.42333  -0.42255  -0.42007
 Alpha  occ. eigenvalues --   -0.41644  -0.41457  -0.41205  -0.39256  -0.38788
 Alpha  occ. eigenvalues --   -0.38721  -0.37605  -0.35809  -0.35287  -0.34728
 Alpha  occ. eigenvalues --   -0.33520  -0.32734  -0.32445  -0.31976  -0.27085
 Alpha  occ. eigenvalues --   -0.21914
 Alpha virt. eigenvalues --   -0.08343  -0.02883  -0.01182   0.00842   0.01963
 Alpha virt. eigenvalues --    0.02437   0.02581   0.02718   0.04552   0.04610
 Alpha virt. eigenvalues --    0.06219   0.06366   0.06658   0.07563   0.07893

 Mulliken charges:
               1
     1  Mg   0.430059
     2  C   -0.041231
     3  C   -0.087745
     4  C   -0.102104
     5  C   -0.073505
     6  N   -0.235897
     7  C    0.105302
     8  C   -0.016365
     9  C   -0.005345
    10  C    0.165634
    11  C   -0.052105
    12  C   -0.021243
    13  C    0.010632
    14  C    0.484448
    15  O   -0.516178
    16  O   -0.283769
    17  N   -0.342836
    18  C    0.124538
    19  C    0.039715
    20  C   -0.045781
    21  C    0.156816
    22  C   -0.042668
    23  C    0.323540
    24  O   -0.494666
    25  C   -0.032880
    26  N   -0.240838
    27  C    0.166479
    28  C   -0.008197
    29  C   -0.016608
    30  C    0.103070
    31  C   -0.054220
    32  C   -0.034253
    33  C   -0.062022
    34  N   -0.336285
    35  C    0.075018
    36  C    0.020708
    37  C   -0.043428
    38  C    0.105076
    39  C   -0.039223
    40  C    0.329814
    41  O   -0.549908
    42  C    0.053636
    43  C    0.486451
    44  O   -0.526395
    45  O   -0.244281
    46  C    0.073930
    47  C    0.106489
    48  C   -0.106730
    49  C    0.011040
    50  C   -0.037157
    51  C   -0.018895
    52  C   -0.029941
    53  C   -0.037697
    54  C   -0.014186
    55  C   -0.063110
    56  C   -0.038059
    57  C   -0.028737
    58  C   -0.033854
    59  C   -0.021613
    60  C   -0.059516
    61  C   -0.042984
    62  C   -0.035504
    63  C   -0.037534
    64  C   -0.021589
    65  C   -0.068057
    66  C   -0.059006
    67  H    0.032575
    68  H    0.014583
    69  H    0.032795
    70  H    0.043121
    71  H    0.030207
    72  H    0.024977
    73  H    0.024086
    74  H    0.038448
    75  H    0.016894
    76  H    0.021203
    77  H    0.039170
    78  H    0.041062
    79  H    0.016416
    80  H    0.040231
    81  H    0.029178
    82  H    0.044276
    83  H    0.036713
    84  H    0.033159
    85  H    0.023654
    86  H    0.037776
    87  H    0.018623
    88  H    0.034266
    89  H    0.027973
    90  H    0.030470
    91  H    0.020692
    92  H    0.016366
    93  H    0.018010
    94  H    0.026089
    95  H    0.039376
    96  H    0.024205
    97  H    0.033712
    98  H    0.053445
    99  H    0.041758
   100  H    0.051545
   101  H    0.027961
   102  H    0.043824
   103  H    0.046270
   104  H    0.029866
   105  H    0.030789
   106  H    0.026242
   107  H    0.025625
   108  H    0.013927
   109  H    0.024698
   110  H    0.026075
   111  H    0.012729
   112  H    0.016025
   113  H    0.019471
   114  H    0.026981
   115  H    0.025212
   116  H    0.011307
   117  H    0.017794
   118  H    0.020117
   119  H    0.010961
   120  H    0.018015
   121  H    0.030549
   122  H    0.022013
   123  H    0.013301
   124  H    0.020627
   125  H    0.023044
   126  H    0.015604
   127  H    0.013428
   128  H    0.031007
   129  H    0.015546
   130  H    0.014736
   131  H    0.026303
   132  H    0.008967
   133  H    0.018379
   134  H    0.023596
   135  H    0.016493
   136  H    0.015931
   137  H    0.018218
   138  H    0.015281
   139  H    0.027443
   140  H    0.030342
 Sum of Mulliken charges =  -0.00000

 Dipole moment (field-independent basis, Debye):
    X=             -0.1784    Y=              4.9697    Z=              5.0758  Tot=              7.1059
 N-N= 4.409530315508D+03 E-N= 0.000000000000D+00  KE=-9.492873294759D+03
 Leave Link  601 at Fri Apr 29 20:19:21 2022, MaxMem=  6710886400 cpu:               0.8 elap:               0.0
 (Enter /sw/apps/gaussian-16.0/g16/l9999.exe)
 1\1\GINC-BP1-COMPUTE102\SP\RZINDO CIS\STO-3G\C55H74Mg1N4O6\OF15641\29-
 Apr-2022\0\\#p ZINDO=(nstates=5)\\step_451_chromophore_23 ZINDO\\0,1\M
 g,0,-10.651,40.819,42.423\C,0,-9.287,37.835,41.262\C,0,-8.439,42.549,4
 0.467\C,0,-12.367,43.633,43.067\C,0,-13.25,38.896,43.908\N,0,-9.052,40
 .239,41.057\C,0,-8.663,38.978,40.798\C,0,-7.378,38.872,39.942\C,0,-7.0
 58,40.452,39.809\C,0,-8.288,41.098,40.467\C,0,-5.717,40.859,40.431\C,0
 ,-7.574,38.05,38.607\C,0,-6.761,36.83,38.342\C,0,-5.868,36.95,37.166\O

 Normal termination of Gaussian 16 at Fri Apr 29 20:19:22 2022.
