 Gaussian 16, Revision A.03,
 Gaussian 16:  ES64L-G16RevA.03 25-Dec-2016

 ------------------------------
 #p blyp/Def2SVP td=(nstates=5)
 ------------------------------

 --------------------------------------------------
 step_251_chromophore_21 TDDFT with blyp functional
 --------------------------------------------------
 Symbolic Z-matrix:
 Charge =  0 Multiplicity = 1

                         Standard orientation:
 ---------------------------------------------------------------------
 Center     Atomic      Atomic             Coordinates (Angstroms)
 Number     Number       Type             X           Y           Z
 ---------------------------------------------------------------------
      1         12           0        5.088504    1.204401    0.137329
      2          6           0        4.617890   -2.299571    0.302369
      3          6           0        1.855836    1.498391   -0.786081
      4          6           0        5.619048    4.423757   -0.132073
      5          6           0        8.611216    0.577299    0.392465
      6          7           0        3.398096   -0.258367   -0.317342
      7          6           0        3.422186   -1.584459    0.080996
      8          6           0        2.013412   -2.070429    0.049345
      9          6           0        1.269005   -1.052160   -0.814833
     10          6           0        2.190151    0.180859   -0.638043
     11          6           0        1.237051   -1.509185   -2.321423
     12          6           0        1.282489   -2.285857    1.481800
     13          6           0        0.393383   -3.541750    1.734942
     14          6           0       -0.680550   -3.868571    0.657299
     15          8           0       -0.685117   -3.707614   -0.565260
     16          8           0       -1.789175   -4.440654    1.255111
     17          7           0        3.855349    2.745392   -0.411966
     18          6           0        2.596734    2.651479   -0.725251
     19          6           0        2.107152    3.995786   -1.076588
     20          6           0        3.118373    4.927841   -0.692594
     21          6           0        4.285136    4.044147   -0.410819
     22          6           0        0.725509    4.405298   -1.704895
     23          6           0        3.110833    6.452899   -0.592559
     24          8           0        4.118614    7.144828   -0.352207
     25          6           0        1.909663    7.165616   -0.999601
     26          7           0        6.954033    2.320343   -0.036193
     27          6           0        6.870426    3.710205   -0.027645
     28          6           0        8.308674    4.306288    0.226084
     29          6           0        9.166994    3.050780    0.520297
     30          6           0        8.184013    1.894718    0.322381
     31          6           0        8.779101    5.230823   -0.897084
     32          6           0        9.942549    3.051312    1.861691
     33          6           0       11.374724    2.467695    1.866143
     34          7           0        6.393370   -0.472063    0.295831
     35          6           0        7.779527   -0.583731    0.338201
     36          6           0        8.120411   -1.957481    0.607588
     37          6           0        6.920056   -2.666688    0.543419
     38          6           0        5.862123   -1.733409    0.363440
     39          6           0        9.393757   -2.473043    0.895786
     40          6           0        6.290193   -3.988060    0.682147
     41          8           0        6.735523   -5.096884    0.932288
     42          6           0        4.745352   -3.783141    0.552316
     43          6           0        4.265513   -4.675690   -0.578326
     44          8           0        4.226759   -4.546944   -1.781043
     45          8           0        3.733571   -5.729693    0.106712
     46          6           0        2.855484   -6.663647   -0.637718
     47          6           0       -2.846406   -5.080624    0.431395
     48          6           0       -4.138313   -4.312391    0.645169
     49          6           0       -5.401460   -4.624696    0.198659
     50          6           0       -5.581545   -5.764928   -0.803972
     51          6           0       -6.509784   -3.629662    0.232087
     52          6           0       -6.267205   -2.534058   -0.921491
     53          6           0       -6.403050   -0.943729   -0.527936
     54          6           0       -7.602595   -0.273598   -1.303907
     55          6           0       -7.302024    1.212300   -1.669345
     56          6           0       -9.000243   -0.392688   -0.681094
     57          6           0      -10.177135   -0.378574   -1.610883
     58          6           0      -10.825077    1.063121   -1.677321
     59          6           0      -12.325623    1.023889   -1.408388
     60          6           0      -13.210885    0.739475   -2.574020
     61          6           0      -12.741375    2.278542   -0.638639
     62          6           0      -12.526036    2.147942    0.884379
     63          6           0      -13.912585    2.442473    1.563450
     64          6           0      -13.982994    3.431256    2.765558
     65          6           0      -12.987385    3.138157    3.871047
     66          6           0      -15.410456    3.350875    3.429574
     67          1           0        0.791244    1.617915   -0.999575
     68          1           0        5.708772    5.506969   -0.027543
     69          1           0        9.643628    0.390842    0.693948
     70          1           0        1.854925   -3.048189   -0.406274
     71          1           0        0.312343   -0.755225   -0.385724
     72          1           0        0.340646   -1.199993   -2.857912
     73          1           0        1.192350   -2.591885   -2.441692
     74          1           0        2.090902   -1.012834   -2.781319
     75          1           0        0.751216   -1.374658    1.754711
     76          1           0        2.033348   -2.313450    2.272326
     77          1           0       -0.169916   -3.246785    2.621006
     78          1           0        1.146212   -4.318798    1.867620
     79          1           0        0.056640    4.955843   -1.043759
     80          1           0        0.237301    3.483229   -2.021645
     81          1           0        0.782540    5.115374   -2.529947
     82          1           0        1.036617    6.798117   -0.459664
     83          1           0        1.744209    7.064778   -2.072316
     84          1           0        2.009182    8.185443   -0.629206
     85          1           0        8.250587    4.827255    1.181880
     86          1           0        9.850846    2.852671   -0.304824
     87          1           0        9.299062    4.638856   -1.651009
     88          1           0        9.519380    5.971007   -0.595093
     89          1           0        7.911380    5.574418   -1.459238
     90          1           0        9.390642    2.614747    2.693959
     91          1           0       10.043010    4.064765    2.252494
     92          1           0       11.243800    1.449243    2.232104
     93          1           0       11.901747    3.036366    2.632951
     94          1           0       11.799469    2.505274    0.863383
     95          1           0        9.606664   -3.528131    0.725341
     96          1           0        9.616913   -2.194085    1.926066
     97          1           0       10.071895   -1.954675    0.218870
     98          1           0        4.255030   -4.037680    1.491760
     99          1           0        2.016206   -6.843486    0.033511
    100          1           0        3.285326   -7.633150   -0.888234
    101          1           0        2.481871   -6.182503   -1.541226
    102          1           0       -2.965237   -6.040660    0.934998
    103          1           0       -2.522389   -5.340516   -0.576470
    104          1           0       -3.987890   -3.462469    1.311184
    105          1           0       -6.284646   -5.568682   -1.614097
    106          1           0       -5.971960   -6.637896   -0.281740
    107          1           0       -4.626375   -5.989112   -1.279331
    108          1           0       -6.558373   -3.211829    1.237111
    109          1           0       -7.415799   -4.217761    0.082331
    110          1           0       -6.878049   -2.859585   -1.762782
    111          1           0       -5.274792   -2.631266   -1.361409
    112          1           0       -5.427946   -0.488985   -0.704734
    113          1           0       -6.577977   -0.850007    0.544372
    114          1           0       -7.680993   -0.790063   -2.260563
    115          1           0       -7.876858    1.897821   -1.048501
    116          1           0       -7.492519    1.409515   -2.724001
    117          1           0       -6.256746    1.452807   -1.475686
    118          1           0       -9.047746    0.417665    0.046146
    119          1           0       -9.063858   -1.261149   -0.025017
    120          1           0      -10.917961   -1.143036   -1.376767
    121          1           0       -9.921330   -0.593966   -2.647610
    122          1           0      -10.612589    1.381765   -2.697386
    123          1           0      -10.314602    1.846735   -1.117064
    124          1           0      -12.520239    0.172654   -0.755624
    125          1           0      -13.698617   -0.211192   -2.360518
    126          1           0      -12.641676    0.515159   -3.475823
    127          1           0      -14.070624    1.385828   -2.755319
    128          1           0      -13.787821    2.506792   -0.840717
    129          1           0      -12.187096    3.186233   -0.877803
    130          1           0      -11.673631    2.785077    1.119746
    131          1           0      -12.129231    1.144839    1.037972
    132          1           0      -14.031465    1.472500    2.048418
    133          1           0      -14.776674    2.499984    0.901676
    134          1           0      -13.844473    4.473679    2.475286
    135          1           0      -12.194611    3.835234    3.601623
    136          1           0      -12.464908    2.216050    3.617284
    137          1           0      -13.319208    3.150829    4.909659
    138          1           0      -16.113371    2.819211    2.788494
    139          1           0      -15.778734    4.371460    3.530714
    140          1           0      -15.533787    3.006071    4.456164
 ---------------------------------------------------------------------

 SCF Done:  E(RB-LYP) =  -3007.34647837     A.U. after   22 cycles

 Excitation energies and oscillator strengths:

 Excited State   1:      Singlet-A      1.8165 eV  682.56 nm  f=0.3090  <S**2>=0.000
     245 -> 248        0.16973
     245 -> 249       -0.11148
     246 -> 247        0.68567
     246 <- 247       -0.14223
 This state for optimization and/or second-order correction.
 Total Energy, E(TD-HF/TD-DFT) =  -3007.27972449
 Copying the excited state density for this state as the 1-particle RhoCI density.

 Excited State   2:      Singlet-A      1.9870 eV  623.96 nm  f=0.0034  <S**2>=0.000
     244 -> 247        0.68615
     245 -> 247        0.15568

 Excited State   3:      Singlet-A      2.0234 eV  612.75 nm  f=0.0489  <S**2>=0.000
     244 -> 247       -0.16833
     245 -> 247        0.61777
     246 -> 248       -0.23128
     246 -> 249        0.12481

 Excited State   4:      Singlet-A      2.1394 eV  579.53 nm  f=0.0021  <S**2>=0.000
     243 -> 247        0.70080

 Excited State   5:      Singlet-A      2.2929 eV  540.73 nm  f=0.0000  <S**2>=0.000
     242 -> 247        0.70708

 The electronic state is 1-A.
 Alpha  occ. eigenvalues --  -46.27538 -18.82120 -18.81342 -18.77763 -18.76745
 Alpha  occ. eigenvalues --  -18.75710 -18.75305 -14.02728 -14.02295 -14.01129
 Alpha  occ. eigenvalues --  -14.00385 -10.05377 -10.03613  -9.99982  -9.99332
 Alpha  occ. eigenvalues --   -9.98708  -9.97326  -9.96870  -9.96091  -9.96024
 Alpha  occ. eigenvalues --   -9.95860  -9.95423  -9.95322  -9.95295  -9.95172
 Alpha  occ. eigenvalues --   -9.94419  -9.93790  -9.93788  -9.93783  -9.93423
 Alpha  occ. eigenvalues --   -9.93392  -9.93292  -9.93147  -9.93122  -9.93026
 Alpha  occ. eigenvalues --   -9.92947  -9.92945  -9.92702  -9.92609  -9.92596
 Alpha  occ. eigenvalues --   -9.92573  -9.92543  -9.92515  -9.92353  -9.92343
 Alpha  occ. eigenvalues --   -9.92239  -9.92209  -9.92169  -9.92078  -9.91862
 Alpha  occ. eigenvalues --   -9.91843  -9.91778  -9.91546  -9.91467  -9.91400
 Alpha  occ. eigenvalues --   -9.91161  -9.91132  -9.91051  -9.90940  -9.90914
 Alpha  occ. eigenvalues --   -9.90906  -9.90552  -9.90465  -9.90420  -9.90418
 Alpha  occ. eigenvalues --   -9.90248  -2.92030  -1.72450  -1.71926  -1.71731
 Alpha  occ. eigenvalues --   -0.97687  -0.97393  -0.91009  -0.90681  -0.89671
 Alpha  occ. eigenvalues --   -0.89553  -0.87149  -0.85950  -0.85239  -0.84373
 Alpha  occ. eigenvalues --   -0.75436  -0.73646  -0.73288  -0.72243  -0.72026
 Alpha  occ. eigenvalues --   -0.71951  -0.71318  -0.70938  -0.70879  -0.70271
 Alpha  occ. eigenvalues --   -0.70009  -0.68995  -0.67703  -0.67365  -0.67253
 Alpha  occ. eigenvalues --   -0.66546  -0.65954  -0.65594  -0.65344  -0.64605
 Alpha  occ. eigenvalues --   -0.63911  -0.62439  -0.61759  -0.61731  -0.60541
 Alpha  occ. eigenvalues --   -0.60340  -0.60052  -0.59918  -0.59797  -0.58906
 Alpha  occ. eigenvalues --   -0.58306  -0.57306  -0.56617  -0.55530  -0.54255
 Alpha  occ. eigenvalues --   -0.54113  -0.53535  -0.53006  -0.52932  -0.51862
 Alpha  occ. eigenvalues --   -0.51256  -0.51034  -0.50917  -0.50225  -0.49801
 Alpha  occ. eigenvalues --   -0.49642  -0.49427  -0.48800  -0.48053  -0.46811
 Alpha  occ. eigenvalues --   -0.46565  -0.45850  -0.45596  -0.44835  -0.44185
 Alpha  occ. eigenvalues --   -0.43989  -0.43594  -0.42803  -0.42727  -0.41995
 Alpha  occ. eigenvalues --   -0.41770  -0.41432  -0.41205  -0.41195  -0.40858
 Alpha  occ. eigenvalues --   -0.40595  -0.40509  -0.40319  -0.40195  -0.40035
 Alpha  occ. eigenvalues --   -0.39809  -0.39576  -0.39369  -0.39223  -0.39131
 Alpha  occ. eigenvalues --   -0.39036  -0.38958  -0.38864  -0.38487  -0.38250
 Alpha  occ. eigenvalues --   -0.38160  -0.38001  -0.37646  -0.37547  -0.37191
 Alpha  occ. eigenvalues --   -0.37164  -0.36977  -0.36741  -0.36625  -0.36389
 Alpha  occ. eigenvalues --   -0.36214  -0.35801  -0.35594  -0.35586  -0.35398
 Alpha  occ. eigenvalues --   -0.35165  -0.35064  -0.34828  -0.34699  -0.34651
 Alpha  occ. eigenvalues --   -0.34533  -0.34309  -0.34082  -0.34050  -0.33736
 Alpha  occ. eigenvalues --   -0.33514  -0.33313  -0.33210  -0.32929  -0.32845
 Alpha  occ. eigenvalues --   -0.32715  -0.32617  -0.32538  -0.32495  -0.32298
 Alpha  occ. eigenvalues --   -0.32238  -0.31984  -0.31674  -0.31464  -0.31232
 Alpha  occ. eigenvalues --   -0.31114  -0.31107  -0.30865  -0.30739  -0.30663
 Alpha  occ. eigenvalues --   -0.30605  -0.30300  -0.29995  -0.29768  -0.29666
 Alpha  occ. eigenvalues --   -0.29600  -0.29317  -0.29023  -0.28915  -0.28689
 Alpha  occ. eigenvalues --   -0.28662  -0.28473  -0.28407  -0.28036  -0.27838
 Alpha  occ. eigenvalues --   -0.27512  -0.26948  -0.26919  -0.26485  -0.26267
 Alpha  occ. eigenvalues --   -0.26124  -0.25912  -0.25822  -0.25359  -0.25058
 Alpha  occ. eigenvalues --   -0.24753  -0.24572  -0.24497  -0.23710  -0.23396
 Alpha  occ. eigenvalues --   -0.22728  -0.22654  -0.22168  -0.21511  -0.20971
 Alpha  occ. eigenvalues --   -0.19847  -0.19524  -0.18858  -0.18306  -0.17008
 Alpha  occ. eigenvalues --   -0.15479
 Alpha virt. eigenvalues --   -0.11098  -0.07095  -0.06143  -0.04497  -0.04074
 Alpha virt. eigenvalues --   -0.02953  -0.02930  -0.01727  -0.01069   0.00139
 Alpha virt. eigenvalues --    0.01351   0.02146   0.02538   0.02735   0.02976

 Mulliken charges:
               1
     1  Mg   0.676478
     2  C   -0.006272
     3  C   -0.075393
     4  C   -0.027859
     5  C   -0.081850
     6  N   -0.188112
     7  C   -0.027886
     8  C   -0.010893
     9  C    0.036479
    10  C   -0.053932
    11  C    0.149210
    12  C    0.069105
    13  C    0.105448
    14  C    0.109023
    15  O   -0.196882
    16  O   -0.288413
    17  N   -0.245661
    18  C    0.168606
    19  C   -0.146053
    20  C    0.039761
    21  C    0.063531
    22  C    0.155937
    23  C   -0.064500
    24  O   -0.180515
    25  C    0.149969
    26  N   -0.215575
    27  C   -0.014549
    28  C    0.047845
    29  C    0.050224
    30  C    0.015971
    31  C    0.158405
    32  C    0.065442
    33  C    0.079237
    34  N   -0.266327
    35  C    0.108285
    36  C   -0.184235
    37  C    0.107463
    38  C    0.103181
    39  C    0.173853
    40  C   -0.071989
    41  O   -0.125892
    42  C    0.057911
    43  C    0.131810
    44  O   -0.155118
    45  O   -0.281218
    46  C    0.200560
    47  C    0.300480
    48  C   -0.104659
    49  C   -0.155055
    50  C    0.118147
    51  C    0.149780
    52  C    0.052917
    53  C    0.114633
    54  C   -0.078777
    55  C    0.103651
    56  C    0.111847
    57  C    0.091547
    58  C    0.090810
    59  C   -0.052701
    60  C    0.139415
    61  C    0.076511
    62  C    0.057070
    63  C    0.089824
    64  C   -0.079259
    65  C    0.125003
    66  C    0.079323
    67  H   -0.074811
    68  H   -0.041820
    69  H   -0.072418
    70  H   -0.018814
    71  H   -0.045300
    72  H   -0.021031
    73  H    0.011433
    74  H    0.001231
    75  H   -0.028113
    76  H   -0.033715
    77  H    0.010898
    78  H    0.035745
    79  H   -0.005297
    80  H   -0.008098
    81  H   -0.007472
    82  H   -0.012079
    83  H    0.026629
    84  H   -0.009443
    85  H   -0.023978
    86  H   -0.026191
    87  H   -0.032119
    88  H   -0.001769
    89  H    0.000347
    90  H   -0.031097
    91  H   -0.030533
    92  H    0.003111
    93  H   -0.009762
    94  H    0.001503
    95  H    0.004771
    96  H    0.003204
    97  H   -0.007807
    98  H    0.005675
    99  H    0.003838
   100  H    0.023909
   101  H    0.024953
   102  H   -0.002764
   103  H    0.020726
   104  H   -0.029876
   105  H   -0.009456
   106  H    0.002991
   107  H   -0.013829
   108  H   -0.020156
   109  H   -0.031083
   110  H   -0.025065
   111  H   -0.015327
   112  H   -0.024448
   113  H   -0.028163
   114  H   -0.038592
   115  H   -0.018532
   116  H   -0.010671
   117  H   -0.029003
   118  H   -0.037061
   119  H   -0.048337
   120  H   -0.030615
   121  H   -0.036270
   122  H   -0.044550
   123  H   -0.027593
   124  H   -0.039057
   125  H   -0.038777
   126  H   -0.029183
   127  H   -0.015118
   128  H   -0.044036
   129  H   -0.035831
   130  H   -0.033553
   131  H   -0.026383
   132  H   -0.036493
   133  H   -0.014316
   134  H   -0.029418
   135  H   -0.029598
   136  H   -0.027813
   137  H    0.004702
   138  H   -0.023781
   139  H   -0.027565
   140  H   -0.016798
 Sum of Mulliken charges =  -0.00000

 Dipole moment (field-independent basis, Debye):
    X=             -4.5223    Y=              0.6908    Z=              2.1645  Tot=              5.0610
 Quadrupole moment (field-independent basis, Debye-Ang):
   XX=           -390.8365   YY=           -423.2046   ZZ=           -405.9845
   XY=             32.2219   XZ=             17.3232   YZ=             -0.8501

 Normal termination of Gaussian 16 at Fri Apr 29 11:27:13 2022.
