 Gaussian 16, Revision A.03,
 Gaussian 16:  ES64L-G16RevA.03 25-Dec-2016

 -----------------------------------
 #p cam-b3lyp/Def2SVP td=(nstates=5)
 -----------------------------------

 -------------------------------------------------------
 step_251_chromophore_21 TDDFT with cam-b3lyp functional
 -------------------------------------------------------
 Symbolic Z-matrix:
 Charge =  0 Multiplicity = 1

                         Standard orientation:
 ---------------------------------------------------------------------
 Center     Atomic      Atomic             Coordinates (Angstroms)
 Number     Number       Type             X           Y           Z
 ---------------------------------------------------------------------
      1         12           0        5.088504    1.204401    0.137329
      2          6           0        4.617890   -2.299571    0.302369
      3          6           0        1.855836    1.498391   -0.786081
      4          6           0        5.619048    4.423757   -0.132073
      5          6           0        8.611216    0.577299    0.392465
      6          7           0        3.398096   -0.258367   -0.317342
      7          6           0        3.422186   -1.584459    0.080996
      8          6           0        2.013412   -2.070429    0.049345
      9          6           0        1.269005   -1.052160   -0.814833
     10          6           0        2.190151    0.180859   -0.638043
     11          6           0        1.237051   -1.509185   -2.321423
     12          6           0        1.282489   -2.285857    1.481800
     13          6           0        0.393383   -3.541750    1.734942
     14          6           0       -0.680550   -3.868571    0.657299
     15          8           0       -0.685117   -3.707614   -0.565260
     16          8           0       -1.789175   -4.440654    1.255111
     17          7           0        3.855349    2.745392   -0.411966
     18          6           0        2.596734    2.651479   -0.725251
     19          6           0        2.107152    3.995786   -1.076588
     20          6           0        3.118373    4.927841   -0.692594
     21          6           0        4.285136    4.044147   -0.410819
     22          6           0        0.725509    4.405298   -1.704895
     23          6           0        3.110833    6.452899   -0.592559
     24          8           0        4.118614    7.144828   -0.352207
     25          6           0        1.909663    7.165616   -0.999601
     26          7           0        6.954033    2.320343   -0.036193
     27          6           0        6.870426    3.710205   -0.027645
     28          6           0        8.308674    4.306288    0.226084
     29          6           0        9.166994    3.050780    0.520297
     30          6           0        8.184013    1.894718    0.322381
     31          6           0        8.779101    5.230823   -0.897084
     32          6           0        9.942549    3.051312    1.861691
     33          6           0       11.374724    2.467695    1.866143
     34          7           0        6.393370   -0.472063    0.295831
     35          6           0        7.779527   -0.583731    0.338201
     36          6           0        8.120411   -1.957481    0.607588
     37          6           0        6.920056   -2.666688    0.543419
     38          6           0        5.862123   -1.733409    0.363440
     39          6           0        9.393757   -2.473043    0.895786
     40          6           0        6.290193   -3.988060    0.682147
     41          8           0        6.735523   -5.096884    0.932288
     42          6           0        4.745352   -3.783141    0.552316
     43          6           0        4.265513   -4.675690   -0.578326
     44          8           0        4.226759   -4.546944   -1.781043
     45          8           0        3.733571   -5.729693    0.106712
     46          6           0        2.855484   -6.663647   -0.637718
     47          6           0       -2.846406   -5.080624    0.431395
     48          6           0       -4.138313   -4.312391    0.645169
     49          6           0       -5.401460   -4.624696    0.198659
     50          6           0       -5.581545   -5.764928   -0.803972
     51          6           0       -6.509784   -3.629662    0.232087
     52          6           0       -6.267205   -2.534058   -0.921491
     53          6           0       -6.403050   -0.943729   -0.527936
     54          6           0       -7.602595   -0.273598   -1.303907
     55          6           0       -7.302024    1.212300   -1.669345
     56          6           0       -9.000243   -0.392688   -0.681094
     57          6           0      -10.177135   -0.378574   -1.610883
     58          6           0      -10.825077    1.063121   -1.677321
     59          6           0      -12.325623    1.023889   -1.408388
     60          6           0      -13.210885    0.739475   -2.574020
     61          6           0      -12.741375    2.278542   -0.638639
     62          6           0      -12.526036    2.147942    0.884379
     63          6           0      -13.912585    2.442473    1.563450
     64          6           0      -13.982994    3.431256    2.765558
     65          6           0      -12.987385    3.138157    3.871047
     66          6           0      -15.410456    3.350875    3.429574
     67          1           0        0.791244    1.617915   -0.999575
     68          1           0        5.708772    5.506969   -0.027543
     69          1           0        9.643628    0.390842    0.693948
     70          1           0        1.854925   -3.048189   -0.406274
     71          1           0        0.312343   -0.755225   -0.385724
     72          1           0        0.340646   -1.199993   -2.857912
     73          1           0        1.192350   -2.591885   -2.441692
     74          1           0        2.090902   -1.012834   -2.781319
     75          1           0        0.751216   -1.374658    1.754711
     76          1           0        2.033348   -2.313450    2.272326
     77          1           0       -0.169916   -3.246785    2.621006
     78          1           0        1.146212   -4.318798    1.867620
     79          1           0        0.056640    4.955843   -1.043759
     80          1           0        0.237301    3.483229   -2.021645
     81          1           0        0.782540    5.115374   -2.529947
     82          1           0        1.036617    6.798117   -0.459664
     83          1           0        1.744209    7.064778   -2.072316
     84          1           0        2.009182    8.185443   -0.629206
     85          1           0        8.250587    4.827255    1.181880
     86          1           0        9.850846    2.852671   -0.304824
     87          1           0        9.299062    4.638856   -1.651009
     88          1           0        9.519380    5.971007   -0.595093
     89          1           0        7.911380    5.574418   -1.459238
     90          1           0        9.390642    2.614747    2.693959
     91          1           0       10.043010    4.064765    2.252494
     92          1           0       11.243800    1.449243    2.232104
     93          1           0       11.901747    3.036366    2.632951
     94          1           0       11.799469    2.505274    0.863383
     95          1           0        9.606664   -3.528131    0.725341
     96          1           0        9.616913   -2.194085    1.926066
     97          1           0       10.071895   -1.954675    0.218870
     98          1           0        4.255030   -4.037680    1.491760
     99          1           0        2.016206   -6.843486    0.033511
    100          1           0        3.285326   -7.633150   -0.888234
    101          1           0        2.481871   -6.182503   -1.541226
    102          1           0       -2.965237   -6.040660    0.934998
    103          1           0       -2.522389   -5.340516   -0.576470
    104          1           0       -3.987890   -3.462469    1.311184
    105          1           0       -6.284646   -5.568682   -1.614097
    106          1           0       -5.971960   -6.637896   -0.281740
    107          1           0       -4.626375   -5.989112   -1.279331
    108          1           0       -6.558373   -3.211829    1.237111
    109          1           0       -7.415799   -4.217761    0.082331
    110          1           0       -6.878049   -2.859585   -1.762782
    111          1           0       -5.274792   -2.631266   -1.361409
    112          1           0       -5.427946   -0.488985   -0.704734
    113          1           0       -6.577977   -0.850007    0.544372
    114          1           0       -7.680993   -0.790063   -2.260563
    115          1           0       -7.876858    1.897821   -1.048501
    116          1           0       -7.492519    1.409515   -2.724001
    117          1           0       -6.256746    1.452807   -1.475686
    118          1           0       -9.047746    0.417665    0.046146
    119          1           0       -9.063858   -1.261149   -0.025017
    120          1           0      -10.917961   -1.143036   -1.376767
    121          1           0       -9.921330   -0.593966   -2.647610
    122          1           0      -10.612589    1.381765   -2.697386
    123          1           0      -10.314602    1.846735   -1.117064
    124          1           0      -12.520239    0.172654   -0.755624
    125          1           0      -13.698617   -0.211192   -2.360518
    126          1           0      -12.641676    0.515159   -3.475823
    127          1           0      -14.070624    1.385828   -2.755319
    128          1           0      -13.787821    2.506792   -0.840717
    129          1           0      -12.187096    3.186233   -0.877803
    130          1           0      -11.673631    2.785077    1.119746
    131          1           0      -12.129231    1.144839    1.037972
    132          1           0      -14.031465    1.472500    2.048418
    133          1           0      -14.776674    2.499984    0.901676
    134          1           0      -13.844473    4.473679    2.475286
    135          1           0      -12.194611    3.835234    3.601623
    136          1           0      -12.464908    2.216050    3.617284
    137          1           0      -13.319208    3.150829    4.909659
    138          1           0      -16.113371    2.819211    2.788494
    139          1           0      -15.778734    4.371460    3.530714
    140          1           0      -15.533787    3.006071    4.456164
 ---------------------------------------------------------------------

 SCF Done:  E(RCAM-B3LYP) =  -3007.13660430     A.U. after   17 cycles

 Excitation energies and oscillator strengths:

 Excited State   1:      Singlet-A      1.7285 eV  717.28 nm  f=0.3777  <S**2>=0.000
     245 -> 248        0.18876
     246 -> 247        0.68179
     245 <- 248        0.10690
 This state for optimization and/or second-order correction.
 Total Energy, E(TD-HF/TD-DFT) =  -3007.07308198
 Copying the excited state density for this state as the 1-particle RhoCI density.

 Excited State   2:      Singlet-A      2.2604 eV  548.51 nm  f=0.0735  <S**2>=0.000
     245 -> 247        0.62247
     246 -> 248       -0.31981

 Excited State   3:      Singlet-A      3.3938 eV  365.33 nm  f=0.1572  <S**2>=0.000
     243 -> 247        0.56837
     245 -> 247        0.14719
     246 -> 248        0.37099

 Excited State   4:      Singlet-A      3.4930 eV  354.95 nm  f=0.5085  <S**2>=0.000
     241 -> 247        0.21415
     243 -> 247       -0.37587
     245 -> 247        0.25844
     246 -> 248        0.47540

 Excited State   5:      Singlet-A      3.5560 eV  348.66 nm  f=0.0072  <S**2>=0.000
     242 -> 247        0.55878
     242 -> 249        0.25588
     242 -> 250       -0.14629
     242 -> 251        0.23647

 The electronic state is 1-A.
 Alpha  occ. eigenvalues --  -46.89146 -19.24918 -19.24258 -19.20771 -19.19842
 Alpha  occ. eigenvalues --  -19.19106 -19.18515 -14.41576 -14.41144 -14.39643
 Alpha  occ. eigenvalues --  -14.38744 -10.40752 -10.39063 -10.35373 -10.34653
 Alpha  occ. eigenvalues --  -10.32721 -10.31512 -10.31372 -10.30562 -10.30548
 Alpha  occ. eigenvalues --  -10.30136 -10.29778 -10.29681 -10.29367 -10.29322
 Alpha  occ. eigenvalues --  -10.29271 -10.27999 -10.27779 -10.27759 -10.27740
 Alpha  occ. eigenvalues --  -10.27533 -10.27489 -10.27258 -10.27234 -10.27171
 Alpha  occ. eigenvalues --  -10.27153 -10.26973 -10.26908 -10.26493 -10.26350
 Alpha  occ. eigenvalues --  -10.26338 -10.26335 -10.26307 -10.26236 -10.26197
 Alpha  occ. eigenvalues --  -10.26170 -10.25970 -10.25918 -10.25915 -10.25880
 Alpha  occ. eigenvalues --  -10.25683 -10.25485 -10.25164 -10.25096 -10.25054
 Alpha  occ. eigenvalues --  -10.24851 -10.24775 -10.24663 -10.24594 -10.24587
 Alpha  occ. eigenvalues --  -10.24567 -10.24528 -10.24067 -10.23978 -10.23976
 Alpha  occ. eigenvalues --  -10.23887  -3.17534  -1.92432  -1.91991  -1.91827
 Alpha  occ. eigenvalues --   -1.16099  -1.15972  -1.09430  -1.09214  -1.07604
 Alpha  occ. eigenvalues --   -1.07336  -1.04929  -1.03648  -1.02848  -1.01857
 Alpha  occ. eigenvalues --   -0.92570  -0.90495  -0.90104  -0.88986  -0.88682
 Alpha  occ. eigenvalues --   -0.88621  -0.87946  -0.87515  -0.87423  -0.87003
 Alpha  occ. eigenvalues --   -0.86672  -0.85297  -0.83900  -0.83522  -0.83396
 Alpha  occ. eigenvalues --   -0.82546  -0.82320  -0.81536  -0.81215  -0.80457
 Alpha  occ. eigenvalues --   -0.79612  -0.78203  -0.77352  -0.77276  -0.75890
 Alpha  occ. eigenvalues --   -0.75740  -0.75390  -0.75261  -0.75067  -0.74134
 Alpha  occ. eigenvalues --   -0.73313  -0.72266  -0.71509  -0.70298  -0.68848
 Alpha  occ. eigenvalues --   -0.68658  -0.68273  -0.67446  -0.67383  -0.66166
 Alpha  occ. eigenvalues --   -0.65321  -0.65092  -0.65076  -0.64176  -0.63809
 Alpha  occ. eigenvalues --   -0.63615  -0.63079  -0.62696  -0.61783  -0.60323
 Alpha  occ. eigenvalues --   -0.60295  -0.59514  -0.59114  -0.58196  -0.57799
 Alpha  occ. eigenvalues --   -0.57401  -0.56842  -0.56167  -0.55887  -0.55349
 Alpha  occ. eigenvalues --   -0.54978  -0.54627  -0.54304  -0.53869  -0.53519
 Alpha  occ. eigenvalues --   -0.53510  -0.53310  -0.53095  -0.53065  -0.52645
 Alpha  occ. eigenvalues --   -0.52608  -0.52257  -0.52121  -0.51725  -0.51548
 Alpha  occ. eigenvalues --   -0.51484  -0.51404  -0.51282  -0.51028  -0.50670
 Alpha  occ. eigenvalues --   -0.50503  -0.50448  -0.50245  -0.49855  -0.49760
 Alpha  occ. eigenvalues --   -0.49430  -0.49356  -0.49116  -0.48922  -0.48824
 Alpha  occ. eigenvalues --   -0.48548  -0.48346  -0.47986  -0.47552  -0.47497
 Alpha  occ. eigenvalues --   -0.47089  -0.47024  -0.46796  -0.46624  -0.46606
 Alpha  occ. eigenvalues --   -0.46459  -0.46228  -0.45955  -0.45695  -0.45630
 Alpha  occ. eigenvalues --   -0.45299  -0.44970  -0.44875  -0.44816  -0.44586
 Alpha  occ. eigenvalues --   -0.44503  -0.44345  -0.44176  -0.43979  -0.43887
 Alpha  occ. eigenvalues --   -0.43747  -0.43683  -0.43536  -0.42938  -0.42793
 Alpha  occ. eigenvalues --   -0.42781  -0.42562  -0.42518  -0.42344  -0.41932
 Alpha  occ. eigenvalues --   -0.41859  -0.41708  -0.41613  -0.41227  -0.40905
 Alpha  occ. eigenvalues --   -0.40799  -0.40716  -0.40257  -0.40089  -0.39996
 Alpha  occ. eigenvalues --   -0.39787  -0.39447  -0.39424  -0.39052  -0.38864
 Alpha  occ. eigenvalues --   -0.38600  -0.37792  -0.37710  -0.37311  -0.37240
 Alpha  occ. eigenvalues --   -0.36964  -0.36668  -0.36656  -0.36426  -0.36326
 Alpha  occ. eigenvalues --   -0.35701  -0.35680  -0.35015  -0.34642  -0.34454
 Alpha  occ. eigenvalues --   -0.33794  -0.33651  -0.32892  -0.31530  -0.30927
 Alpha  occ. eigenvalues --   -0.30358  -0.30296  -0.29057  -0.28989  -0.23752
 Alpha  occ. eigenvalues --   -0.20738
 Alpha virt. eigenvalues --   -0.08073  -0.01838   0.00068   0.01904   0.02492
 Alpha virt. eigenvalues --    0.03762   0.04455   0.05979   0.06122   0.07433
 Alpha virt. eigenvalues --    0.07664   0.08275   0.08942   0.09070   0.09322

 Mulliken charges:
               1
     1  Mg   0.806971
     2  C   -0.037892
     3  C   -0.090596
     4  C   -0.053668
     5  C   -0.087299
     6  N   -0.255163
     7  C    0.016110
     8  C   -0.067053
     9  C   -0.015788
    10  C   -0.035114
    11  C    0.095345
    12  C    0.028591
    13  C    0.037108
    14  C    0.188220
    15  O   -0.239057
    16  O   -0.355114
    17  N   -0.338778
    18  C    0.178671
    19  C   -0.150623
    20  C   -0.029844
    21  C    0.090789
    22  C    0.102603
    23  C    0.020170
    24  O   -0.220226
    25  C    0.059804
    26  N   -0.286723
    27  C    0.009238
    28  C   -0.007474
    29  C   -0.009671
    30  C    0.041671
    31  C    0.096809
    32  C    0.008244
    33  C    0.017202
    34  N   -0.352865
    35  C    0.116715
    36  C   -0.179247
    37  C    0.027067
    38  C    0.136876
    39  C    0.109382
    40  C    0.029614
    41  O   -0.163922
    42  C   -0.011739
    43  C    0.217194
    44  O   -0.193149
    45  O   -0.345424
    46  C    0.167720
    47  C    0.268542
    48  C   -0.121344
    49  C   -0.175391
    50  C    0.052280
    51  C    0.089311
    52  C   -0.000284
    53  C    0.064925
    54  C   -0.132233
    55  C    0.045618
    56  C    0.055491
    57  C    0.036682
    58  C    0.038934
    59  C   -0.110300
    60  C    0.075921
    61  C    0.023262
    62  C    0.008667
    63  C    0.029314
    64  C   -0.131048
    65  C    0.059035
    66  C    0.020006
    67  H   -0.038971
    68  H   -0.001420
    69  H   -0.037585
    70  H    0.013815
    71  H   -0.010396
    72  H    0.004524
    73  H    0.035227
    74  H    0.026096
    75  H    0.000767
    76  H   -0.001748
    77  H    0.045041
    78  H    0.062433
    79  H    0.021246
    80  H    0.019350
    81  H    0.019348
    82  H    0.016754
    83  H    0.053710
    84  H    0.027650
    85  H    0.011100
    86  H    0.008887
    87  H   -0.006004
    88  H    0.023344
    89  H    0.026132
    90  H   -0.000291
    91  H   -0.001619
    92  H    0.023332
    93  H    0.015520
    94  H    0.023966
    95  H    0.034456
    96  H    0.029795
    97  H    0.016620
    98  H    0.047632
    99  H    0.024053
   100  H    0.045405
   101  H    0.048810
   102  H    0.025863
   103  H    0.049400
   104  H    0.003495
   105  H    0.015718
   106  H    0.027927
   107  H    0.009234
   108  H    0.008689
   109  H   -0.001272
   110  H    0.001255
   111  H    0.013688
   112  H    0.004610
   113  H   -0.001766
   114  H   -0.007604
   115  H    0.003138
   116  H    0.012906
   117  H   -0.003590
   118  H   -0.010150
   119  H   -0.018080
   120  H   -0.001419
   121  H   -0.007253
   122  H   -0.014532
   123  H   -0.002296
   124  H   -0.006928
   125  H   -0.013139
   126  H   -0.003717
   127  H    0.010855
   128  H   -0.014975
   129  H   -0.006523
   130  H   -0.006464
   131  H   -0.000188
   132  H   -0.006799
   133  H    0.013219
   134  H    0.001038
   135  H   -0.005045
   136  H   -0.003251
   137  H    0.029178
   138  H    0.000240
   139  H   -0.002795
   140  H    0.007276
 Sum of Mulliken charges =  -0.00000

 Dipole moment (field-independent basis, Debye):
    X=             -4.9097    Y=              1.2164    Z=              2.1945  Tot=              5.5136
 Quadrupole moment (field-independent basis, Debye-Ang):
   XX=           -392.6373   YY=           -419.0459   ZZ=           -406.0447
   XY=             33.5116   XZ=             18.6148   YZ=             -1.1331

 Normal termination of Gaussian 16 at Fri Apr 29 10:25:42 2022.
