 Gaussian 16, Revision A.03,
 Gaussian 16:  ES64L-G16RevA.03 25-Dec-2016

 ---------------------------------
 #p PBE1PBE/Def2SVP td=(nstates=5)
 ---------------------------------

 -----------------------------------------------------
 step_251_chromophore_21 TDDFT with PBE1PBE functional
 -----------------------------------------------------
 Symbolic Z-matrix:
 Charge =  0 Multiplicity = 1

                         Standard orientation:
 ---------------------------------------------------------------------
 Center     Atomic      Atomic             Coordinates (Angstroms)
 Number     Number       Type             X           Y           Z
 ---------------------------------------------------------------------
      1         12           0        5.088504    1.204401    0.137329
      2          6           0        4.617890   -2.299571    0.302369
      3          6           0        1.855836    1.498391   -0.786081
      4          6           0        5.619048    4.423757   -0.132073
      5          6           0        8.611216    0.577299    0.392465
      6          7           0        3.398096   -0.258367   -0.317342
      7          6           0        3.422186   -1.584459    0.080996
      8          6           0        2.013412   -2.070429    0.049345
      9          6           0        1.269005   -1.052160   -0.814833
     10          6           0        2.190151    0.180859   -0.638043
     11          6           0        1.237051   -1.509185   -2.321423
     12          6           0        1.282489   -2.285857    1.481800
     13          6           0        0.393383   -3.541750    1.734942
     14          6           0       -0.680550   -3.868571    0.657299
     15          8           0       -0.685117   -3.707614   -0.565260
     16          8           0       -1.789175   -4.440654    1.255111
     17          7           0        3.855349    2.745392   -0.411966
     18          6           0        2.596734    2.651479   -0.725251
     19          6           0        2.107152    3.995786   -1.076588
     20          6           0        3.118373    4.927841   -0.692594
     21          6           0        4.285136    4.044147   -0.410819
     22          6           0        0.725509    4.405298   -1.704895
     23          6           0        3.110833    6.452899   -0.592559
     24          8           0        4.118614    7.144828   -0.352207
     25          6           0        1.909663    7.165616   -0.999601
     26          7           0        6.954033    2.320343   -0.036193
     27          6           0        6.870426    3.710205   -0.027645
     28          6           0        8.308674    4.306288    0.226084
     29          6           0        9.166994    3.050780    0.520297
     30          6           0        8.184013    1.894718    0.322381
     31          6           0        8.779101    5.230823   -0.897084
     32          6           0        9.942549    3.051312    1.861691
     33          6           0       11.374724    2.467695    1.866143
     34          7           0        6.393370   -0.472063    0.295831
     35          6           0        7.779527   -0.583731    0.338201
     36          6           0        8.120411   -1.957481    0.607588
     37          6           0        6.920056   -2.666688    0.543419
     38          6           0        5.862123   -1.733409    0.363440
     39          6           0        9.393757   -2.473043    0.895786
     40          6           0        6.290193   -3.988060    0.682147
     41          8           0        6.735523   -5.096884    0.932288
     42          6           0        4.745352   -3.783141    0.552316
     43          6           0        4.265513   -4.675690   -0.578326
     44          8           0        4.226759   -4.546944   -1.781043
     45          8           0        3.733571   -5.729693    0.106712
     46          6           0        2.855484   -6.663647   -0.637718
     47          6           0       -2.846406   -5.080624    0.431395
     48          6           0       -4.138313   -4.312391    0.645169
     49          6           0       -5.401460   -4.624696    0.198659
     50          6           0       -5.581545   -5.764928   -0.803972
     51          6           0       -6.509784   -3.629662    0.232087
     52          6           0       -6.267205   -2.534058   -0.921491
     53          6           0       -6.403050   -0.943729   -0.527936
     54          6           0       -7.602595   -0.273598   -1.303907
     55          6           0       -7.302024    1.212300   -1.669345
     56          6           0       -9.000243   -0.392688   -0.681094
     57          6           0      -10.177135   -0.378574   -1.610883
     58          6           0      -10.825077    1.063121   -1.677321
     59          6           0      -12.325623    1.023889   -1.408388
     60          6           0      -13.210885    0.739475   -2.574020
     61          6           0      -12.741375    2.278542   -0.638639
     62          6           0      -12.526036    2.147942    0.884379
     63          6           0      -13.912585    2.442473    1.563450
     64          6           0      -13.982994    3.431256    2.765558
     65          6           0      -12.987385    3.138157    3.871047
     66          6           0      -15.410456    3.350875    3.429574
     67          1           0        0.791244    1.617915   -0.999575
     68          1           0        5.708772    5.506969   -0.027543
     69          1           0        9.643628    0.390842    0.693948
     70          1           0        1.854925   -3.048189   -0.406274
     71          1           0        0.312343   -0.755225   -0.385724
     72          1           0        0.340646   -1.199993   -2.857912
     73          1           0        1.192350   -2.591885   -2.441692
     74          1           0        2.090902   -1.012834   -2.781319
     75          1           0        0.751216   -1.374658    1.754711
     76          1           0        2.033348   -2.313450    2.272326
     77          1           0       -0.169916   -3.246785    2.621006
     78          1           0        1.146212   -4.318798    1.867620
     79          1           0        0.056640    4.955843   -1.043759
     80          1           0        0.237301    3.483229   -2.021645
     81          1           0        0.782540    5.115374   -2.529947
     82          1           0        1.036617    6.798117   -0.459664
     83          1           0        1.744209    7.064778   -2.072316
     84          1           0        2.009182    8.185443   -0.629206
     85          1           0        8.250587    4.827255    1.181880
     86          1           0        9.850846    2.852671   -0.304824
     87          1           0        9.299062    4.638856   -1.651009
     88          1           0        9.519380    5.971007   -0.595093
     89          1           0        7.911380    5.574418   -1.459238
     90          1           0        9.390642    2.614747    2.693959
     91          1           0       10.043010    4.064765    2.252494
     92          1           0       11.243800    1.449243    2.232104
     93          1           0       11.901747    3.036366    2.632951
     94          1           0       11.799469    2.505274    0.863383
     95          1           0        9.606664   -3.528131    0.725341
     96          1           0        9.616913   -2.194085    1.926066
     97          1           0       10.071895   -1.954675    0.218870
     98          1           0        4.255030   -4.037680    1.491760
     99          1           0        2.016206   -6.843486    0.033511
    100          1           0        3.285326   -7.633150   -0.888234
    101          1           0        2.481871   -6.182503   -1.541226
    102          1           0       -2.965237   -6.040660    0.934998
    103          1           0       -2.522389   -5.340516   -0.576470
    104          1           0       -3.987890   -3.462469    1.311184
    105          1           0       -6.284646   -5.568682   -1.614097
    106          1           0       -5.971960   -6.637896   -0.281740
    107          1           0       -4.626375   -5.989112   -1.279331
    108          1           0       -6.558373   -3.211829    1.237111
    109          1           0       -7.415799   -4.217761    0.082331
    110          1           0       -6.878049   -2.859585   -1.762782
    111          1           0       -5.274792   -2.631266   -1.361409
    112          1           0       -5.427946   -0.488985   -0.704734
    113          1           0       -6.577977   -0.850007    0.544372
    114          1           0       -7.680993   -0.790063   -2.260563
    115          1           0       -7.876858    1.897821   -1.048501
    116          1           0       -7.492519    1.409515   -2.724001
    117          1           0       -6.256746    1.452807   -1.475686
    118          1           0       -9.047746    0.417665    0.046146
    119          1           0       -9.063858   -1.261149   -0.025017
    120          1           0      -10.917961   -1.143036   -1.376767
    121          1           0       -9.921330   -0.593966   -2.647610
    122          1           0      -10.612589    1.381765   -2.697386
    123          1           0      -10.314602    1.846735   -1.117064
    124          1           0      -12.520239    0.172654   -0.755624
    125          1           0      -13.698617   -0.211192   -2.360518
    126          1           0      -12.641676    0.515159   -3.475823
    127          1           0      -14.070624    1.385828   -2.755319
    128          1           0      -13.787821    2.506792   -0.840717
    129          1           0      -12.187096    3.186233   -0.877803
    130          1           0      -11.673631    2.785077    1.119746
    131          1           0      -12.129231    1.144839    1.037972
    132          1           0      -14.031465    1.472500    2.048418
    133          1           0      -14.776674    2.499984    0.901676
    134          1           0      -13.844473    4.473679    2.475286
    135          1           0      -12.194611    3.835234    3.601623
    136          1           0      -12.464908    2.216050    3.617284
    137          1           0      -13.319208    3.150829    4.909659
    138          1           0      -16.113371    2.819211    2.788494
    139          1           0      -15.778734    4.371460    3.530714
    140          1           0      -15.533787    3.006071    4.456164
 ---------------------------------------------------------------------

 SCF Done:  E(RPBE1PBE) =  -3005.32582337     A.U. after   15 cycles

 Excitation energies and oscillator strengths:

 Excited State   1:      Singlet-A      1.8794 eV  659.69 nm  f=0.3712  <S**2>=0.000
     245 -> 248        0.17359
     246 -> 247        0.68902
     246 <- 247       -0.10000
 This state for optimization and/or second-order correction.
 Total Energy, E(TD-HF/TD-DFT) =  -3005.25675527
 Copying the excited state density for this state as the 1-particle RhoCI density.

 Excited State   2:      Singlet-A      2.2617 eV  548.19 nm  f=0.0750  <S**2>=0.000
     245 -> 247        0.63737
     246 -> 248       -0.28361

 Excited State   3:      Singlet-A      3.0513 eV  406.34 nm  f=0.0003  <S**2>=0.000
     242 -> 247        0.64787
     242 -> 249        0.15421
     242 -> 250        0.13146
     243 -> 247       -0.18737

 Excited State   4:      Singlet-A      3.0700 eV  403.86 nm  f=0.0065  <S**2>=0.000
     242 -> 247        0.17788
     243 -> 247        0.64706
     246 -> 248        0.19272

 Excited State   5:      Singlet-A      3.1954 eV  388.00 nm  f=0.1695  <S**2>=0.000
     241 -> 247       -0.33576
     243 -> 247       -0.14645
     245 -> 247        0.17351
     246 -> 248        0.48358
     246 -> 249        0.25821

 The electronic state is 1-A.
 Alpha  occ. eigenvalues --  -46.92524 -19.25664 -19.24958 -19.21038 -19.20067
 Alpha  occ. eigenvalues --  -19.19257 -19.18764 -14.41108 -14.40648 -14.39217
 Alpha  occ. eigenvalues --  -14.38464 -10.37801 -10.36078 -10.32408 -10.31838
 Alpha  occ. eigenvalues --  -10.30164 -10.29260 -10.28603 -10.28316 -10.28199
 Alpha  occ. eigenvalues --  -10.27915 -10.27349 -10.27338 -10.27140 -10.26883
 Alpha  occ. eigenvalues --  -10.26879 -10.25734 -10.25543 -10.25433 -10.25420
 Alpha  occ. eigenvalues --  -10.25175 -10.25040 -10.25009 -10.24994 -10.24907
 Alpha  occ. eigenvalues --  -10.24869 -10.24710 -10.24675 -10.24176 -10.24019
 Alpha  occ. eigenvalues --  -10.23983 -10.23949 -10.23897 -10.23872 -10.23769
 Alpha  occ. eigenvalues --  -10.23686 -10.23557 -10.23536 -10.23492 -10.23152
 Alpha  occ. eigenvalues --  -10.23133 -10.22947 -10.22749 -10.22596 -10.22548
 Alpha  occ. eigenvalues --  -10.22460 -10.22413 -10.22388 -10.22201 -10.22165
 Alpha  occ. eigenvalues --  -10.22052 -10.21935 -10.21481 -10.21472 -10.21354
 Alpha  occ. eigenvalues --  -10.21350  -3.14497  -1.87334  -1.86871  -1.86711
 Alpha  occ. eigenvalues --   -1.10915  -1.10750  -1.04200  -1.03848  -1.02448
 Alpha  occ. eigenvalues --   -1.02207  -0.99564  -0.98272  -0.97489  -0.96549
 Alpha  occ. eigenvalues --   -0.86961  -0.84591  -0.84245  -0.83212  -0.82941
 Alpha  occ. eigenvalues --   -0.82756  -0.82283  -0.81794  -0.81621  -0.81198
 Alpha  occ. eigenvalues --   -0.80964  -0.79561  -0.78136  -0.77766  -0.77693
 Alpha  occ. eigenvalues --   -0.76762  -0.76443  -0.75848  -0.75417  -0.74838
 Alpha  occ. eigenvalues --   -0.73791  -0.72478  -0.71628  -0.71588  -0.70131
 Alpha  occ. eigenvalues --   -0.69982  -0.69507  -0.69428  -0.69345  -0.68302
 Alpha  occ. eigenvalues --   -0.67654  -0.66736  -0.65964  -0.64597  -0.63086
 Alpha  occ. eigenvalues --   -0.63004  -0.62661  -0.61921  -0.61625  -0.60363
 Alpha  occ. eigenvalues --   -0.59807  -0.59640  -0.59524  -0.58774  -0.57958
 Alpha  occ. eigenvalues --   -0.57760  -0.57606  -0.56886  -0.56382  -0.54806
 Alpha  occ. eigenvalues --   -0.54718  -0.54007  -0.53724  -0.52812  -0.52247
 Alpha  occ. eigenvalues --   -0.51965  -0.51344  -0.50677  -0.50478  -0.49900
 Alpha  occ. eigenvalues --   -0.49525  -0.49120  -0.48861  -0.48275  -0.48094
 Alpha  occ. eigenvalues --   -0.47992  -0.47861  -0.47627  -0.47419  -0.47171
 Alpha  occ. eigenvalues --   -0.47139  -0.46754  -0.46687  -0.46258  -0.46105
 Alpha  occ. eigenvalues --   -0.46016  -0.45986  -0.45773  -0.45696  -0.45257
 Alpha  occ. eigenvalues --   -0.45065  -0.44974  -0.44795  -0.44426  -0.44367
 Alpha  occ. eigenvalues --   -0.43995  -0.43938  -0.43670  -0.43511  -0.43386
 Alpha  occ. eigenvalues --   -0.43151  -0.42953  -0.42690  -0.42195  -0.42097
 Alpha  occ. eigenvalues --   -0.41747  -0.41704  -0.41410  -0.41253  -0.41219
 Alpha  occ. eigenvalues --   -0.41151  -0.40933  -0.40737  -0.40412  -0.40327
 Alpha  occ. eigenvalues --   -0.40070  -0.39665  -0.39577  -0.39470  -0.39307
 Alpha  occ. eigenvalues --   -0.39300  -0.39043  -0.38985  -0.38660  -0.38632
 Alpha  occ. eigenvalues --   -0.38505  -0.38415  -0.38229  -0.37766  -0.37586
 Alpha  occ. eigenvalues --   -0.37496  -0.37386  -0.37370  -0.37102  -0.36805
 Alpha  occ. eigenvalues --   -0.36684  -0.36529  -0.36423  -0.36105  -0.35733
 Alpha  occ. eigenvalues --   -0.35622  -0.35560  -0.35135  -0.34897  -0.34814
 Alpha  occ. eigenvalues --   -0.34684  -0.34416  -0.34200  -0.33990  -0.33601
 Alpha  occ. eigenvalues --   -0.33531  -0.32662  -0.32523  -0.32314  -0.32068
 Alpha  occ. eigenvalues --   -0.31817  -0.31733  -0.31492  -0.31360  -0.31268
 Alpha  occ. eigenvalues --   -0.30697  -0.30484  -0.29913  -0.29522  -0.29356
 Alpha  occ. eigenvalues --   -0.28885  -0.28735  -0.28397  -0.26664  -0.26282
 Alpha  occ. eigenvalues --   -0.25738  -0.25200  -0.24758  -0.24320  -0.20698
 Alpha  occ. eigenvalues --   -0.18400
 Alpha virt. eigenvalues --   -0.10614  -0.05358  -0.04050  -0.01987  -0.00882
 Alpha virt. eigenvalues --   -0.00675  -0.00003   0.01419   0.01730   0.03149
 Alpha virt. eigenvalues --    0.04351   0.04685   0.05491   0.05742   0.05859

 Mulliken charges:
               1
     1  Mg   0.947722
     2  C   -0.049015
     3  C   -0.085763
     4  C   -0.053671
     5  C   -0.077530
     6  N   -0.353112
     7  C    0.098117
     8  C   -0.143828
     9  C   -0.099111
    10  C    0.015218
    11  C    0.043059
    12  C   -0.008005
    13  C   -0.048423
    14  C    0.255144
    15  O   -0.271674
    16  O   -0.385818
    17  N   -0.464439
    18  C    0.201049
    19  C   -0.172406
    20  C   -0.077248
    21  C    0.121421
    22  C    0.043682
    23  C    0.068509
    24  O   -0.257736
    25  C   -0.016410
    26  N   -0.386851
    27  C    0.044752
    28  C   -0.088918
    29  C   -0.082852
    30  C    0.080855
    31  C    0.037434
    32  C   -0.050053
    33  C   -0.058110
    34  N   -0.476104
    35  C    0.149219
    36  C   -0.211945
    37  C   -0.015897
    38  C    0.178588
    39  C    0.055532
    40  C    0.128590
    41  O   -0.210126
    42  C   -0.117849
    43  C    0.304685
    44  O   -0.230715
    45  O   -0.376877
    46  C    0.114541
    47  C    0.229783
    48  C   -0.126952
    49  C   -0.224293
    50  C   -0.010975
    51  C    0.023355
    52  C   -0.057050
    53  C    0.011285
    54  C   -0.219586
    55  C   -0.011476
    56  C   -0.002297
    57  C   -0.022034
    58  C   -0.010602
    59  C   -0.204374
    60  C    0.020437
    61  C   -0.031379
    62  C   -0.044950
    63  C   -0.034141
    64  C   -0.222949
    65  C   -0.001304
    66  C   -0.038243
    67  H   -0.005316
    68  H    0.031394
    69  H   -0.002326
    70  H    0.056531
    71  H    0.025112
    72  H    0.032773
    73  H    0.060943
    74  H    0.054090
    75  H    0.032875
    76  H    0.031989
    77  H    0.076706
    78  H    0.093959
    79  H    0.048339
    80  H    0.046552
    81  H    0.046994
    82  H    0.044359
    83  H    0.080008
    84  H    0.054932
    85  H    0.049485
    86  H    0.046735
    87  H    0.022442
    88  H    0.050509
    89  H    0.054439
    90  H    0.032511
    91  H    0.031687
    92  H    0.050114
    93  H    0.044105
    94  H    0.051084
    95  H    0.061633
    96  H    0.058616
    97  H    0.044141
    98  H    0.084586
    99  H    0.046092
   100  H    0.066925
   101  H    0.068827
   102  H    0.054535
   103  H    0.072275
   104  H    0.033579
   105  H    0.042463
   106  H    0.056332
   107  H    0.036650
   108  H    0.040208
   109  H    0.031979
   110  H    0.031845
   111  H    0.046107
   112  H    0.035524
   113  H    0.030262
   114  H    0.032043
   115  H    0.029704
   116  H    0.039832
   117  H    0.024185
   118  H    0.023141
   119  H    0.016032
   120  H    0.029467
   121  H    0.024294
   122  H    0.018711
   123  H    0.028497
   124  H    0.031673
   125  H    0.014638
   126  H    0.023888
   127  H    0.036812
   128  H    0.017971
   129  H    0.027117
   130  H    0.024514
   131  H    0.031560
   132  H    0.028166
   133  H    0.043039
   134  H    0.038416
   135  H    0.023287
   136  H    0.025678
   137  H    0.055269
   138  H    0.027556
   139  H    0.025338
   140  H    0.033679
 Sum of Mulliken charges =  -0.00000

 Dipole moment (field-independent basis, Debye):
    X=             -4.7721    Y=              1.1043    Z=              2.2333  Tot=              5.3833
 Quadrupole moment (field-independent basis, Debye-Ang):
   XX=           -385.9107   YY=           -416.9424   ZZ=           -403.4047
   XY=             34.2141   XZ=             19.6583   YZ=             -0.8018

 Normal termination of Gaussian 16 at Fri Apr 29 10:47:09 2022.
