 Gaussian 16, Revision A.03,
 Gaussian 16:  ES64L-G16RevA.03 25-Dec-2016

 --------------------------------
 #p wB97XD/Def2SVP td=(nstates=5)
 --------------------------------

 ----------------------------------------------------
 step_251_chromophore_21 TDDFT with wB97XD functional
 ----------------------------------------------------
 Symbolic Z-matrix:
 Charge =  0 Multiplicity = 1

                         Standard orientation:
 ---------------------------------------------------------------------
 Center     Atomic      Atomic             Coordinates (Angstroms)
 Number     Number       Type             X           Y           Z
 ---------------------------------------------------------------------
      1         12           0        5.088504    1.204401    0.137329
      2          6           0        4.617890   -2.299571    0.302369
      3          6           0        1.855836    1.498391   -0.786081
      4          6           0        5.619048    4.423757   -0.132073
      5          6           0        8.611216    0.577299    0.392465
      6          7           0        3.398096   -0.258367   -0.317342
      7          6           0        3.422186   -1.584459    0.080996
      8          6           0        2.013412   -2.070429    0.049345
      9          6           0        1.269005   -1.052160   -0.814833
     10          6           0        2.190151    0.180859   -0.638043
     11          6           0        1.237051   -1.509185   -2.321423
     12          6           0        1.282489   -2.285857    1.481800
     13          6           0        0.393383   -3.541750    1.734942
     14          6           0       -0.680550   -3.868571    0.657299
     15          8           0       -0.685117   -3.707614   -0.565260
     16          8           0       -1.789175   -4.440654    1.255111
     17          7           0        3.855349    2.745392   -0.411966
     18          6           0        2.596734    2.651479   -0.725251
     19          6           0        2.107152    3.995786   -1.076588
     20          6           0        3.118373    4.927841   -0.692594
     21          6           0        4.285136    4.044147   -0.410819
     22          6           0        0.725509    4.405298   -1.704895
     23          6           0        3.110833    6.452899   -0.592559
     24          8           0        4.118614    7.144828   -0.352207
     25          6           0        1.909663    7.165616   -0.999601
     26          7           0        6.954033    2.320343   -0.036193
     27          6           0        6.870426    3.710205   -0.027645
     28          6           0        8.308674    4.306288    0.226084
     29          6           0        9.166994    3.050780    0.520297
     30          6           0        8.184013    1.894718    0.322381
     31          6           0        8.779101    5.230823   -0.897084
     32          6           0        9.942549    3.051312    1.861691
     33          6           0       11.374724    2.467695    1.866143
     34          7           0        6.393370   -0.472063    0.295831
     35          6           0        7.779527   -0.583731    0.338201
     36          6           0        8.120411   -1.957481    0.607588
     37          6           0        6.920056   -2.666688    0.543419
     38          6           0        5.862123   -1.733409    0.363440
     39          6           0        9.393757   -2.473043    0.895786
     40          6           0        6.290193   -3.988060    0.682147
     41          8           0        6.735523   -5.096884    0.932288
     42          6           0        4.745352   -3.783141    0.552316
     43          6           0        4.265513   -4.675690   -0.578326
     44          8           0        4.226759   -4.546944   -1.781043
     45          8           0        3.733571   -5.729693    0.106712
     46          6           0        2.855484   -6.663647   -0.637718
     47          6           0       -2.846406   -5.080624    0.431395
     48          6           0       -4.138313   -4.312391    0.645169
     49          6           0       -5.401460   -4.624696    0.198659
     50          6           0       -5.581545   -5.764928   -0.803972
     51          6           0       -6.509784   -3.629662    0.232087
     52          6           0       -6.267205   -2.534058   -0.921491
     53          6           0       -6.403050   -0.943729   -0.527936
     54          6           0       -7.602595   -0.273598   -1.303907
     55          6           0       -7.302024    1.212300   -1.669345
     56          6           0       -9.000243   -0.392688   -0.681094
     57          6           0      -10.177135   -0.378574   -1.610883
     58          6           0      -10.825077    1.063121   -1.677321
     59          6           0      -12.325623    1.023889   -1.408388
     60          6           0      -13.210885    0.739475   -2.574020
     61          6           0      -12.741375    2.278542   -0.638639
     62          6           0      -12.526036    2.147942    0.884379
     63          6           0      -13.912585    2.442473    1.563450
     64          6           0      -13.982994    3.431256    2.765558
     65          6           0      -12.987385    3.138157    3.871047
     66          6           0      -15.410456    3.350875    3.429574
     67          1           0        0.791244    1.617915   -0.999575
     68          1           0        5.708772    5.506969   -0.027543
     69          1           0        9.643628    0.390842    0.693948
     70          1           0        1.854925   -3.048189   -0.406274
     71          1           0        0.312343   -0.755225   -0.385724
     72          1           0        0.340646   -1.199993   -2.857912
     73          1           0        1.192350   -2.591885   -2.441692
     74          1           0        2.090902   -1.012834   -2.781319
     75          1           0        0.751216   -1.374658    1.754711
     76          1           0        2.033348   -2.313450    2.272326
     77          1           0       -0.169916   -3.246785    2.621006
     78          1           0        1.146212   -4.318798    1.867620
     79          1           0        0.056640    4.955843   -1.043759
     80          1           0        0.237301    3.483229   -2.021645
     81          1           0        0.782540    5.115374   -2.529947
     82          1           0        1.036617    6.798117   -0.459664
     83          1           0        1.744209    7.064778   -2.072316
     84          1           0        2.009182    8.185443   -0.629206
     85          1           0        8.250587    4.827255    1.181880
     86          1           0        9.850846    2.852671   -0.304824
     87          1           0        9.299062    4.638856   -1.651009
     88          1           0        9.519380    5.971007   -0.595093
     89          1           0        7.911380    5.574418   -1.459238
     90          1           0        9.390642    2.614747    2.693959
     91          1           0       10.043010    4.064765    2.252494
     92          1           0       11.243800    1.449243    2.232104
     93          1           0       11.901747    3.036366    2.632951
     94          1           0       11.799469    2.505274    0.863383
     95          1           0        9.606664   -3.528131    0.725341
     96          1           0        9.616913   -2.194085    1.926066
     97          1           0       10.071895   -1.954675    0.218870
     98          1           0        4.255030   -4.037680    1.491760
     99          1           0        2.016206   -6.843486    0.033511
    100          1           0        3.285326   -7.633150   -0.888234
    101          1           0        2.481871   -6.182503   -1.541226
    102          1           0       -2.965237   -6.040660    0.934998
    103          1           0       -2.522389   -5.340516   -0.576470
    104          1           0       -3.987890   -3.462469    1.311184
    105          1           0       -6.284646   -5.568682   -1.614097
    106          1           0       -5.971960   -6.637896   -0.281740
    107          1           0       -4.626375   -5.989112   -1.279331
    108          1           0       -6.558373   -3.211829    1.237111
    109          1           0       -7.415799   -4.217761    0.082331
    110          1           0       -6.878049   -2.859585   -1.762782
    111          1           0       -5.274792   -2.631266   -1.361409
    112          1           0       -5.427946   -0.488985   -0.704734
    113          1           0       -6.577977   -0.850007    0.544372
    114          1           0       -7.680993   -0.790063   -2.260563
    115          1           0       -7.876858    1.897821   -1.048501
    116          1           0       -7.492519    1.409515   -2.724001
    117          1           0       -6.256746    1.452807   -1.475686
    118          1           0       -9.047746    0.417665    0.046146
    119          1           0       -9.063858   -1.261149   -0.025017
    120          1           0      -10.917961   -1.143036   -1.376767
    121          1           0       -9.921330   -0.593966   -2.647610
    122          1           0      -10.612589    1.381765   -2.697386
    123          1           0      -10.314602    1.846735   -1.117064
    124          1           0      -12.520239    0.172654   -0.755624
    125          1           0      -13.698617   -0.211192   -2.360518
    126          1           0      -12.641676    0.515159   -3.475823
    127          1           0      -14.070624    1.385828   -2.755319
    128          1           0      -13.787821    2.506792   -0.840717
    129          1           0      -12.187096    3.186233   -0.877803
    130          1           0      -11.673631    2.785077    1.119746
    131          1           0      -12.129231    1.144839    1.037972
    132          1           0      -14.031465    1.472500    2.048418
    133          1           0      -14.776674    2.499984    0.901676
    134          1           0      -13.844473    4.473679    2.475286
    135          1           0      -12.194611    3.835234    3.601623
    136          1           0      -12.464908    2.216050    3.617284
    137          1           0      -13.319208    3.150829    4.909659
    138          1           0      -16.113371    2.819211    2.788494
    139          1           0      -15.778734    4.371460    3.530714
    140          1           0      -15.533787    3.006071    4.456164
 ---------------------------------------------------------------------

 SCF Done:  E(RwB97XD) =  -3007.83323029     A.U. after   19 cycles

 Excitation energies and oscillator strengths:

 Excited State   1:      Singlet-A      1.6701 eV  742.40 nm  f=0.3742  <S**2>=0.000
     245 -> 248        0.19529
     246 -> 247        0.67949
     245 <- 248        0.11692
 This state for optimization and/or second-order correction.
 Total Energy, E(TD-HF/TD-DFT) =  -3007.77185692
 Copying the excited state density for this state as the 1-particle RhoCI density.

 Excited State   2:      Singlet-A      2.2054 eV  562.20 nm  f=0.0719  <S**2>=0.000
     245 -> 247        0.62104
     246 -> 248       -0.32158

 Excited State   3:      Singlet-A      3.4077 eV  363.84 nm  f=0.1756  <S**2>=0.000
     243 -> 247        0.55567
     245 -> 247        0.15045
     246 -> 248        0.38059

 Excited State   4:      Singlet-A      3.5225 eV  351.97 nm  f=0.5277  <S**2>=0.000
     241 -> 247        0.23635
     243 -> 247       -0.37944
     245 -> 247        0.25892
     246 -> 248        0.46197

 Excited State   5:      Singlet-A      3.5864 eV  345.70 nm  f=0.0055  <S**2>=0.000
     242 -> 247        0.54881
     242 -> 249        0.28623
     242 -> 250       -0.29208

 The electronic state is 1-A.
 Alpha  occ. eigenvalues --  -46.95487 -19.30179 -19.29500 -19.25694 -19.24779
 Alpha  occ. eigenvalues --  -19.24158 -19.23562 -14.46170 -14.45724 -14.44221
 Alpha  occ. eigenvalues --  -14.43348 -10.44562 -10.42913 -10.39349 -10.38670
 Alpha  occ. eigenvalues --  -10.36627 -10.35596 -10.35110 -10.34639 -10.34568
 Alpha  occ. eigenvalues --  -10.34124 -10.33789 -10.33689 -10.33476 -10.33342
 Alpha  occ. eigenvalues --  -10.33273 -10.31987 -10.31824 -10.31775 -10.31742
 Alpha  occ. eigenvalues --  -10.31660 -10.31469 -10.31361 -10.31235 -10.31224
 Alpha  occ. eigenvalues --  -10.31190 -10.31043 -10.30953 -10.30575 -10.30368
 Alpha  occ. eigenvalues --  -10.30325 -10.30299 -10.30241 -10.30170 -10.30147
 Alpha  occ. eigenvalues --  -10.29998 -10.29965 -10.29943 -10.29821 -10.29794
 Alpha  occ. eigenvalues --  -10.29513 -10.29331 -10.29106 -10.28971 -10.28932
 Alpha  occ. eigenvalues --  -10.28780 -10.28749 -10.28637 -10.28574 -10.28533
 Alpha  occ. eigenvalues --  -10.28419 -10.28370 -10.27890 -10.27817 -10.27788
 Alpha  occ. eigenvalues --  -10.27784  -3.21333  -1.94917  -1.94454  -1.94291
 Alpha  occ. eigenvalues --   -1.18272  -1.18141  -1.11665  -1.11438  -1.09805
 Alpha  occ. eigenvalues --   -1.09534  -1.06971  -1.05657  -1.04845  -1.03883
 Alpha  occ. eigenvalues --   -0.94549  -0.92257  -0.91914  -0.90842  -0.90518
 Alpha  occ. eigenvalues --   -0.90415  -0.89877  -0.89360  -0.89282  -0.88957
 Alpha  occ. eigenvalues --   -0.88601  -0.87175  -0.85774  -0.85383  -0.85308
 Alpha  occ. eigenvalues --   -0.84406  -0.84263  -0.83459  -0.83065  -0.82429
 Alpha  occ. eigenvalues --   -0.81454  -0.80167  -0.79267  -0.79190  -0.77765
 Alpha  occ. eigenvalues --   -0.77639  -0.77192  -0.77044  -0.77004  -0.75966
 Alpha  occ. eigenvalues --   -0.75242  -0.74248  -0.73482  -0.72209  -0.70723
 Alpha  occ. eigenvalues --   -0.70564  -0.70272  -0.69451  -0.69258  -0.68015
 Alpha  occ. eigenvalues --   -0.67266  -0.67067  -0.67033  -0.66184  -0.65620
 Alpha  occ. eigenvalues --   -0.65428  -0.65052  -0.64523  -0.63781  -0.62311
 Alpha  occ. eigenvalues --   -0.62223  -0.61461  -0.61112  -0.60168  -0.59747
 Alpha  occ. eigenvalues --   -0.59383  -0.58759  -0.58144  -0.57850  -0.57314
 Alpha  occ. eigenvalues --   -0.56910  -0.56540  -0.56242  -0.55722  -0.55449
 Alpha  occ. eigenvalues --   -0.55396  -0.55237  -0.55019  -0.54995  -0.54556
 Alpha  occ. eigenvalues --   -0.54547  -0.54133  -0.54025  -0.53617  -0.53455
 Alpha  occ. eigenvalues --   -0.53388  -0.53332  -0.53142  -0.52973  -0.52593
 Alpha  occ. eigenvalues --   -0.52395  -0.52317  -0.52176  -0.51744  -0.51673
 Alpha  occ. eigenvalues --   -0.51387  -0.51285  -0.51071  -0.50812  -0.50764
 Alpha  occ. eigenvalues --   -0.50450  -0.50214  -0.49913  -0.49421  -0.49394
 Alpha  occ. eigenvalues --   -0.48977  -0.48923  -0.48754  -0.48522  -0.48486
 Alpha  occ. eigenvalues --   -0.48361  -0.48168  -0.47873  -0.47623  -0.47512
 Alpha  occ. eigenvalues --   -0.47215  -0.46867  -0.46744  -0.46695  -0.46479
 Alpha  occ. eigenvalues --   -0.46418  -0.46208  -0.46121  -0.45851  -0.45822
 Alpha  occ. eigenvalues --   -0.45627  -0.45580  -0.45464  -0.44872  -0.44659
 Alpha  occ. eigenvalues --   -0.44638  -0.44582  -0.44462  -0.44214  -0.43863
 Alpha  occ. eigenvalues --   -0.43840  -0.43598  -0.43585  -0.43184  -0.42779
 Alpha  occ. eigenvalues --   -0.42673  -0.42635  -0.42162  -0.41966  -0.41887
 Alpha  occ. eigenvalues --   -0.41697  -0.41312  -0.41279  -0.40947  -0.40717
 Alpha  occ. eigenvalues --   -0.40496  -0.39687  -0.39552  -0.39249  -0.39118
 Alpha  occ. eigenvalues --   -0.38855  -0.38771  -0.38499  -0.38348  -0.38318
 Alpha  occ. eigenvalues --   -0.37593  -0.37533  -0.36859  -0.36561  -0.36425
 Alpha  occ. eigenvalues --   -0.35669  -0.35633  -0.35105  -0.33527  -0.33119
 Alpha  occ. eigenvalues --   -0.32537  -0.32270  -0.31221  -0.31023  -0.25677
 Alpha  occ. eigenvalues --   -0.22546
 Alpha virt. eigenvalues --   -0.06421   0.00074   0.02125   0.04449   0.05173
 Alpha virt. eigenvalues --    0.06080   0.06674   0.08228   0.08459   0.09898
 Alpha virt. eigenvalues --    0.10710   0.11295   0.12323   0.12505   0.12643

 Mulliken charges:
               1
     1  Mg   0.940914
     2  C   -0.052050
     3  C   -0.101990
     4  C   -0.068395
     5  C   -0.091291
     6  N   -0.320435
     7  C    0.057630
     8  C   -0.107776
     9  C   -0.068561
    10  C   -0.007105
    11  C    0.050304
    12  C   -0.004035
    13  C   -0.026977
    14  C    0.241047
    15  O   -0.267840
    16  O   -0.384788
    17  N   -0.428097
    18  C    0.195482
    19  C   -0.167022
    20  C   -0.071457
    21  C    0.114108
    22  C    0.058332
    23  C    0.066760
    24  O   -0.251103
    25  C   -0.003991
    26  N   -0.356246
    27  C    0.033299
    28  C   -0.062090
    29  C   -0.056286
    30  C    0.068292
    31  C    0.048453
    32  C   -0.038743
    33  C   -0.040826
    34  N   -0.439159
    35  C    0.135005
    36  C   -0.197483
    37  C   -0.015651
    38  C    0.166016
    39  C    0.061408
    40  C    0.109045
    41  O   -0.200736
    42  C   -0.077334
    43  C    0.281108
    44  O   -0.224176
    45  O   -0.376359
    46  C    0.130983
    47  C    0.240708
    48  C   -0.138324
    49  C   -0.203974
    50  C    0.000587
    51  C    0.039546
    52  C   -0.042905
    53  C    0.024543
    54  C   -0.188129
    55  C    0.000277
    56  C    0.016916
    57  C   -0.008921
    58  C    0.002310
    59  C   -0.165339
    60  C    0.027682
    61  C   -0.012887
    62  C   -0.035540
    63  C   -0.010280
    64  C   -0.195679
    65  C    0.010184
    66  C   -0.027242
    67  H   -0.012095
    68  H    0.025664
    69  H   -0.013488
    70  H    0.034077
    71  H    0.015620
    72  H    0.027598
    73  H    0.057016
    74  H    0.047722
    75  H    0.024387
    76  H    0.023864
    77  H    0.071884
    78  H    0.088974
    79  H    0.042991
    80  H    0.042080
    81  H    0.041251
    82  H    0.037453
    83  H    0.075157
    84  H    0.054127
    85  H    0.038773
    86  H    0.033124
    87  H    0.015860
    88  H    0.046253
    89  H    0.047906
    90  H    0.025042
    91  H    0.022540
    92  H    0.043169
    93  H    0.039446
    94  H    0.045330
    95  H    0.059478
    96  H    0.053518
    97  H    0.037691
    98  H    0.077873
    99  H    0.041880
   100  H    0.063255
   101  H    0.064755
   102  H    0.049302
   103  H    0.068880
   104  H    0.030049
   105  H    0.037623
   106  H    0.051013
   107  H    0.029838
   108  H    0.032752
   109  H    0.024420
   110  H    0.023462
   111  H    0.036708
   112  H    0.028960
   113  H    0.021311
   114  H    0.016110
   115  H    0.022041
   116  H    0.034885
   117  H    0.018305
   118  H    0.010100
   119  H    0.007598
   120  H    0.022288
   121  H    0.016267
   122  H    0.009758
   123  H    0.015067
   124  H    0.014912
   125  H    0.009010
   126  H    0.017941
   127  H    0.032257
   128  H    0.005888
   129  H    0.018621
   130  H    0.017176
   131  H    0.020788
   132  H    0.016146
   133  H    0.034466
   134  H    0.028727
   135  H    0.016579
   136  H    0.017246
   137  H    0.051139
   138  H    0.021230
   139  H    0.019326
   140  H    0.027923
 Sum of Mulliken charges =  -0.00000

 Dipole moment (field-independent basis, Debye):
    X=             -4.9826    Y=              1.3038    Z=              2.2172  Tot=              5.6073
 Quadrupole moment (field-independent basis, Debye-Ang):
   XX=           -388.0973   YY=           -414.8122   ZZ=           -403.0931
   XY=             33.9293   XZ=             19.5885   YZ=             -1.1261

 Normal termination of Gaussian 16 at Fri Apr 29 11:15:20 2022.
