 Gaussian 16, Revision A.03,
 Gaussian 16:  ES64L-G16RevA.03 25-Dec-2016

 --------------------
 #p ZINDO=(nstates=5)
 --------------------

 -----------------------------
 step_251_chromophore_21 ZINDO
 -----------------------------
 Symbolic Z-matrix:
 Charge =  0 Multiplicity = 1

                         Standard orientation:
 ---------------------------------------------------------------------
 Center     Atomic      Atomic             Coordinates (Angstroms)
 Number     Number       Type             X           Y           Z
 ---------------------------------------------------------------------
      1         12           0        5.088504    1.204401    0.137329
      2          6           0        4.617890   -2.299571    0.302369
      3          6           0        1.855836    1.498391   -0.786081
      4          6           0        5.619048    4.423757   -0.132073
      5          6           0        8.611216    0.577299    0.392465
      6          7           0        3.398096   -0.258367   -0.317342
      7          6           0        3.422186   -1.584459    0.080996
      8          6           0        2.013412   -2.070429    0.049345
      9          6           0        1.269005   -1.052160   -0.814833
     10          6           0        2.190151    0.180859   -0.638043
     11          6           0        1.237051   -1.509185   -2.321423
     12          6           0        1.282489   -2.285857    1.481800
     13          6           0        0.393383   -3.541750    1.734942
     14          6           0       -0.680550   -3.868571    0.657299
     15          8           0       -0.685117   -3.707614   -0.565260
     16          8           0       -1.789175   -4.440654    1.255111
     17          7           0        3.855349    2.745392   -0.411966
     18          6           0        2.596734    2.651479   -0.725251
     19          6           0        2.107152    3.995786   -1.076588
     20          6           0        3.118373    4.927841   -0.692594
     21          6           0        4.285136    4.044147   -0.410819
     22          6           0        0.725509    4.405298   -1.704895
     23          6           0        3.110833    6.452899   -0.592559
     24          8           0        4.118614    7.144828   -0.352207
     25          6           0        1.909663    7.165616   -0.999601
     26          7           0        6.954033    2.320343   -0.036193
     27          6           0        6.870426    3.710205   -0.027645
     28          6           0        8.308674    4.306288    0.226084
     29          6           0        9.166994    3.050780    0.520297
     30          6           0        8.184013    1.894718    0.322381
     31          6           0        8.779101    5.230823   -0.897084
     32          6           0        9.942549    3.051312    1.861691
     33          6           0       11.374724    2.467695    1.866143
     34          7           0        6.393370   -0.472063    0.295831
     35          6           0        7.779527   -0.583731    0.338201
     36          6           0        8.120411   -1.957481    0.607588
     37          6           0        6.920056   -2.666688    0.543419
     38          6           0        5.862123   -1.733409    0.363440
     39          6           0        9.393757   -2.473043    0.895786
     40          6           0        6.290193   -3.988060    0.682147
     41          8           0        6.735523   -5.096884    0.932288
     42          6           0        4.745352   -3.783141    0.552316
     43          6           0        4.265513   -4.675690   -0.578326
     44          8           0        4.226759   -4.546944   -1.781043
     45          8           0        3.733571   -5.729693    0.106712
     46          6           0        2.855484   -6.663647   -0.637718
     47          6           0       -2.846406   -5.080624    0.431395
     48          6           0       -4.138313   -4.312391    0.645169
     49          6           0       -5.401460   -4.624696    0.198659
     50          6           0       -5.581545   -5.764928   -0.803972
     51          6           0       -6.509784   -3.629662    0.232087
     52          6           0       -6.267205   -2.534058   -0.921491
     53          6           0       -6.403050   -0.943729   -0.527936
     54          6           0       -7.602595   -0.273598   -1.303907
     55          6           0       -7.302024    1.212300   -1.669345
     56          6           0       -9.000243   -0.392688   -0.681094
     57          6           0      -10.177135   -0.378574   -1.610883
     58          6           0      -10.825077    1.063121   -1.677321
     59          6           0      -12.325623    1.023889   -1.408388
     60          6           0      -13.210885    0.739475   -2.574020
     61          6           0      -12.741375    2.278542   -0.638639
     62          6           0      -12.526036    2.147942    0.884379
     63          6           0      -13.912585    2.442473    1.563450
     64          6           0      -13.982994    3.431256    2.765558
     65          6           0      -12.987385    3.138157    3.871047
     66          6           0      -15.410456    3.350875    3.429574
     67          1           0        0.791244    1.617915   -0.999575
     68          1           0        5.708772    5.506969   -0.027543
     69          1           0        9.643628    0.390842    0.693948
     70          1           0        1.854925   -3.048189   -0.406274
     71          1           0        0.312343   -0.755225   -0.385724
     72          1           0        0.340646   -1.199993   -2.857912
     73          1           0        1.192350   -2.591885   -2.441692
     74          1           0        2.090902   -1.012834   -2.781319
     75          1           0        0.751216   -1.374658    1.754711
     76          1           0        2.033348   -2.313450    2.272326
     77          1           0       -0.169916   -3.246785    2.621006
     78          1           0        1.146212   -4.318798    1.867620
     79          1           0        0.056640    4.955843   -1.043759
     80          1           0        0.237301    3.483229   -2.021645
     81          1           0        0.782540    5.115374   -2.529947
     82          1           0        1.036617    6.798117   -0.459664
     83          1           0        1.744209    7.064778   -2.072316
     84          1           0        2.009182    8.185443   -0.629206
     85          1           0        8.250587    4.827255    1.181880
     86          1           0        9.850846    2.852671   -0.304824
     87          1           0        9.299062    4.638856   -1.651009
     88          1           0        9.519380    5.971007   -0.595093
     89          1           0        7.911380    5.574418   -1.459238
     90          1           0        9.390642    2.614747    2.693959
     91          1           0       10.043010    4.064765    2.252494
     92          1           0       11.243800    1.449243    2.232104
     93          1           0       11.901747    3.036366    2.632951
     94          1           0       11.799469    2.505274    0.863383
     95          1           0        9.606664   -3.528131    0.725341
     96          1           0        9.616913   -2.194085    1.926066
     97          1           0       10.071895   -1.954675    0.218870
     98          1           0        4.255030   -4.037680    1.491760
     99          1           0        2.016206   -6.843486    0.033511
    100          1           0        3.285326   -7.633150   -0.888234
    101          1           0        2.481871   -6.182503   -1.541226
    102          1           0       -2.965237   -6.040660    0.934998
    103          1           0       -2.522389   -5.340516   -0.576470
    104          1           0       -3.987890   -3.462469    1.311184
    105          1           0       -6.284646   -5.568682   -1.614097
    106          1           0       -5.971960   -6.637896   -0.281740
    107          1           0       -4.626375   -5.989112   -1.279331
    108          1           0       -6.558373   -3.211829    1.237111
    109          1           0       -7.415799   -4.217761    0.082331
    110          1           0       -6.878049   -2.859585   -1.762782
    111          1           0       -5.274792   -2.631266   -1.361409
    112          1           0       -5.427946   -0.488985   -0.704734
    113          1           0       -6.577977   -0.850007    0.544372
    114          1           0       -7.680993   -0.790063   -2.260563
    115          1           0       -7.876858    1.897821   -1.048501
    116          1           0       -7.492519    1.409515   -2.724001
    117          1           0       -6.256746    1.452807   -1.475686
    118          1           0       -9.047746    0.417665    0.046146
    119          1           0       -9.063858   -1.261149   -0.025017
    120          1           0      -10.917961   -1.143036   -1.376767
    121          1           0       -9.921330   -0.593966   -2.647610
    122          1           0      -10.612589    1.381765   -2.697386
    123          1           0      -10.314602    1.846735   -1.117064
    124          1           0      -12.520239    0.172654   -0.755624
    125          1           0      -13.698617   -0.211192   -2.360518
    126          1           0      -12.641676    0.515159   -3.475823
    127          1           0      -14.070624    1.385828   -2.755319
    128          1           0      -13.787821    2.506792   -0.840717
    129          1           0      -12.187096    3.186233   -0.877803
    130          1           0      -11.673631    2.785077    1.119746
    131          1           0      -12.129231    1.144839    1.037972
    132          1           0      -14.031465    1.472500    2.048418
    133          1           0      -14.776674    2.499984    0.901676
    134          1           0      -13.844473    4.473679    2.475286
    135          1           0      -12.194611    3.835234    3.601623
    136          1           0      -12.464908    2.216050    3.617284
    137          1           0      -13.319208    3.150829    4.909659
    138          1           0      -16.113371    2.819211    2.788494
    139          1           0      -15.778734    4.371460    3.530714
    140          1           0      -15.533787    3.006071    4.456164
 ---------------------------------------------------------------------

 SCF Done:  E(RZINDO/S) =  -474.260567468     A.U. after   20 cycles

 Excitation energies and oscillator strengths:

 Excited State   1:      Singlet-A      1.2745 eV  972.81 nm  f=0.5919  <S**2>=0.000
     175 ->178         0.19911
     176 ->177         0.66038
 This state for optimization and/or second-order correction.
 Total Energy, E(CIS/TDA) =  -474.213730835
 Copying the excited state density for this state as the 1-particle RhoCI density.

 Excited State   2:      Singlet-A      1.9121 eV  648.42 nm  f=0.0144  <S**2>=0.000
     175 ->177         0.52035
     176 ->178        -0.45312

 Excited State   3:      Singlet-A      2.8836 eV  429.96 nm  f=0.0181  <S**2>=0.000
     167 ->179         0.14195
     168 ->177        -0.16500
     168 ->178         0.11501
     168 ->179         0.26687
     168 ->180        -0.14022
     168 ->186         0.13195
     176 ->178         0.12001
     176 ->179         0.44333

 Excited State   4:      Singlet-A      2.9330 eV  422.72 nm  f=0.0444  <S**2>=0.000
     167 ->179        -0.12820
     168 ->177         0.16003
     168 ->178        -0.10345
     168 ->179        -0.24158
     168 ->180         0.13500
     168 ->186        -0.11638
     176 ->179         0.49199
     176 ->182         0.12715

 Excited State   5:      Singlet-A      2.9911 eV  414.51 nm  f=1.0299  <S**2>=0.000
     168 ->179        -0.10803
     175 ->177         0.39415
     176 ->178         0.48195
     176 ->180        -0.13149

 The electronic state is 1-A.
 Alpha  occ. eigenvalues --   -1.84137  -1.82492  -1.79556  -1.72869  -1.71581
 Alpha  occ. eigenvalues --   -1.70484  -1.66422  -1.59433  -1.59281  -1.57864
 Alpha  occ. eigenvalues --   -1.55193  -1.51994  -1.48166  -1.48019  -1.46460
 Alpha  occ. eigenvalues --   -1.44176  -1.41510  -1.39363  -1.37973  -1.37820
 Alpha  occ. eigenvalues --   -1.36045  -1.34838  -1.33638  -1.31750  -1.28591
 Alpha  occ. eigenvalues --   -1.26752  -1.24313  -1.21608  -1.20307  -1.18282
 Alpha  occ. eigenvalues --   -1.17327  -1.15992  -1.14985  -1.14377  -1.13413
 Alpha  occ. eigenvalues --   -1.12607  -1.11337  -1.10795  -1.04825  -1.03385
 Alpha  occ. eigenvalues --   -1.02658  -1.00847  -0.98474  -0.97551  -0.96612
 Alpha  occ. eigenvalues --   -0.96584  -0.95272  -0.93698  -0.92360  -0.92182
 Alpha  occ. eigenvalues --   -0.91901  -0.91016  -0.89889  -0.88178  -0.87971
 Alpha  occ. eigenvalues --   -0.86041  -0.84106  -0.83668  -0.82258  -0.80034
 Alpha  occ. eigenvalues --   -0.79846  -0.79065  -0.76844  -0.76363  -0.76106
 Alpha  occ. eigenvalues --   -0.75459  -0.74659  -0.74627  -0.73226  -0.72375
 Alpha  occ. eigenvalues --   -0.72052  -0.71669  -0.71423  -0.71150  -0.70813
 Alpha  occ. eigenvalues --   -0.70668  -0.69729  -0.68720  -0.68128  -0.67683
 Alpha  occ. eigenvalues --   -0.67249  -0.66986  -0.66862  -0.66776  -0.65668
 Alpha  occ. eigenvalues --   -0.65474  -0.65272  -0.64666  -0.64413  -0.63599
 Alpha  occ. eigenvalues --   -0.63411  -0.63211  -0.62965  -0.62603  -0.61597
 Alpha  occ. eigenvalues --   -0.61007  -0.60644  -0.60224  -0.60118  -0.59381
 Alpha  occ. eigenvalues --   -0.59090  -0.58996  -0.58696  -0.58308  -0.57907
 Alpha  occ. eigenvalues --   -0.57638  -0.57593  -0.56941  -0.56734  -0.56670
 Alpha  occ. eigenvalues --   -0.56551  -0.55961  -0.55497  -0.54859  -0.54828
 Alpha  occ. eigenvalues --   -0.54390  -0.53937  -0.53659  -0.53038  -0.52849
 Alpha  occ. eigenvalues --   -0.52492  -0.51610  -0.51384  -0.51336  -0.51144
 Alpha  occ. eigenvalues --   -0.51039  -0.50847  -0.50724  -0.50282  -0.50140
 Alpha  occ. eigenvalues --   -0.49978  -0.49598  -0.49402  -0.49200  -0.49052
 Alpha  occ. eigenvalues --   -0.48708  -0.48432  -0.48369  -0.47457  -0.47256
 Alpha  occ. eigenvalues --   -0.46845  -0.46774  -0.46711  -0.46471  -0.45954
 Alpha  occ. eigenvalues --   -0.45684  -0.45475  -0.45394  -0.45153  -0.45103
 Alpha  occ. eigenvalues --   -0.44885  -0.44876  -0.44706  -0.44284  -0.43990
 Alpha  occ. eigenvalues --   -0.43880  -0.43204  -0.42400  -0.42002  -0.41810
 Alpha  occ. eigenvalues --   -0.41366  -0.40995  -0.40942  -0.39372  -0.38916
 Alpha  occ. eigenvalues --   -0.38141  -0.36489  -0.35785  -0.34698  -0.34341
 Alpha  occ. eigenvalues --   -0.33395  -0.32384  -0.31755  -0.31201  -0.26320
 Alpha  occ. eigenvalues --   -0.21307
 Alpha virt. eigenvalues --   -0.07890  -0.02094  -0.00742   0.01381   0.01405
 Alpha virt. eigenvalues --    0.01804   0.03277   0.03605   0.03646   0.04841
 Alpha virt. eigenvalues --    0.06561   0.06791   0.07672   0.07967   0.08271

 Mulliken charges:
               1
     1  Mg   0.428751
     2  C   -0.032736
     3  C   -0.084123
     4  C   -0.067140
     5  C   -0.073105
     6  N   -0.293519
     7  C    0.111057
     8  C    0.012975
     9  C    0.009295
    10  C    0.153079
    11  C   -0.047741
    12  C   -0.036586
    13  C    0.011077
    14  C    0.464340
    15  O   -0.516644
    16  O   -0.288912
    17  N   -0.301219
    18  C    0.150920
    19  C    0.001864
    20  C   -0.048640
    21  C    0.130892
    22  C   -0.049240
    23  C    0.338369
    24  O   -0.526870
    25  C   -0.026223
    26  N   -0.272981
    27  C    0.127974
    28  C    0.015558
    29  C    0.004033
    30  C    0.120770
    31  C   -0.049489
    32  C   -0.032873
    33  C   -0.060048
    34  N   -0.336640
    35  C    0.075951
    36  C    0.053058
    37  C   -0.071379
    38  C    0.105396
    39  C   -0.030213
    40  C    0.331361
    41  O   -0.523794
    42  C    0.057216
    43  C    0.494866
    44  O   -0.509737
    45  O   -0.275758
    46  C    0.070652
    47  C    0.109732
    48  C   -0.079527
    49  C   -0.015825
    50  C   -0.046248
    51  C   -0.013853
    52  C   -0.043154
    53  C   -0.034175
    54  C   -0.008860
    55  C   -0.060121
    56  C   -0.021032
    57  C   -0.031905
    58  C   -0.037107
    59  C    0.000558
    60  C   -0.056648
    61  C   -0.042169
    62  C   -0.041985
    63  C   -0.035674
    64  C   -0.002432
    65  C   -0.062298
    66  C   -0.068335
    67  H    0.012534
    68  H    0.040281
    69  H    0.025667
    70  H    0.034677
    71  H    0.028804
    72  H    0.015563
    73  H    0.038128
    74  H    0.030116
    75  H    0.019518
    76  H    0.009980
    77  H    0.042187
    78  H    0.059769
    79  H    0.030328
    80  H    0.023546
    81  H    0.031391
    82  H    0.026049
    83  H    0.052124
    84  H    0.036504
    85  H    0.031103
    86  H    0.031313
    87  H    0.012216
    88  H    0.029235
    89  H    0.032453
    90  H    0.020415
    91  H    0.009125
    92  H    0.020827
    93  H    0.023023
    94  H    0.030641
    95  H    0.034820
    96  H    0.035070
    97  H    0.018183
    98  H    0.058973
    99  H    0.024360
   100  H    0.047914
   101  H    0.049269
   102  H    0.032286
   103  H    0.068103
   104  H    0.032908
   105  H    0.022855
   106  H    0.027432
   107  H    0.022176
   108  H    0.023809
   109  H    0.020270
   110  H    0.021320
   111  H    0.021690
   112  H    0.027010
   113  H    0.019712
   114  H    0.015137
   115  H    0.019351
   116  H    0.020220
   117  H    0.013700
   118  H    0.013722
   119  H    0.006740
   120  H    0.021916
   121  H    0.016302
   122  H    0.009330
   123  H    0.025438
   124  H    0.018129
   125  H    0.004355
   126  H    0.017926
   127  H    0.025503
   128  H    0.014168
   129  H    0.014921
   130  H    0.020150
   131  H    0.021174
   132  H    0.006726
   133  H    0.034160
   134  H    0.022531
   135  H    0.011192
   136  H    0.014991
   137  H    0.036566
   138  H    0.015522
   139  H    0.006720
   140  H    0.024944
 Sum of Mulliken charges =  -0.00000

 Dipole moment (field-independent basis, Debye):
    X=             -6.8321    Y=              2.9363    Z=              3.8073  Tot=              8.3543
 N-N= 4.278023797983D+03 E-N= 0.000000000000D+00  KE=-9.230777006104D+03
 Leave Link  601 at Fri Apr 29 11:27:20 2022, MaxMem=  6710886400 cpu:               0.8 elap:               0.1
 (Enter /sw/apps/gaussian-16.0/g16/l9999.exe)
 1\1\GINC-BP1-COMPUTE070\SP\RZINDO CIS\STO-3G\C55H74Mg1N4O6\OF15641\29-
 Apr-2022\0\\#p ZINDO=(nstates=5)\\step_251_chromophore_21 ZINDO\\0,1\M
 g,0,15.776,52.082,25.402\C,0,17.41,50.698,28.22\C,0,13.201,52.908,27.4
 21\C,0,14.254,53.222,22.737\C,0,18.253,50.461,23.376\N,0,15.275,51.746
 ,27.602\C,0,16.225,51.391,28.545\C,0,15.657,51.733,29.88\C,0,14.156,51
 .892,29.636\C,0,14.16,52.234,28.125\C,0,13.397,50.537,29.896\C,0,16.28
 1,53.03,30.629\C,0,16.585,52.99,32.158\C,0,15.448,52.471,33.085\O,0,14

 Normal termination of Gaussian 16 at Fri Apr 29 11:27:21 2022.
