 Gaussian 16, Revision A.03,
 Gaussian 16:  ES64L-G16RevA.03 25-Dec-2016

 ------------------------------
 #p blyp/Def2SVP td=(nstates=5)
 ------------------------------

 --------------------------------------------------
 step_401_chromophore_16 TDDFT with blyp functional
 --------------------------------------------------
 Symbolic Z-matrix:
 Charge =  0 Multiplicity = 1

                         Standard orientation:
 ---------------------------------------------------------------------
 Center     Atomic      Atomic             Coordinates (Angstroms)
 Number     Number       Type             X           Y           Z
 ---------------------------------------------------------------------
      1         12           0        6.297961    0.578379    0.005862
      2          6           0        4.088703   -2.117845    0.126705
      3          6           0        3.645987    2.537982   -0.783087
      4          6           0        8.414350    3.243874   -0.202800
      5          6           0        8.934740   -1.576244    0.726096
      6          7           0        4.073269    0.198976   -0.259354
      7          6           0        3.406777   -0.937391   -0.106140
      8          6           0        1.861290   -0.769653   -0.597984
      9          6           0        1.838517    0.736697   -0.811215
     10          6           0        3.271704    1.197910   -0.662909
     11          6           0        1.167353    1.377129   -2.024190
     12          6           0        0.899206   -1.428658    0.421698
     13          6           0       -0.391869   -0.743438    0.795644
     14          6           0       -1.463211   -1.782762    1.044276
     15          8           0       -1.532139   -2.423247    2.119558
     16          8           0       -2.139144   -2.061759   -0.087819
     17          7           0        6.126238    2.680151   -0.456724
     18          6           0        4.893657    3.235666   -0.733339
     19          6           0        5.048330    4.672021   -0.836577
     20          6           0        6.415681    4.945661   -0.570746
     21          6           0        7.117190    3.590620   -0.423818
     22          6           0        3.907584    5.669502   -1.052263
     23          6           0        7.250768    6.264187   -0.605471
     24          8           0        8.483968    6.355557   -0.367820
     25          6           0        6.582710    7.462103   -0.861677
     26          7           0        8.401536    0.810025    0.160558
     27          6           0        9.021161    1.964374    0.000625
     28          6           0       10.490824    1.866186    0.402018
     29          6           0       10.666429    0.348126    0.737847
     30          6           0        9.280296   -0.229154    0.578615
     31          6           0       11.597288    2.528920   -0.559559
     32          6           0       11.292575    0.165402    2.118767
     33          6           0       10.476339    0.637449    3.333884
     34          7           0        6.481146   -1.374225    0.354017
     35          6           0        7.659170   -2.163295    0.624852
     36          6           0        7.365363   -3.539090    0.767642
     37          6           0        5.970800   -3.570261    0.659498
     38          6           0        5.479240   -2.233259    0.354941
     39          6           0        8.334849   -4.680662    0.841244
     40          6           0        4.790078   -4.447504    0.661926
     41          8           0        4.631287   -5.614839    0.817329
     42          6           0        3.571296   -3.580522    0.234690
     43          6           0        3.064130   -4.159330   -1.072267
     44          8           0        3.668949   -4.092514   -2.147283
     45          8           0        1.882303   -4.758759   -0.828497
     46          6           0        1.158350   -5.373505   -1.935719
     47          6           0       -3.198971   -3.109295   -0.088692
     48          6           0       -4.536226   -2.635020   -0.460135
     49          6           0       -5.774628   -3.225639   -0.357187
     50          6           0       -5.929774   -4.573162    0.283599
     51          6           0       -7.018091   -2.638512   -1.037248
     52          6           0       -7.811627   -1.642812   -0.173183
     53          6           0       -8.407677   -0.664134   -1.157689
     54          6           0       -9.398788    0.326007   -0.573924
     55          6           0       -9.223510    0.604254    0.968930
     56          6           0      -10.954765    0.102578   -0.880810
     57          6           0      -11.549792    0.647132   -2.248931
     58          6           0      -12.892164    1.436101   -2.254579
     59          6           0      -14.151476    0.795604   -1.606405
     60          6           0      -15.006259    0.017201   -2.637015
     61          6           0      -15.027403    1.738907   -0.769549
     62          6           0      -14.644995    1.559621    0.708577
     63          6           0      -14.933914    2.685033    1.650729
     64          6           0      -15.778681    2.270324    2.925920
     65          6           0      -15.083156    2.744093    4.140500
     66          6           0      -17.269035    2.750986    2.946254
     67          1           0        2.706159    3.091495   -0.734546
     68          1           0        9.186258    4.015939   -0.191752
     69          1           0        9.650379   -2.380762    0.902535
     70          1           0        1.707763   -1.190078   -1.592365
     71          1           0        1.347966    1.121995    0.082888
     72          1           0        1.900718    1.620771   -2.792135
     73          1           0        0.565545    2.202415   -1.643278
     74          1           0        0.379739    0.758201   -2.452328
     75          1           0        1.491549   -1.490824    1.334079
     76          1           0        0.762306   -2.472856    0.139700
     77          1           0       -0.836392   -0.119202    0.021275
     78          1           0       -0.330439   -0.175965    1.724600
     79          1           0        2.955647    5.177134   -0.851225
     80          1           0        4.129392    6.097355   -2.029685
     81          1           0        3.918849    6.507692   -0.355031
     82          1           0        5.999291    7.447914   -1.781831
     83          1           0        7.328771    8.253683   -0.929465
     84          1           0        5.915916    7.713969   -0.037142
     85          1           0       10.602815    2.390601    1.351533
     86          1           0       11.350755   -0.174273    0.069983
     87          1           0       10.955629    2.636734   -1.433662
     88          1           0       12.437524    1.835897   -0.509874
     89          1           0       11.966404    3.487876   -0.196148
     90          1           0       12.177087    0.801365    2.141755
     91          1           0       11.628318   -0.854295    2.309973
     92          1           0       10.760211   -0.030820    4.146271
     93          1           0        9.396023    0.669526    3.189203
     94          1           0       10.694968    1.662939    3.629612
     95          1           0        8.982443   -4.706149   -0.034408
     96          1           0        7.733018   -5.589273    0.861541
     97          1           0        8.979351   -4.663206    1.720310
     98          1           0        2.864997   -3.637036    1.063423
     99          1           0        1.615242   -5.262927   -2.918929
    100          1           0        0.149524   -4.959653   -1.946366
    101          1           0        1.108803   -6.448958   -1.763301
    102          1           0       -3.167141   -3.611541    0.877875
    103          1           0       -2.781637   -3.730493   -0.881206
    104          1           0       -4.463605   -1.696425   -1.009329
    105          1           0       -6.378751   -4.428179    1.266742
    106          1           0       -4.936018   -4.993676    0.434379
    107          1           0       -6.428401   -5.239007   -0.420879
    108          1           0       -7.694224   -3.426053   -1.369644
    109          1           0       -6.694149   -2.226781   -1.992885
    110          1           0       -7.255119   -1.157991    0.629259
    111          1           0       -8.555832   -2.218475    0.377253
    112          1           0       -8.981620   -1.170696   -1.933311
    113          1           0       -7.568831   -0.175004   -1.651944
    114          1           0       -9.198980    1.324572   -0.962292
    115          1           0       -9.514724    1.635096    1.171335
    116          1           0       -8.214005    0.643325    1.376929
    117          1           0       -9.741957   -0.148885    1.563572
    118          1           0      -11.522874    0.340871    0.018873
    119          1           0      -11.002114   -0.977278   -1.028130
    120          1           0      -11.648312   -0.140118   -2.995969
    121          1           0      -10.798116    1.357371   -2.593100
    122          1           0      -13.192503    1.889104   -3.200198
    123          1           0      -12.733577    2.287617   -1.592458
    124          1           0      -13.774461    0.019965   -0.940640
    125          1           0      -14.807192    0.314049   -3.666961
    126          1           0      -16.075577   -0.022682   -2.430643
    127          1           0      -14.865833   -1.044877   -2.440919
    128          1           0      -16.087893    1.552380   -0.940444
    129          1           0      -14.788520    2.749299   -1.099810
    130          1           0      -13.585957    1.376902    0.890984
    131          1           0      -15.173960    0.678204    1.072111
    132          1           0      -15.357096    3.532701    1.110580
    133          1           0      -13.998428    3.108452    2.017554
    134          1           0      -15.818435    1.185517    3.023148
    135          1           0      -14.315158    1.986108    4.291756
    136          1           0      -15.752221    2.730917    5.000530
    137          1           0      -14.565659    3.703848    4.099679
    138          1           0      -17.855067    1.905315    2.586011
    139          1           0      -17.481180    3.643444    2.357386
    140          1           0      -17.620378    2.922340    3.963837
 ---------------------------------------------------------------------

 SCF Done:  E(RB-LYP) =  -3007.37693336     A.U. after   21 cycles

 Excitation energies and oscillator strengths:

 Excited State   1:      Singlet-A      1.8295 eV  677.68 nm  f=0.2933  <S**2>=0.000
     245 -> 247        0.10292
     245 -> 248       -0.20014
     246 -> 247        0.67694
     246 <- 247       -0.13482
 This state for optimization and/or second-order correction.
 Total Energy, E(TD-HF/TD-DFT) =  -3007.30969930
 Copying the excited state density for this state as the 1-particle RhoCI density.

 Excited State   2:      Singlet-A      1.9479 eV  636.50 nm  f=0.0202  <S**2>=0.000
     244 -> 247        0.60020
     245 -> 247       -0.34864
     246 -> 248       -0.10586

 Excited State   3:      Singlet-A      2.0196 eV  613.89 nm  f=0.0010  <S**2>=0.000
     243 -> 247        0.70040

 Excited State   4:      Singlet-A      2.0440 eV  606.58 nm  f=0.0546  <S**2>=0.000
     244 -> 247        0.36473
     245 -> 247        0.53385
     246 -> 248        0.23974

 Excited State   5:      Singlet-A      2.4792 eV  500.09 nm  f=0.0001  <S**2>=0.000
     242 -> 247        0.70318

 The electronic state is 1-A.
 Alpha  occ. eigenvalues --  -46.26876 -18.82799 -18.82685 -18.76296 -18.76043
 Alpha  occ. eigenvalues --  -18.75381 -18.75336 -14.03098 -14.03022 -14.01013
 Alpha  occ. eigenvalues --  -14.00711 -10.03924 -10.03915  -9.99565  -9.98913
 Alpha  occ. eigenvalues --   -9.98478  -9.97911  -9.96350  -9.96322  -9.96301
 Alpha  occ. eigenvalues --   -9.96300  -9.96292  -9.95612  -9.94947  -9.94408
 Alpha  occ. eigenvalues --   -9.94394  -9.94355  -9.93706  -9.93688  -9.93640
 Alpha  occ. eigenvalues --   -9.93494  -9.93340  -9.93290  -9.93229  -9.93194
 Alpha  occ. eigenvalues --   -9.93177  -9.93163  -9.93021  -9.92929  -9.92847
 Alpha  occ. eigenvalues --   -9.92712  -9.92494  -9.92477  -9.92477  -9.92467
 Alpha  occ. eigenvalues --   -9.92384  -9.92380  -9.92307  -9.92181  -9.92064
 Alpha  occ. eigenvalues --   -9.91994  -9.91767  -9.91702  -9.91691  -9.91507
 Alpha  occ. eigenvalues --   -9.91500  -9.91352  -9.91305  -9.91268  -9.91042
 Alpha  occ. eigenvalues --   -9.90926  -9.90683  -9.90624  -9.90548  -9.90350
 Alpha  occ. eigenvalues --   -9.90104  -2.91511  -1.71952  -1.71374  -1.71232
 Alpha  occ. eigenvalues --   -0.98080  -0.97693  -0.92840  -0.89870  -0.89383
 Alpha  occ. eigenvalues --   -0.88506  -0.87216  -0.85794  -0.85224  -0.84680
 Alpha  occ. eigenvalues --   -0.74450  -0.74204  -0.73532  -0.73051  -0.72446
 Alpha  occ. eigenvalues --   -0.72259  -0.71679  -0.71238  -0.70977  -0.70871
 Alpha  occ. eigenvalues --   -0.69952  -0.69546  -0.68513  -0.67546  -0.67105
 Alpha  occ. eigenvalues --   -0.66932  -0.66383  -0.66004  -0.65547  -0.64533
 Alpha  occ. eigenvalues --   -0.64359  -0.63053  -0.62261  -0.61858  -0.60888
 Alpha  occ. eigenvalues --   -0.60638  -0.59962  -0.59806  -0.59756  -0.59263
 Alpha  occ. eigenvalues --   -0.58703  -0.58093  -0.57183  -0.56221  -0.55176
 Alpha  occ. eigenvalues --   -0.54717  -0.53201  -0.53084  -0.52147  -0.51475
 Alpha  occ. eigenvalues --   -0.51383  -0.50729  -0.50611  -0.49998  -0.49538
 Alpha  occ. eigenvalues --   -0.49444  -0.49056  -0.48402  -0.47868  -0.46807
 Alpha  occ. eigenvalues --   -0.46315  -0.46081  -0.45831  -0.45282  -0.44591
 Alpha  occ. eigenvalues --   -0.44365  -0.43966  -0.43031  -0.42868  -0.42463
 Alpha  occ. eigenvalues --   -0.42421  -0.42251  -0.41966  -0.41338  -0.40968
 Alpha  occ. eigenvalues --   -0.40718  -0.40646  -0.40553  -0.40359  -0.40239
 Alpha  occ. eigenvalues --   -0.40133  -0.39806  -0.39598  -0.39436  -0.39245
 Alpha  occ. eigenvalues --   -0.38933  -0.38877  -0.38738  -0.38487  -0.38358
 Alpha  occ. eigenvalues --   -0.38236  -0.38099  -0.37986  -0.37807  -0.37694
 Alpha  occ. eigenvalues --   -0.37345  -0.37005  -0.36881  -0.36850  -0.36665
 Alpha  occ. eigenvalues --   -0.36562  -0.36361  -0.36147  -0.35948  -0.35760
 Alpha  occ. eigenvalues --   -0.35698  -0.35240  -0.35208  -0.35180  -0.34651
 Alpha  occ. eigenvalues --   -0.34562  -0.34504  -0.34322  -0.34262  -0.34080
 Alpha  occ. eigenvalues --   -0.33995  -0.33846  -0.33764  -0.33604  -0.33337
 Alpha  occ. eigenvalues --   -0.33138  -0.32916  -0.32915  -0.32465  -0.32257
 Alpha  occ. eigenvalues --   -0.32096  -0.31804  -0.31632  -0.31413  -0.31362
 Alpha  occ. eigenvalues --   -0.31186  -0.31031  -0.30710  -0.30592  -0.30403
 Alpha  occ. eigenvalues --   -0.30143  -0.29965  -0.29863  -0.29585  -0.29524
 Alpha  occ. eigenvalues --   -0.29254  -0.29110  -0.28999  -0.28952  -0.28604
 Alpha  occ. eigenvalues --   -0.28576  -0.28334  -0.28207  -0.28089  -0.27868
 Alpha  occ. eigenvalues --   -0.27796  -0.27567  -0.27239  -0.26865  -0.26490
 Alpha  occ. eigenvalues --   -0.26053  -0.25983  -0.25946  -0.25356  -0.25158
 Alpha  occ. eigenvalues --   -0.25047  -0.24909  -0.24529  -0.24237  -0.23825
 Alpha  occ. eigenvalues --   -0.23241  -0.22223  -0.21586  -0.21014  -0.20948
 Alpha  occ. eigenvalues --   -0.20448  -0.20399  -0.18604  -0.18413  -0.17085
 Alpha  occ. eigenvalues --   -0.15779
 Alpha virt. eigenvalues --   -0.11288  -0.06969  -0.05916  -0.04250  -0.03155
 Alpha virt. eigenvalues --   -0.02617  -0.02104  -0.01494  -0.00804  -0.00283
 Alpha virt. eigenvalues --    0.00821   0.01617   0.02049   0.02306   0.02577

 Mulliken charges:
               1
     1  Mg   0.690099
     2  C    0.047122
     3  C   -0.072518
     4  C   -0.052057
     5  C   -0.066659
     6  N   -0.156090
     7  C   -0.143341
     8  C    0.003613
     9  C    0.021699
    10  C   -0.077107
    11  C    0.161229
    12  C    0.110047
    13  C    0.180516
    14  C    0.050081
    15  O   -0.230603
    16  O   -0.275794
    17  N   -0.267925
    18  C    0.183678
    19  C   -0.155636
    20  C    0.002536
    21  C    0.129576
    22  C    0.181520
    23  C   -0.049260
    24  O   -0.196765
    25  C    0.157622
    26  N   -0.228193
    27  C    0.007717
    28  C   -0.036722
    29  C    0.081972
    30  C    0.080613
    31  C    0.126653
    32  C    0.061031
    33  C    0.049178
    34  N   -0.300918
    35  C    0.083863
    36  C   -0.175671
    37  C    0.083614
    38  C    0.069151
    39  C    0.174052
    40  C   -0.073820
    41  O   -0.096736
    42  C    0.051516
    43  C    0.130603
    44  O   -0.192635
    45  O   -0.243405
    46  C    0.201718
    47  C    0.315290
    48  C   -0.095638
    49  C   -0.171335
    50  C    0.155748
    51  C    0.136367
    52  C    0.092992
    53  C    0.114352
    54  C   -0.058642
    55  C    0.079791
    56  C    0.082213
    57  C    0.089867
    58  C    0.104570
    59  C   -0.098836
    60  C    0.113362
    61  C    0.148587
    62  C    0.030796
    63  C    0.128974
    64  C   -0.085091
    65  C    0.097909
    66  C    0.104543
    67  H   -0.058559
    68  H   -0.048063
    69  H   -0.071646
    70  H   -0.018888
    71  H   -0.024597
    72  H    0.008709
    73  H   -0.014785
    74  H   -0.020440
    75  H   -0.018602
    76  H    0.009218
    77  H   -0.018885
    78  H   -0.003315
    79  H   -0.005557
    80  H    0.014798
    81  H   -0.006970
    82  H   -0.003001
    83  H   -0.009317
    84  H    0.012777
    85  H   -0.014594
    86  H   -0.033088
    87  H    0.012358
    88  H   -0.003571
    89  H    0.000707
    90  H   -0.027335
    91  H   -0.020486
    92  H   -0.008487
    93  H    0.001813
    94  H   -0.008992
    95  H    0.005611
    96  H    0.009131
    97  H   -0.001131
    98  H   -0.003929
    99  H    0.023019
   100  H    0.014682
   101  H    0.021081
   102  H    0.018590
   103  H   -0.000803
   104  H   -0.039314
   105  H    0.012638
   106  H   -0.023089
   107  H    0.001012
   108  H   -0.036927
   109  H   -0.026364
   110  H   -0.019837
   111  H   -0.034717
   112  H   -0.037415
   113  H   -0.029727
   114  H   -0.046156
   115  H   -0.017138
   116  H   -0.028096
   117  H   -0.011157
   118  H   -0.016794
   119  H   -0.039487
   120  H   -0.022559
   121  H   -0.030564
   122  H   -0.032056
   123  H   -0.050398
   124  H   -0.035552
   125  H   -0.010172
   126  H   -0.036996
   127  H   -0.033576
   128  H   -0.034002
   129  H   -0.040119
   130  H   -0.023081
   131  H   -0.029219
   132  H   -0.041698
   133  H   -0.047925
   134  H   -0.036884
   135  H   -0.029122
   136  H   -0.026378
   137  H   -0.009963
   138  H   -0.022937
   139  H   -0.011074
   140  H   -0.025594
 Sum of Mulliken charges =  -0.00000

 Dipole moment (field-independent basis, Debye):
    X=             -3.6934    Y=              2.2675    Z=             -1.4522  Tot=              4.5708
 Quadrupole moment (field-independent basis, Debye-Ang):
   XX=           -391.1546   YY=           -420.5153   ZZ=           -413.9491
   XY=              6.1537   XZ=             16.8219   YZ=              7.1733

 Normal termination of Gaussian 16 at Fri Apr 29 17:29:42 2022.
