 Gaussian 16, Revision A.03,
 Gaussian 16:  ES64L-G16RevA.03 25-Dec-2016

 -----------------------------------
 #p cam-b3lyp/Def2SVP td=(nstates=5)
 -----------------------------------

 -------------------------------------------------------
 step_401_chromophore_16 TDDFT with cam-b3lyp functional
 -------------------------------------------------------
 Symbolic Z-matrix:
 Charge =  0 Multiplicity = 1

                         Standard orientation:
 ---------------------------------------------------------------------
 Center     Atomic      Atomic             Coordinates (Angstroms)
 Number     Number       Type             X           Y           Z
 ---------------------------------------------------------------------
      1         12           0        6.297961    0.578379    0.005862
      2          6           0        4.088703   -2.117845    0.126705
      3          6           0        3.645987    2.537982   -0.783087
      4          6           0        8.414350    3.243874   -0.202800
      5          6           0        8.934740   -1.576244    0.726096
      6          7           0        4.073269    0.198976   -0.259354
      7          6           0        3.406777   -0.937391   -0.106140
      8          6           0        1.861290   -0.769653   -0.597984
      9          6           0        1.838517    0.736697   -0.811215
     10          6           0        3.271704    1.197910   -0.662909
     11          6           0        1.167353    1.377129   -2.024190
     12          6           0        0.899206   -1.428658    0.421698
     13          6           0       -0.391869   -0.743438    0.795644
     14          6           0       -1.463211   -1.782762    1.044276
     15          8           0       -1.532139   -2.423247    2.119558
     16          8           0       -2.139144   -2.061759   -0.087819
     17          7           0        6.126238    2.680151   -0.456724
     18          6           0        4.893657    3.235666   -0.733339
     19          6           0        5.048330    4.672021   -0.836577
     20          6           0        6.415681    4.945661   -0.570746
     21          6           0        7.117190    3.590620   -0.423818
     22          6           0        3.907584    5.669502   -1.052263
     23          6           0        7.250768    6.264187   -0.605471
     24          8           0        8.483968    6.355557   -0.367820
     25          6           0        6.582710    7.462103   -0.861677
     26          7           0        8.401536    0.810025    0.160558
     27          6           0        9.021161    1.964374    0.000625
     28          6           0       10.490824    1.866186    0.402018
     29          6           0       10.666429    0.348126    0.737847
     30          6           0        9.280296   -0.229154    0.578615
     31          6           0       11.597288    2.528920   -0.559559
     32          6           0       11.292575    0.165402    2.118767
     33          6           0       10.476339    0.637449    3.333884
     34          7           0        6.481146   -1.374225    0.354017
     35          6           0        7.659170   -2.163295    0.624852
     36          6           0        7.365363   -3.539090    0.767642
     37          6           0        5.970800   -3.570261    0.659498
     38          6           0        5.479240   -2.233259    0.354941
     39          6           0        8.334849   -4.680662    0.841244
     40          6           0        4.790078   -4.447504    0.661926
     41          8           0        4.631287   -5.614839    0.817329
     42          6           0        3.571296   -3.580522    0.234690
     43          6           0        3.064130   -4.159330   -1.072267
     44          8           0        3.668949   -4.092514   -2.147283
     45          8           0        1.882303   -4.758759   -0.828497
     46          6           0        1.158350   -5.373505   -1.935719
     47          6           0       -3.198971   -3.109295   -0.088692
     48          6           0       -4.536226   -2.635020   -0.460135
     49          6           0       -5.774628   -3.225639   -0.357187
     50          6           0       -5.929774   -4.573162    0.283599
     51          6           0       -7.018091   -2.638512   -1.037248
     52          6           0       -7.811627   -1.642812   -0.173183
     53          6           0       -8.407677   -0.664134   -1.157689
     54          6           0       -9.398788    0.326007   -0.573924
     55          6           0       -9.223510    0.604254    0.968930
     56          6           0      -10.954765    0.102578   -0.880810
     57          6           0      -11.549792    0.647132   -2.248931
     58          6           0      -12.892164    1.436101   -2.254579
     59          6           0      -14.151476    0.795604   -1.606405
     60          6           0      -15.006259    0.017201   -2.637015
     61          6           0      -15.027403    1.738907   -0.769549
     62          6           0      -14.644995    1.559621    0.708577
     63          6           0      -14.933914    2.685033    1.650729
     64          6           0      -15.778681    2.270324    2.925920
     65          6           0      -15.083156    2.744093    4.140500
     66          6           0      -17.269035    2.750986    2.946254
     67          1           0        2.706159    3.091495   -0.734546
     68          1           0        9.186258    4.015939   -0.191752
     69          1           0        9.650379   -2.380762    0.902535
     70          1           0        1.707763   -1.190078   -1.592365
     71          1           0        1.347966    1.121995    0.082888
     72          1           0        1.900718    1.620771   -2.792135
     73          1           0        0.565545    2.202415   -1.643278
     74          1           0        0.379739    0.758201   -2.452328
     75          1           0        1.491549   -1.490824    1.334079
     76          1           0        0.762306   -2.472856    0.139700
     77          1           0       -0.836392   -0.119202    0.021275
     78          1           0       -0.330439   -0.175965    1.724600
     79          1           0        2.955647    5.177134   -0.851225
     80          1           0        4.129392    6.097355   -2.029685
     81          1           0        3.918849    6.507692   -0.355031
     82          1           0        5.999291    7.447914   -1.781831
     83          1           0        7.328771    8.253683   -0.929465
     84          1           0        5.915916    7.713969   -0.037142
     85          1           0       10.602815    2.390601    1.351533
     86          1           0       11.350755   -0.174273    0.069983
     87          1           0       10.955629    2.636734   -1.433662
     88          1           0       12.437524    1.835897   -0.509874
     89          1           0       11.966404    3.487876   -0.196148
     90          1           0       12.177087    0.801365    2.141755
     91          1           0       11.628318   -0.854295    2.309973
     92          1           0       10.760211   -0.030820    4.146271
     93          1           0        9.396023    0.669526    3.189203
     94          1           0       10.694968    1.662939    3.629612
     95          1           0        8.982443   -4.706149   -0.034408
     96          1           0        7.733018   -5.589273    0.861541
     97          1           0        8.979351   -4.663206    1.720310
     98          1           0        2.864997   -3.637036    1.063423
     99          1           0        1.615242   -5.262927   -2.918929
    100          1           0        0.149524   -4.959653   -1.946366
    101          1           0        1.108803   -6.448958   -1.763301
    102          1           0       -3.167141   -3.611541    0.877875
    103          1           0       -2.781637   -3.730493   -0.881206
    104          1           0       -4.463605   -1.696425   -1.009329
    105          1           0       -6.378751   -4.428179    1.266742
    106          1           0       -4.936018   -4.993676    0.434379
    107          1           0       -6.428401   -5.239007   -0.420879
    108          1           0       -7.694224   -3.426053   -1.369644
    109          1           0       -6.694149   -2.226781   -1.992885
    110          1           0       -7.255119   -1.157991    0.629259
    111          1           0       -8.555832   -2.218475    0.377253
    112          1           0       -8.981620   -1.170696   -1.933311
    113          1           0       -7.568831   -0.175004   -1.651944
    114          1           0       -9.198980    1.324572   -0.962292
    115          1           0       -9.514724    1.635096    1.171335
    116          1           0       -8.214005    0.643325    1.376929
    117          1           0       -9.741957   -0.148885    1.563572
    118          1           0      -11.522874    0.340871    0.018873
    119          1           0      -11.002114   -0.977278   -1.028130
    120          1           0      -11.648312   -0.140118   -2.995969
    121          1           0      -10.798116    1.357371   -2.593100
    122          1           0      -13.192503    1.889104   -3.200198
    123          1           0      -12.733577    2.287617   -1.592458
    124          1           0      -13.774461    0.019965   -0.940640
    125          1           0      -14.807192    0.314049   -3.666961
    126          1           0      -16.075577   -0.022682   -2.430643
    127          1           0      -14.865833   -1.044877   -2.440919
    128          1           0      -16.087893    1.552380   -0.940444
    129          1           0      -14.788520    2.749299   -1.099810
    130          1           0      -13.585957    1.376902    0.890984
    131          1           0      -15.173960    0.678204    1.072111
    132          1           0      -15.357096    3.532701    1.110580
    133          1           0      -13.998428    3.108452    2.017554
    134          1           0      -15.818435    1.185517    3.023148
    135          1           0      -14.315158    1.986108    4.291756
    136          1           0      -15.752221    2.730917    5.000530
    137          1           0      -14.565659    3.703848    4.099679
    138          1           0      -17.855067    1.905315    2.586011
    139          1           0      -17.481180    3.643444    2.357386
    140          1           0      -17.620378    2.922340    3.963837
 ---------------------------------------------------------------------

 SCF Done:  E(RCAM-B3LYP) =  -3007.17344123     A.U. after   18 cycles

 Excitation energies and oscillator strengths:

 Excited State   1:      Singlet-A      1.7868 eV  693.89 nm  f=0.3725  <S**2>=0.000
     245 -> 248        0.18410
     246 -> 247        0.68054
     245 <- 248        0.10383
 This state for optimization and/or second-order correction.
 Total Energy, E(TD-HF/TD-DFT) =  -3007.10777744
 Copying the excited state density for this state as the 1-particle RhoCI density.

 Excited State   2:      Singlet-A      2.2430 eV  552.77 nm  f=0.0934  <S**2>=0.000
     245 -> 247        0.62704
     246 -> 248       -0.30918

 Excited State   3:      Singlet-A      3.4536 eV  359.00 nm  f=0.4155  <S**2>=0.000
     240 -> 247       -0.12756
     241 -> 247       -0.28523
     243 -> 247        0.22552
     244 -> 247       -0.18493
     245 -> 247        0.22006
     246 -> 248        0.50741

 Excited State   4:      Singlet-A      3.5755 eV  346.76 nm  f=0.1399  <S**2>=0.000
     239 -> 247        0.33316
     239 -> 249       -0.23971
     239 -> 250        0.11836
     240 -> 247        0.31231
     240 -> 249       -0.19119
     243 -> 247       -0.21077
     244 -> 247        0.17247
     245 -> 247        0.12692
     246 -> 248        0.22584

 Excited State   5:      Singlet-A      3.6034 eV  344.08 nm  f=0.1644  <S**2>=0.000
     239 -> 247       -0.25822
     239 -> 249        0.16099
     240 -> 247       -0.14344
     240 -> 249        0.10398
     243 -> 247       -0.29283
     244 -> 247        0.40838
     245 -> 247        0.14324
     246 -> 248        0.25098

 The electronic state is 1-A.
 Alpha  occ. eigenvalues --  -46.88389 -19.25613 -19.25601 -19.19155 -19.19011
 Alpha  occ. eigenvalues --  -19.18963 -19.18085 -14.41928 -14.41856 -14.39634
 Alpha  occ. eigenvalues --  -14.38923 -10.39214 -10.39197 -10.35230 -10.33765
 Alpha  occ. eigenvalues --  -10.32595 -10.31798 -10.31243 -10.31063 -10.31029
 Alpha  occ. eigenvalues --  -10.30560 -10.30407 -10.30344 -10.29620 -10.28575
 Alpha  occ. eigenvalues --  -10.28431 -10.28397 -10.28308 -10.27999 -10.27912
 Alpha  occ. eigenvalues --  -10.27676 -10.27442 -10.27273 -10.27234 -10.27118
 Alpha  occ. eigenvalues --  -10.27118 -10.27116 -10.27029 -10.26909 -10.26796
 Alpha  occ. eigenvalues --  -10.26541 -10.26288 -10.26245 -10.26222 -10.26147
 Alpha  occ. eigenvalues --  -10.26115 -10.25946 -10.25943 -10.25891 -10.25886
 Alpha  occ. eigenvalues --  -10.25817 -10.25775 -10.25632 -10.25407 -10.25319
 Alpha  occ. eigenvalues --  -10.25189 -10.25033 -10.24913 -10.24827 -10.24643
 Alpha  occ. eigenvalues --  -10.24581 -10.24308 -10.24286 -10.24155 -10.23941
 Alpha  occ. eigenvalues --  -10.23658  -3.16931  -1.91848  -1.91363  -1.91250
 Alpha  occ. eigenvalues --   -1.16425  -1.16118  -1.10934  -1.08618  -1.07173
 Alpha  occ. eigenvalues --   -1.06355  -1.04967  -1.03550  -1.02796  -1.02088
 Alpha  occ. eigenvalues --   -0.91310  -0.91097  -0.90358  -0.89866  -0.89178
 Alpha  occ. eigenvalues --   -0.88946  -0.88429  -0.87893  -0.87701  -0.87227
 Alpha  occ. eigenvalues --   -0.86620  -0.85942  -0.84837  -0.83925  -0.83259
 Alpha  occ. eigenvalues --   -0.83063  -0.82524  -0.81854  -0.81271  -0.80400
 Alpha  occ. eigenvalues --   -0.80164  -0.78647  -0.78169  -0.77437  -0.76195
 Alpha  occ. eigenvalues --   -0.75995  -0.75335  -0.75102  -0.75010  -0.74542
 Alpha  occ. eigenvalues --   -0.73753  -0.73067  -0.72137  -0.71078  -0.69749
 Alpha  occ. eigenvalues --   -0.69300  -0.67754  -0.67541  -0.66717  -0.65682
 Alpha  occ. eigenvalues --   -0.65532  -0.64737  -0.64521  -0.63813  -0.63541
 Alpha  occ. eigenvalues --   -0.63271  -0.62960  -0.61999  -0.61621  -0.60344
 Alpha  occ. eigenvalues --   -0.60157  -0.59689  -0.59265  -0.58663  -0.57975
 Alpha  occ. eigenvalues --   -0.57785  -0.57325  -0.56198  -0.55796  -0.55690
 Alpha  occ. eigenvalues --   -0.55658  -0.55100  -0.54881  -0.54682  -0.53923
 Alpha  occ. eigenvalues --   -0.53710  -0.53466  -0.53346  -0.53177  -0.53097
 Alpha  occ. eigenvalues --   -0.52894  -0.52623  -0.52098  -0.52020  -0.51751
 Alpha  occ. eigenvalues --   -0.51415  -0.51270  -0.51149  -0.51028  -0.50820
 Alpha  occ. eigenvalues --   -0.50502  -0.50428  -0.50296  -0.50074  -0.49968
 Alpha  occ. eigenvalues --   -0.49792  -0.49543  -0.49241  -0.49145  -0.48942
 Alpha  occ. eigenvalues --   -0.48926  -0.48889  -0.48645  -0.48452  -0.48055
 Alpha  occ. eigenvalues --   -0.47832  -0.47594  -0.47290  -0.47062  -0.46561
 Alpha  occ. eigenvalues --   -0.46360  -0.46281  -0.46203  -0.46057  -0.45868
 Alpha  occ. eigenvalues --   -0.45648  -0.45549  -0.45518  -0.45405  -0.45202
 Alpha  occ. eigenvalues --   -0.44999  -0.44593  -0.44505  -0.44021  -0.43750
 Alpha  occ. eigenvalues --   -0.43694  -0.43501  -0.43241  -0.43021  -0.42901
 Alpha  occ. eigenvalues --   -0.42853  -0.42680  -0.42192  -0.42132  -0.41851
 Alpha  occ. eigenvalues --   -0.41543  -0.41307  -0.41222  -0.41065  -0.40857
 Alpha  occ. eigenvalues --   -0.40636  -0.40544  -0.40100  -0.40038  -0.39777
 Alpha  occ. eigenvalues --   -0.39571  -0.39447  -0.39114  -0.39072  -0.38785
 Alpha  occ. eigenvalues --   -0.38739  -0.38347  -0.38059  -0.37599  -0.37413
 Alpha  occ. eigenvalues --   -0.37168  -0.36742  -0.36547  -0.36350  -0.36259
 Alpha  occ. eigenvalues --   -0.36165  -0.35752  -0.35031  -0.34720  -0.34228
 Alpha  occ. eigenvalues --   -0.33982  -0.33218  -0.33080  -0.31520  -0.31352
 Alpha  occ. eigenvalues --   -0.30385  -0.29939  -0.29888  -0.29617  -0.23876
 Alpha  occ. eigenvalues --   -0.21069
 Alpha virt. eigenvalues --   -0.08245  -0.01853   0.00464   0.02868   0.03780
 Alpha virt. eigenvalues --    0.04113   0.05278   0.05544   0.05875   0.06498
 Alpha virt. eigenvalues --    0.07315   0.07973   0.08404   0.08707   0.09255

 Mulliken charges:
               1
     1  Mg   0.824797
     2  C    0.019859
     3  C   -0.097230
     4  C   -0.072128
     5  C   -0.065312
     6  N   -0.230238
     7  C   -0.098324
     8  C   -0.037247
     9  C   -0.041423
    10  C   -0.039870
    11  C    0.093865
    12  C    0.056345
    13  C    0.107870
    14  C    0.133316
    15  O   -0.272967
    16  O   -0.340903
    17  N   -0.358307
    18  C    0.200620
    19  C   -0.162325
    20  C   -0.051743
    21  C    0.151065
    22  C    0.127642
    23  C    0.036430
    24  O   -0.234362
    25  C    0.060918
    26  N   -0.299817
    27  C    0.037701
    28  C   -0.096749
    29  C    0.027629
    30  C    0.082645
    31  C    0.073263
    32  C    0.009381
    33  C   -0.011654
    34  N   -0.390790
    35  C    0.079740
    36  C   -0.167693
    37  C   -0.004237
    38  C    0.103692
    39  C    0.118515
    40  C    0.026441
    41  O   -0.139327
    42  C   -0.022307
    43  C    0.216172
    44  O   -0.232039
    45  O   -0.307607
    46  C    0.167294
    47  C    0.283391
    48  C   -0.119008
    49  C   -0.193666
    50  C    0.093268
    51  C    0.077927
    52  C    0.037547
    53  C    0.056182
    54  C   -0.108017
    55  C    0.017166
    56  C    0.026341
    57  C    0.040619
    58  C    0.052555
    59  C   -0.157007
    60  C    0.054999
    61  C    0.092711
    62  C   -0.021798
    63  C    0.071872
    64  C   -0.146257
    65  C    0.036943
    66  C    0.047064
    67  H   -0.026606
    68  H   -0.007155
    69  H   -0.034294
    70  H    0.014772
    71  H    0.011060
    72  H    0.036629
    73  H    0.009950
    74  H    0.007417
    75  H    0.014920
    76  H    0.037935
    77  H    0.013222
    78  H    0.029609
    79  H    0.023389
    80  H    0.040993
    81  H    0.021196
    82  H    0.026423
    83  H    0.029980
    84  H    0.042029
    85  H    0.020069
    86  H    0.002281
    87  H    0.035490
    88  H    0.020448
    89  H    0.024475
    90  H    0.000031
    91  H    0.007581
    92  H    0.016257
    93  H    0.024208
    94  H    0.012372
    95  H    0.030246
    96  H    0.036125
    97  H    0.022681
    98  H    0.038847
    99  H    0.049229
   100  H    0.032524
   101  H    0.042555
   102  H    0.051026
   103  H    0.028052
   104  H   -0.005349
   105  H    0.036666
   106  H    0.001192
   107  H    0.025025
   108  H   -0.005655
   109  H    0.004646
   110  H    0.008642
   111  H   -0.006478
   112  H   -0.008963
   113  H   -0.000101
   114  H   -0.013050
   115  H    0.008255
   116  H   -0.001705
   117  H    0.011873
   118  H    0.008768
   119  H   -0.011003
   120  H    0.003395
   121  H   -0.002480
   122  H   -0.003065
   123  H   -0.022117
   124  H   -0.003406
   125  H    0.012892
   126  H   -0.010650
   127  H   -0.008450
   128  H   -0.003686
   129  H   -0.011614
   130  H    0.002088
   131  H   -0.001541
   132  H   -0.012263
   133  H   -0.016328
   134  H   -0.004593
   135  H   -0.004081
   136  H   -0.001256
   137  H    0.013417
   138  H    0.000859
   139  H    0.011982
   140  H   -0.001270
 Sum of Mulliken charges =  -0.00000

 Dipole moment (field-independent basis, Debye):
    X=             -4.0356    Y=              3.7424    Z=             -1.7461  Tot=              5.7741
 Quadrupole moment (field-independent basis, Debye-Ang):
   XX=           -391.2763   YY=           -414.4768   ZZ=           -414.3722
   XY=             14.0177   XZ=             16.0593   YZ=              6.7677

 Normal termination of Gaussian 16 at Fri Apr 29 16:30:45 2022.
