 Gaussian 16, Revision A.03,
 Gaussian 16:  ES64L-G16RevA.03 25-Dec-2016

 ---------------------------------
 #p PBE1PBE/Def2SVP td=(nstates=5)
 ---------------------------------

 -----------------------------------------------------
 step_401_chromophore_16 TDDFT with PBE1PBE functional
 -----------------------------------------------------
 Symbolic Z-matrix:
 Charge =  0 Multiplicity = 1

                         Standard orientation:
 ---------------------------------------------------------------------
 Center     Atomic      Atomic             Coordinates (Angstroms)
 Number     Number       Type             X           Y           Z
 ---------------------------------------------------------------------
      1         12           0        6.297961    0.578379    0.005862
      2          6           0        4.088703   -2.117845    0.126705
      3          6           0        3.645987    2.537982   -0.783087
      4          6           0        8.414350    3.243874   -0.202800
      5          6           0        8.934740   -1.576244    0.726096
      6          7           0        4.073269    0.198976   -0.259354
      7          6           0        3.406777   -0.937391   -0.106140
      8          6           0        1.861290   -0.769653   -0.597984
      9          6           0        1.838517    0.736697   -0.811215
     10          6           0        3.271704    1.197910   -0.662909
     11          6           0        1.167353    1.377129   -2.024190
     12          6           0        0.899206   -1.428658    0.421698
     13          6           0       -0.391869   -0.743438    0.795644
     14          6           0       -1.463211   -1.782762    1.044276
     15          8           0       -1.532139   -2.423247    2.119558
     16          8           0       -2.139144   -2.061759   -0.087819
     17          7           0        6.126238    2.680151   -0.456724
     18          6           0        4.893657    3.235666   -0.733339
     19          6           0        5.048330    4.672021   -0.836577
     20          6           0        6.415681    4.945661   -0.570746
     21          6           0        7.117190    3.590620   -0.423818
     22          6           0        3.907584    5.669502   -1.052263
     23          6           0        7.250768    6.264187   -0.605471
     24          8           0        8.483968    6.355557   -0.367820
     25          6           0        6.582710    7.462103   -0.861677
     26          7           0        8.401536    0.810025    0.160558
     27          6           0        9.021161    1.964374    0.000625
     28          6           0       10.490824    1.866186    0.402018
     29          6           0       10.666429    0.348126    0.737847
     30          6           0        9.280296   -0.229154    0.578615
     31          6           0       11.597288    2.528920   -0.559559
     32          6           0       11.292575    0.165402    2.118767
     33          6           0       10.476339    0.637449    3.333884
     34          7           0        6.481146   -1.374225    0.354017
     35          6           0        7.659170   -2.163295    0.624852
     36          6           0        7.365363   -3.539090    0.767642
     37          6           0        5.970800   -3.570261    0.659498
     38          6           0        5.479240   -2.233259    0.354941
     39          6           0        8.334849   -4.680662    0.841244
     40          6           0        4.790078   -4.447504    0.661926
     41          8           0        4.631287   -5.614839    0.817329
     42          6           0        3.571296   -3.580522    0.234690
     43          6           0        3.064130   -4.159330   -1.072267
     44          8           0        3.668949   -4.092514   -2.147283
     45          8           0        1.882303   -4.758759   -0.828497
     46          6           0        1.158350   -5.373505   -1.935719
     47          6           0       -3.198971   -3.109295   -0.088692
     48          6           0       -4.536226   -2.635020   -0.460135
     49          6           0       -5.774628   -3.225639   -0.357187
     50          6           0       -5.929774   -4.573162    0.283599
     51          6           0       -7.018091   -2.638512   -1.037248
     52          6           0       -7.811627   -1.642812   -0.173183
     53          6           0       -8.407677   -0.664134   -1.157689
     54          6           0       -9.398788    0.326007   -0.573924
     55          6           0       -9.223510    0.604254    0.968930
     56          6           0      -10.954765    0.102578   -0.880810
     57          6           0      -11.549792    0.647132   -2.248931
     58          6           0      -12.892164    1.436101   -2.254579
     59          6           0      -14.151476    0.795604   -1.606405
     60          6           0      -15.006259    0.017201   -2.637015
     61          6           0      -15.027403    1.738907   -0.769549
     62          6           0      -14.644995    1.559621    0.708577
     63          6           0      -14.933914    2.685033    1.650729
     64          6           0      -15.778681    2.270324    2.925920
     65          6           0      -15.083156    2.744093    4.140500
     66          6           0      -17.269035    2.750986    2.946254
     67          1           0        2.706159    3.091495   -0.734546
     68          1           0        9.186258    4.015939   -0.191752
     69          1           0        9.650379   -2.380762    0.902535
     70          1           0        1.707763   -1.190078   -1.592365
     71          1           0        1.347966    1.121995    0.082888
     72          1           0        1.900718    1.620771   -2.792135
     73          1           0        0.565545    2.202415   -1.643278
     74          1           0        0.379739    0.758201   -2.452328
     75          1           0        1.491549   -1.490824    1.334079
     76          1           0        0.762306   -2.472856    0.139700
     77          1           0       -0.836392   -0.119202    0.021275
     78          1           0       -0.330439   -0.175965    1.724600
     79          1           0        2.955647    5.177134   -0.851225
     80          1           0        4.129392    6.097355   -2.029685
     81          1           0        3.918849    6.507692   -0.355031
     82          1           0        5.999291    7.447914   -1.781831
     83          1           0        7.328771    8.253683   -0.929465
     84          1           0        5.915916    7.713969   -0.037142
     85          1           0       10.602815    2.390601    1.351533
     86          1           0       11.350755   -0.174273    0.069983
     87          1           0       10.955629    2.636734   -1.433662
     88          1           0       12.437524    1.835897   -0.509874
     89          1           0       11.966404    3.487876   -0.196148
     90          1           0       12.177087    0.801365    2.141755
     91          1           0       11.628318   -0.854295    2.309973
     92          1           0       10.760211   -0.030820    4.146271
     93          1           0        9.396023    0.669526    3.189203
     94          1           0       10.694968    1.662939    3.629612
     95          1           0        8.982443   -4.706149   -0.034408
     96          1           0        7.733018   -5.589273    0.861541
     97          1           0        8.979351   -4.663206    1.720310
     98          1           0        2.864997   -3.637036    1.063423
     99          1           0        1.615242   -5.262927   -2.918929
    100          1           0        0.149524   -4.959653   -1.946366
    101          1           0        1.108803   -6.448958   -1.763301
    102          1           0       -3.167141   -3.611541    0.877875
    103          1           0       -2.781637   -3.730493   -0.881206
    104          1           0       -4.463605   -1.696425   -1.009329
    105          1           0       -6.378751   -4.428179    1.266742
    106          1           0       -4.936018   -4.993676    0.434379
    107          1           0       -6.428401   -5.239007   -0.420879
    108          1           0       -7.694224   -3.426053   -1.369644
    109          1           0       -6.694149   -2.226781   -1.992885
    110          1           0       -7.255119   -1.157991    0.629259
    111          1           0       -8.555832   -2.218475    0.377253
    112          1           0       -8.981620   -1.170696   -1.933311
    113          1           0       -7.568831   -0.175004   -1.651944
    114          1           0       -9.198980    1.324572   -0.962292
    115          1           0       -9.514724    1.635096    1.171335
    116          1           0       -8.214005    0.643325    1.376929
    117          1           0       -9.741957   -0.148885    1.563572
    118          1           0      -11.522874    0.340871    0.018873
    119          1           0      -11.002114   -0.977278   -1.028130
    120          1           0      -11.648312   -0.140118   -2.995969
    121          1           0      -10.798116    1.357371   -2.593100
    122          1           0      -13.192503    1.889104   -3.200198
    123          1           0      -12.733577    2.287617   -1.592458
    124          1           0      -13.774461    0.019965   -0.940640
    125          1           0      -14.807192    0.314049   -3.666961
    126          1           0      -16.075577   -0.022682   -2.430643
    127          1           0      -14.865833   -1.044877   -2.440919
    128          1           0      -16.087893    1.552380   -0.940444
    129          1           0      -14.788520    2.749299   -1.099810
    130          1           0      -13.585957    1.376902    0.890984
    131          1           0      -15.173960    0.678204    1.072111
    132          1           0      -15.357096    3.532701    1.110580
    133          1           0      -13.998428    3.108452    2.017554
    134          1           0      -15.818435    1.185517    3.023148
    135          1           0      -14.315158    1.986108    4.291756
    136          1           0      -15.752221    2.730917    5.000530
    137          1           0      -14.565659    3.703848    4.099679
    138          1           0      -17.855067    1.905315    2.586011
    139          1           0      -17.481180    3.643444    2.357386
    140          1           0      -17.620378    2.922340    3.963837
 ---------------------------------------------------------------------

 SCF Done:  E(RPBE1PBE) =  -3005.36196408     A.U. after   15 cycles

 Excitation energies and oscillator strengths:

 Excited State   1:      Singlet-A      1.8959 eV  653.95 nm  f=0.3606  <S**2>=0.000
     245 -> 248       -0.18075
     246 -> 247        0.68596
 This state for optimization and/or second-order correction.
 Total Energy, E(TD-HF/TD-DFT) =  -3005.29229025
 Copying the excited state density for this state as the 1-particle RhoCI density.

 Excited State   2:      Singlet-A      2.2427 eV  552.84 nm  f=0.0951  <S**2>=0.000
     245 -> 247        0.64122
     246 -> 248        0.28210

 Excited State   3:      Singlet-A      3.0236 eV  410.06 nm  f=0.0014  <S**2>=0.000
     244 -> 247        0.67691
     244 -> 249        0.12408
     244 -> 250        0.10392

 Excited State   4:      Singlet-A      3.1179 eV  397.65 nm  f=0.0007  <S**2>=0.000
     240 -> 247        0.19874
     241 -> 247        0.60370
     241 -> 249       -0.17886
     242 -> 247       -0.19663

 Excited State   5:      Singlet-A      3.2031 eV  387.08 nm  f=0.0059  <S**2>=0.000
     241 -> 247        0.17114
     242 -> 247        0.65982

 The electronic state is 1-A.
 Alpha  occ. eigenvalues --  -46.91793 -19.26341 -19.26339 -19.19511 -19.19329
 Alpha  occ. eigenvalues --  -19.18968 -19.18578 -14.41437 -14.41385 -14.39167
 Alpha  occ. eigenvalues --  -14.38745 -10.36314 -10.36310 -10.32051 -10.31166
 Alpha  occ. eigenvalues --  -10.30003 -10.29085 -10.28547 -10.28534 -10.28532
 Alpha  occ. eigenvalues --  -10.28479 -10.28419 -10.27787 -10.26899 -10.26745
 Alpha  occ. eigenvalues --  -10.26267 -10.26253 -10.25774 -10.25588 -10.25377
 Alpha  occ. eigenvalues --  -10.25178 -10.25173 -10.25130 -10.25087 -10.24960
 Alpha  occ. eigenvalues --  -10.24928 -10.24823 -10.24743 -10.24673 -10.24517
 Alpha  occ. eigenvalues --  -10.23969 -10.23950 -10.23837 -10.23792 -10.23657
 Alpha  occ. eigenvalues --  -10.23614 -10.23538 -10.23491 -10.23487 -10.23428
 Alpha  occ. eigenvalues --  -10.23413 -10.23172 -10.23065 -10.22854 -10.22816
 Alpha  occ. eigenvalues --  -10.22774 -10.22741 -10.22720 -10.22357 -10.22308
 Alpha  occ. eigenvalues --  -10.22122 -10.21836 -10.21820 -10.21539 -10.21335
 Alpha  occ. eigenvalues --  -10.21023  -3.13917  -1.86776  -1.86268  -1.86160
 Alpha  occ. eigenvalues --   -1.11307  -1.10979  -1.05968  -1.03044  -1.02078
 Alpha  occ. eigenvalues --   -1.01245  -0.99600  -0.98094  -0.97452  -0.96859
 Alpha  occ. eigenvalues --   -0.85780  -0.85237  -0.84578  -0.83952  -0.83452
 Alpha  occ. eigenvalues --   -0.83096  -0.82665  -0.82029  -0.81861  -0.81725
 Alpha  occ. eigenvalues --   -0.80871  -0.80220  -0.79007  -0.78050  -0.77511
 Alpha  occ. eigenvalues --   -0.77289  -0.76734  -0.76105  -0.75644  -0.74687
 Alpha  occ. eigenvalues --   -0.74404  -0.72978  -0.72284  -0.71772  -0.70646
 Alpha  occ. eigenvalues --   -0.70159  -0.69416  -0.69379  -0.69226  -0.68701
 Alpha  occ. eigenvalues --   -0.68079  -0.67585  -0.66487  -0.65448  -0.64138
 Alpha  occ. eigenvalues --   -0.63556  -0.62216  -0.61765  -0.61082  -0.60095
 Alpha  occ. eigenvalues --   -0.59845  -0.59179  -0.59161  -0.58335  -0.57782
 Alpha  occ. eigenvalues --   -0.57682  -0.57175  -0.56672  -0.55857  -0.54739
 Alpha  occ. eigenvalues --   -0.54533  -0.54194  -0.53906  -0.53218  -0.52548
 Alpha  occ. eigenvalues --   -0.52330  -0.51854  -0.50718  -0.50250  -0.50162
 Alpha  occ. eigenvalues --   -0.50087  -0.49701  -0.49419  -0.49331  -0.48597
 Alpha  occ. eigenvalues --   -0.48145  -0.47900  -0.47845  -0.47594  -0.47484
 Alpha  occ. eigenvalues --   -0.47370  -0.47184  -0.46686  -0.46590  -0.46273
 Alpha  occ. eigenvalues --   -0.45965  -0.45879  -0.45635  -0.45484  -0.45369
 Alpha  occ. eigenvalues --   -0.45086  -0.45044  -0.44869  -0.44701  -0.44581
 Alpha  occ. eigenvalues --   -0.44280  -0.44091  -0.43962  -0.43829  -0.43611
 Alpha  occ. eigenvalues --   -0.43478  -0.43451  -0.43163  -0.42952  -0.42617
 Alpha  occ. eigenvalues --   -0.42434  -0.42298  -0.41935  -0.41695  -0.41244
 Alpha  occ. eigenvalues --   -0.41020  -0.40956  -0.40877  -0.40846  -0.40577
 Alpha  occ. eigenvalues --   -0.40564  -0.40198  -0.40166  -0.40154  -0.39943
 Alpha  occ. eigenvalues --   -0.39793  -0.39385  -0.39332  -0.38771  -0.38667
 Alpha  occ. eigenvalues --   -0.38459  -0.38122  -0.37951  -0.37868  -0.37786
 Alpha  occ. eigenvalues --   -0.37626  -0.37473  -0.37095  -0.36904  -0.36579
 Alpha  occ. eigenvalues --   -0.36344  -0.36143  -0.36035  -0.35995  -0.35566
 Alpha  occ. eigenvalues --   -0.35468  -0.35393  -0.34979  -0.34828  -0.34748
 Alpha  occ. eigenvalues --   -0.34399  -0.34310  -0.34059  -0.33845  -0.33738
 Alpha  occ. eigenvalues --   -0.33558  -0.33204  -0.32827  -0.32468  -0.32391
 Alpha  occ. eigenvalues --   -0.32072  -0.31639  -0.31537  -0.31431  -0.31339
 Alpha  occ. eigenvalues --   -0.31177  -0.30573  -0.29868  -0.29662  -0.29412
 Alpha  occ. eigenvalues --   -0.29032  -0.28658  -0.27956  -0.26945  -0.26004
 Alpha  occ. eigenvalues --   -0.25878  -0.25421  -0.25273  -0.25004  -0.20778
 Alpha  occ. eigenvalues --   -0.18696
 Alpha virt. eigenvalues --   -0.10813  -0.05342  -0.03660  -0.01611  -0.00244
 Alpha virt. eigenvalues --    0.00603   0.00988   0.01121   0.01730   0.02545
 Alpha virt. eigenvalues --    0.03503   0.04598   0.05031   0.05192   0.05619

 Mulliken charges:
               1
     1  Mg   0.975773
     2  C    0.008620
     3  C   -0.087006
     4  C   -0.070145
     5  C   -0.053836
     6  N   -0.339810
     7  C   -0.018089
     8  C   -0.107691
     9  C   -0.118921
    10  C    0.004130
    11  C    0.030949
    12  C    0.005279
    13  C    0.027426
    14  C    0.200309
    15  O   -0.304215
    16  O   -0.371507
    17  N   -0.471154
    18  C    0.219760
    19  C   -0.194474
    20  C   -0.091682
    21  C    0.182482
    22  C    0.066932
    23  C    0.083448
    24  O   -0.273499
    25  C   -0.012619
    26  N   -0.409895
    27  C    0.080038
    28  C   -0.167361
    29  C   -0.052106
    30  C    0.118868
    31  C    0.009859
    32  C   -0.054580
    33  C   -0.081746
    34  N   -0.522059
    35  C    0.091429
    36  C   -0.170113
    37  C   -0.062581
    38  C    0.164854
    39  C    0.061248
    40  C    0.125633
    41  O   -0.184215
    42  C   -0.131674
    43  C    0.305966
    44  O   -0.267070
    45  O   -0.341161
    46  C    0.113730
    47  C    0.242604
    48  C   -0.125828
    49  C   -0.241556
    50  C    0.029420
    51  C    0.017287
    52  C   -0.025225
    53  C   -0.005435
    54  C   -0.183840
    55  C   -0.048060
    56  C   -0.035147
    57  C   -0.022836
    58  C   -0.005309
    59  C   -0.240772
    60  C   -0.000075
    61  C    0.034150
    62  C   -0.092485
    63  C    0.023922
    64  C   -0.241520
    65  C   -0.026602
    66  C   -0.011814
    67  H    0.007022
    68  H    0.024939
    69  H   -0.001510
    70  H    0.052191
    71  H    0.051672
    72  H    0.064876
    73  H    0.036729
    74  H    0.035185
    75  H    0.048427
    76  H    0.073637
    77  H    0.046901
    78  H    0.061688
    79  H    0.049243
    80  H    0.067748
    81  H    0.047812
    82  H    0.052852
    83  H    0.056312
    84  H    0.067975
    85  H    0.060162
    86  H    0.040316
    87  H    0.064501
    88  H    0.047125
    89  H    0.051499
    90  H    0.036070
    91  H    0.039226
    92  H    0.044648
    93  H    0.053995
    94  H    0.039531
    95  H    0.058769
    96  H    0.065191
    97  H    0.050874
    98  H    0.075707
    99  H    0.069684
   100  H    0.054207
   101  H    0.064431
   102  H    0.074403
   103  H    0.056149
   104  H    0.025021
   105  H    0.064623
   106  H    0.029426
   107  H    0.052141
   108  H    0.026494
   109  H    0.035824
   110  H    0.040650
   111  H    0.027280
   112  H    0.025232
   113  H    0.032981
   114  H    0.026412
   115  H    0.036929
   116  H    0.026854
   117  H    0.039842
   118  H    0.043453
   119  H    0.023824
   120  H    0.035309
   121  H    0.030661
   122  H    0.028603
   123  H    0.013316
   124  H    0.037552
   125  H    0.039024
   126  H    0.016349
   127  H    0.019019
   128  H    0.028403
   129  H    0.021338
   130  H    0.038494
   131  H    0.032040
   132  H    0.019596
   133  H    0.016198
   134  H    0.032295
   135  H    0.025665
   136  H    0.026719
   137  H    0.040702
   138  H    0.028934
   139  H    0.038596
   140  H    0.025613
 Sum of Mulliken charges =  -0.00000

 Dipole moment (field-independent basis, Debye):
    X=             -3.8924    Y=              3.0258    Z=             -1.5770  Tot=              5.1762
 Quadrupole moment (field-independent basis, Debye-Ang):
   XX=           -383.9663   YY=           -412.7477   ZZ=           -411.9720
   XY=              9.4387   XZ=             17.6151   YZ=              6.9447

 Normal termination of Gaussian 16 at Fri Apr 29 16:50:19 2022.
