 Gaussian 16, Revision A.03,
 Gaussian 16:  ES64L-G16RevA.03 25-Dec-2016

 --------------------------------
 #p wB97XD/Def2SVP td=(nstates=5)
 --------------------------------

 ----------------------------------------------------
 step_401_chromophore_16 TDDFT with wB97XD functional
 ----------------------------------------------------
 Symbolic Z-matrix:
 Charge =  0 Multiplicity = 1

                         Standard orientation:
 ---------------------------------------------------------------------
 Center     Atomic      Atomic             Coordinates (Angstroms)
 Number     Number       Type             X           Y           Z
 ---------------------------------------------------------------------
      1         12           0        6.297961    0.578379    0.005862
      2          6           0        4.088703   -2.117845    0.126705
      3          6           0        3.645987    2.537982   -0.783087
      4          6           0        8.414350    3.243874   -0.202800
      5          6           0        8.934740   -1.576244    0.726096
      6          7           0        4.073269    0.198976   -0.259354
      7          6           0        3.406777   -0.937391   -0.106140
      8          6           0        1.861290   -0.769653   -0.597984
      9          6           0        1.838517    0.736697   -0.811215
     10          6           0        3.271704    1.197910   -0.662909
     11          6           0        1.167353    1.377129   -2.024190
     12          6           0        0.899206   -1.428658    0.421698
     13          6           0       -0.391869   -0.743438    0.795644
     14          6           0       -1.463211   -1.782762    1.044276
     15          8           0       -1.532139   -2.423247    2.119558
     16          8           0       -2.139144   -2.061759   -0.087819
     17          7           0        6.126238    2.680151   -0.456724
     18          6           0        4.893657    3.235666   -0.733339
     19          6           0        5.048330    4.672021   -0.836577
     20          6           0        6.415681    4.945661   -0.570746
     21          6           0        7.117190    3.590620   -0.423818
     22          6           0        3.907584    5.669502   -1.052263
     23          6           0        7.250768    6.264187   -0.605471
     24          8           0        8.483968    6.355557   -0.367820
     25          6           0        6.582710    7.462103   -0.861677
     26          7           0        8.401536    0.810025    0.160558
     27          6           0        9.021161    1.964374    0.000625
     28          6           0       10.490824    1.866186    0.402018
     29          6           0       10.666429    0.348126    0.737847
     30          6           0        9.280296   -0.229154    0.578615
     31          6           0       11.597288    2.528920   -0.559559
     32          6           0       11.292575    0.165402    2.118767
     33          6           0       10.476339    0.637449    3.333884
     34          7           0        6.481146   -1.374225    0.354017
     35          6           0        7.659170   -2.163295    0.624852
     36          6           0        7.365363   -3.539090    0.767642
     37          6           0        5.970800   -3.570261    0.659498
     38          6           0        5.479240   -2.233259    0.354941
     39          6           0        8.334849   -4.680662    0.841244
     40          6           0        4.790078   -4.447504    0.661926
     41          8           0        4.631287   -5.614839    0.817329
     42          6           0        3.571296   -3.580522    0.234690
     43          6           0        3.064130   -4.159330   -1.072267
     44          8           0        3.668949   -4.092514   -2.147283
     45          8           0        1.882303   -4.758759   -0.828497
     46          6           0        1.158350   -5.373505   -1.935719
     47          6           0       -3.198971   -3.109295   -0.088692
     48          6           0       -4.536226   -2.635020   -0.460135
     49          6           0       -5.774628   -3.225639   -0.357187
     50          6           0       -5.929774   -4.573162    0.283599
     51          6           0       -7.018091   -2.638512   -1.037248
     52          6           0       -7.811627   -1.642812   -0.173183
     53          6           0       -8.407677   -0.664134   -1.157689
     54          6           0       -9.398788    0.326007   -0.573924
     55          6           0       -9.223510    0.604254    0.968930
     56          6           0      -10.954765    0.102578   -0.880810
     57          6           0      -11.549792    0.647132   -2.248931
     58          6           0      -12.892164    1.436101   -2.254579
     59          6           0      -14.151476    0.795604   -1.606405
     60          6           0      -15.006259    0.017201   -2.637015
     61          6           0      -15.027403    1.738907   -0.769549
     62          6           0      -14.644995    1.559621    0.708577
     63          6           0      -14.933914    2.685033    1.650729
     64          6           0      -15.778681    2.270324    2.925920
     65          6           0      -15.083156    2.744093    4.140500
     66          6           0      -17.269035    2.750986    2.946254
     67          1           0        2.706159    3.091495   -0.734546
     68          1           0        9.186258    4.015939   -0.191752
     69          1           0        9.650379   -2.380762    0.902535
     70          1           0        1.707763   -1.190078   -1.592365
     71          1           0        1.347966    1.121995    0.082888
     72          1           0        1.900718    1.620771   -2.792135
     73          1           0        0.565545    2.202415   -1.643278
     74          1           0        0.379739    0.758201   -2.452328
     75          1           0        1.491549   -1.490824    1.334079
     76          1           0        0.762306   -2.472856    0.139700
     77          1           0       -0.836392   -0.119202    0.021275
     78          1           0       -0.330439   -0.175965    1.724600
     79          1           0        2.955647    5.177134   -0.851225
     80          1           0        4.129392    6.097355   -2.029685
     81          1           0        3.918849    6.507692   -0.355031
     82          1           0        5.999291    7.447914   -1.781831
     83          1           0        7.328771    8.253683   -0.929465
     84          1           0        5.915916    7.713969   -0.037142
     85          1           0       10.602815    2.390601    1.351533
     86          1           0       11.350755   -0.174273    0.069983
     87          1           0       10.955629    2.636734   -1.433662
     88          1           0       12.437524    1.835897   -0.509874
     89          1           0       11.966404    3.487876   -0.196148
     90          1           0       12.177087    0.801365    2.141755
     91          1           0       11.628318   -0.854295    2.309973
     92          1           0       10.760211   -0.030820    4.146271
     93          1           0        9.396023    0.669526    3.189203
     94          1           0       10.694968    1.662939    3.629612
     95          1           0        8.982443   -4.706149   -0.034408
     96          1           0        7.733018   -5.589273    0.861541
     97          1           0        8.979351   -4.663206    1.720310
     98          1           0        2.864997   -3.637036    1.063423
     99          1           0        1.615242   -5.262927   -2.918929
    100          1           0        0.149524   -4.959653   -1.946366
    101          1           0        1.108803   -6.448958   -1.763301
    102          1           0       -3.167141   -3.611541    0.877875
    103          1           0       -2.781637   -3.730493   -0.881206
    104          1           0       -4.463605   -1.696425   -1.009329
    105          1           0       -6.378751   -4.428179    1.266742
    106          1           0       -4.936018   -4.993676    0.434379
    107          1           0       -6.428401   -5.239007   -0.420879
    108          1           0       -7.694224   -3.426053   -1.369644
    109          1           0       -6.694149   -2.226781   -1.992885
    110          1           0       -7.255119   -1.157991    0.629259
    111          1           0       -8.555832   -2.218475    0.377253
    112          1           0       -8.981620   -1.170696   -1.933311
    113          1           0       -7.568831   -0.175004   -1.651944
    114          1           0       -9.198980    1.324572   -0.962292
    115          1           0       -9.514724    1.635096    1.171335
    116          1           0       -8.214005    0.643325    1.376929
    117          1           0       -9.741957   -0.148885    1.563572
    118          1           0      -11.522874    0.340871    0.018873
    119          1           0      -11.002114   -0.977278   -1.028130
    120          1           0      -11.648312   -0.140118   -2.995969
    121          1           0      -10.798116    1.357371   -2.593100
    122          1           0      -13.192503    1.889104   -3.200198
    123          1           0      -12.733577    2.287617   -1.592458
    124          1           0      -13.774461    0.019965   -0.940640
    125          1           0      -14.807192    0.314049   -3.666961
    126          1           0      -16.075577   -0.022682   -2.430643
    127          1           0      -14.865833   -1.044877   -2.440919
    128          1           0      -16.087893    1.552380   -0.940444
    129          1           0      -14.788520    2.749299   -1.099810
    130          1           0      -13.585957    1.376902    0.890984
    131          1           0      -15.173960    0.678204    1.072111
    132          1           0      -15.357096    3.532701    1.110580
    133          1           0      -13.998428    3.108452    2.017554
    134          1           0      -15.818435    1.185517    3.023148
    135          1           0      -14.315158    1.986108    4.291756
    136          1           0      -15.752221    2.730917    5.000530
    137          1           0      -14.565659    3.703848    4.099679
    138          1           0      -17.855067    1.905315    2.586011
    139          1           0      -17.481180    3.643444    2.357386
    140          1           0      -17.620378    2.922340    3.963837
 ---------------------------------------------------------------------

 SCF Done:  E(RwB97XD) =  -3007.86940803     A.U. after   19 cycles

 Excitation energies and oscillator strengths:

 Excited State   1:      Singlet-A      1.7517 eV  707.81 nm  f=0.3712  <S**2>=0.000
     245 -> 248        0.18732
     246 -> 247        0.67834
     245 <- 248        0.11156
 This state for optimization and/or second-order correction.
 Total Energy, E(TD-HF/TD-DFT) =  -3007.80503533
 Copying the excited state density for this state as the 1-particle RhoCI density.

 Excited State   2:      Singlet-A      2.1920 eV  565.63 nm  f=0.0927  <S**2>=0.000
     245 -> 247        0.62527
     246 -> 248       -0.30942

 Excited State   3:      Singlet-A      3.4564 eV  358.71 nm  f=0.3794  <S**2>=0.000
     239 -> 247        0.11373
     241 -> 247        0.34355
     243 -> 247        0.23493
     245 -> 247        0.20427
     246 -> 248        0.48917

 Excited State   4:      Singlet-A      3.5769 eV  346.63 nm  f=0.0713  <S**2>=0.000
     239 -> 247        0.15557
     239 -> 249       -0.12683
     240 -> 247        0.48708
     240 -> 248       -0.10509
     240 -> 249       -0.34228
     240 -> 250        0.14946
     246 -> 248        0.16186

 Excited State   5:      Singlet-A      3.6330 eV  341.27 nm  f=0.2921  <S**2>=0.000
     239 -> 247        0.11724
     240 -> 247        0.11995
     241 -> 247        0.17653
     243 -> 247        0.43062
     244 -> 247       -0.27635
     245 -> 247       -0.18864
     246 -> 248       -0.32405

 The electronic state is 1-A.
 Alpha  occ. eigenvalues --  -46.94725 -19.30872 -19.30794 -19.24130 -19.24082
 Alpha  occ. eigenvalues --  -19.23957 -19.23033 -14.46538 -14.46419 -14.44268
 Alpha  occ. eigenvalues --  -14.43497 -10.43054 -10.43022 -10.39252 -10.37694
 Alpha  occ. eigenvalues --  -10.36490 -10.35505 -10.35412 -10.35146 -10.35094
 Alpha  occ. eigenvalues --  -10.34550 -10.34532 -10.34319 -10.33864 -10.32613
 Alpha  occ. eigenvalues --  -10.32503 -10.32478 -10.32234 -10.32007 -10.31928
 Alpha  occ. eigenvalues --  -10.31719 -10.31371 -10.31332 -10.31322 -10.31210
 Alpha  occ. eigenvalues --  -10.31132 -10.31127 -10.31002 -10.30925 -10.30783
 Alpha  occ. eigenvalues --  -10.30441 -10.30244 -10.30228 -10.30176 -10.30038
 Alpha  occ. eigenvalues --  -10.30033 -10.29935 -10.29853 -10.29818 -10.29778
 Alpha  occ. eigenvalues --  -10.29707 -10.29671 -10.29561 -10.29341 -10.29236
 Alpha  occ. eigenvalues --  -10.29119 -10.29007 -10.28778 -10.28631 -10.28607
 Alpha  occ. eigenvalues --  -10.28498 -10.28211 -10.28188 -10.27960 -10.27760
 Alpha  occ. eigenvalues --  -10.27458  -3.20704  -1.94314  -1.93808  -1.93689
 Alpha  occ. eigenvalues --   -1.18586  -1.18334  -1.13094  -1.10894  -1.09327
 Alpha  occ. eigenvalues --   -1.08566  -1.06968  -1.05594  -1.04839  -1.04086
 Alpha  occ. eigenvalues --   -0.93229  -0.92907  -0.92201  -0.91618  -0.91095
 Alpha  occ. eigenvalues --   -0.90752  -0.90342  -0.89754  -0.89549  -0.89136
 Alpha  occ. eigenvalues --   -0.88566  -0.87847  -0.86695  -0.85873  -0.85178
 Alpha  occ. eigenvalues --   -0.84933  -0.84407  -0.83717  -0.83199  -0.82297
 Alpha  occ. eigenvalues --   -0.82040  -0.80539  -0.80185  -0.79351  -0.78124
 Alpha  occ. eigenvalues --   -0.77835  -0.77113  -0.76949  -0.76911  -0.76366
 Alpha  occ. eigenvalues --   -0.75678  -0.75039  -0.74078  -0.73033  -0.71643
 Alpha  occ. eigenvalues --   -0.71183  -0.69753  -0.69408  -0.68749  -0.67517
 Alpha  occ. eigenvalues --   -0.67501  -0.66721  -0.66508  -0.65748  -0.65359
 Alpha  occ. eigenvalues --   -0.65238  -0.64805  -0.63948  -0.63465  -0.62253
 Alpha  occ. eigenvalues --   -0.62192  -0.61647  -0.61241  -0.60604  -0.59897
 Alpha  occ. eigenvalues --   -0.59748  -0.59263  -0.58196  -0.57704  -0.57589
 Alpha  occ. eigenvalues --   -0.57530  -0.57045  -0.56791  -0.56694  -0.55858
 Alpha  occ. eigenvalues --   -0.55584  -0.55441  -0.55264  -0.55067  -0.55022
 Alpha  occ. eigenvalues --   -0.54785  -0.54569  -0.53993  -0.53942  -0.53645
 Alpha  occ. eigenvalues --   -0.53308  -0.53158  -0.53047  -0.52996  -0.52710
 Alpha  occ. eigenvalues --   -0.52402  -0.52328  -0.52208  -0.51956  -0.51928
 Alpha  occ. eigenvalues --   -0.51714  -0.51465  -0.51163  -0.51069  -0.50831
 Alpha  occ. eigenvalues --   -0.50804  -0.50774  -0.50632  -0.50369  -0.50001
 Alpha  occ. eigenvalues --   -0.49745  -0.49515  -0.49205  -0.48930  -0.48486
 Alpha  occ. eigenvalues --   -0.48268  -0.48151  -0.48084  -0.47970  -0.47774
 Alpha  occ. eigenvalues --   -0.47548  -0.47420  -0.47392  -0.47323  -0.47110
 Alpha  occ. eigenvalues --   -0.46900  -0.46553  -0.46391  -0.45901  -0.45646
 Alpha  occ. eigenvalues --   -0.45570  -0.45463  -0.45118  -0.44965  -0.44869
 Alpha  occ. eigenvalues --   -0.44782  -0.44615  -0.44093  -0.44005  -0.43713
 Alpha  occ. eigenvalues --   -0.43426  -0.43176  -0.43106  -0.42985  -0.42942
 Alpha  occ. eigenvalues --   -0.42534  -0.42445  -0.41959  -0.41911  -0.41697
 Alpha  occ. eigenvalues --   -0.41435  -0.41347  -0.41069  -0.40905  -0.40640
 Alpha  occ. eigenvalues --   -0.40617  -0.40195  -0.39895  -0.39452  -0.39341
 Alpha  occ. eigenvalues --   -0.39042  -0.38692  -0.38567  -0.38365  -0.38191
 Alpha  occ. eigenvalues --   -0.38138  -0.37593  -0.36877  -0.36533  -0.36222
 Alpha  occ. eigenvalues --   -0.35926  -0.35416  -0.35009  -0.33672  -0.33410
 Alpha  occ. eigenvalues --   -0.32550  -0.31988  -0.31939  -0.31653  -0.25821
 Alpha  occ. eigenvalues --   -0.22893
 Alpha virt. eigenvalues --   -0.06579   0.00084   0.02505   0.04991   0.06431
 Alpha virt. eigenvalues --    0.06815   0.07615   0.07977   0.08255   0.09024
 Alpha virt. eigenvalues --    0.09934   0.11517   0.11796   0.11821   0.12594

 Mulliken charges:
               1
     1  Mg   0.965565
     2  C    0.004746
     3  C   -0.108790
     4  C   -0.085841
     5  C   -0.067907
     6  N   -0.303084
     7  C   -0.052969
     8  C   -0.086192
     9  C   -0.093685
    10  C   -0.004061
    11  C    0.041928
    12  C    0.019176
    13  C    0.044699
    14  C    0.190746
    15  O   -0.302103
    16  O   -0.370981
    17  N   -0.440015
    18  C    0.217882
    19  C   -0.180915
    20  C   -0.088377
    21  C    0.176063
    22  C    0.080554
    23  C    0.085121
    24  O   -0.264517
    25  C   -0.005992
    26  N   -0.373701
    27  C    0.066046
    28  C   -0.145338
    29  C   -0.023836
    30  C    0.098728
    31  C    0.024586
    32  C   -0.036996
    33  C   -0.067070
    34  N   -0.484640
    35  C    0.084245
    36  C   -0.171261
    37  C   -0.058646
    38  C    0.143336
    39  C    0.069649
    40  C    0.106790
    41  O   -0.177996
    42  C   -0.089732
    43  C    0.280452
    44  O   -0.261958
    45  O   -0.339259
    46  C    0.129633
    47  C    0.255096
    48  C   -0.138020
    49  C   -0.225612
    50  C    0.043436
    51  C    0.035054
    52  C   -0.009300
    53  C    0.013230
    54  C   -0.160838
    55  C   -0.032829
    56  C   -0.015233
    57  C   -0.004080
    58  C    0.010003
    59  C   -0.210221
    60  C    0.010071
    61  C    0.049619
    62  C   -0.068185
    63  C    0.033366
    64  C   -0.211186
    65  C   -0.012387
    66  C   -0.000195
    67  H   -0.004987
    68  H    0.019992
    69  H   -0.007010
    70  H    0.042938
    71  H    0.037892
    72  H    0.059120
    73  H    0.031432
    74  H    0.030794
    75  H    0.039917
    76  H    0.061185
    77  H    0.038807
    78  H    0.057092
    79  H    0.047326
    80  H    0.063278
    81  H    0.043520
    82  H    0.048272
    83  H    0.056826
    84  H    0.064013
    85  H    0.045714
    86  H    0.030512
    87  H    0.056718
    88  H    0.042101
    89  H    0.046735
    90  H    0.024884
    91  H    0.032597
    92  H    0.039919
    93  H    0.044881
    94  H    0.033035
    95  H    0.052790
    96  H    0.061115
    97  H    0.044989
    98  H    0.068354
    99  H    0.065916
   100  H    0.049980
   101  H    0.060145
   102  H    0.070539
   103  H    0.052386
   104  H    0.021723
   105  H    0.059425
   106  H    0.022947
   107  H    0.046897
   108  H    0.019582
   109  H    0.026941
   110  H    0.030179
   111  H    0.018339
   112  H    0.013878
   113  H    0.024681
   114  H    0.014120
   115  H    0.031366
   116  H    0.020260
   117  H    0.032353
   118  H    0.028886
   119  H    0.012730
   120  H    0.027779
   121  H    0.021522
   122  H    0.021710
   123  H    0.001103
   124  H    0.019796
   125  H    0.033578
   126  H    0.010133
   127  H    0.013280
   128  H    0.021135
   129  H    0.011093
   130  H    0.025652
   131  H    0.021323
   132  H    0.010969
   133  H    0.007567
   134  H    0.021334
   135  H    0.018439
   136  H    0.020268
   137  H    0.034452
   138  H    0.022819
   139  H    0.033019
   140  H    0.019138
 Sum of Mulliken charges =  -0.00000

 Dipole moment (field-independent basis, Debye):
    X=             -4.0704    Y=              4.0163    Z=             -1.7973  Tot=              5.9941
 Quadrupole moment (field-independent basis, Debye-Ang):
   XX=           -386.0941   YY=           -409.5610   ZZ=           -411.6900
   XY=             15.4847   XZ=             16.3476   YZ=              6.6483

 Normal termination of Gaussian 16 at Fri Apr 29 17:18:25 2022.
