 Gaussian 16, Revision A.03,
 Gaussian 16:  ES64L-G16RevA.03 25-Dec-2016

 --------------------
 #p ZINDO=(nstates=5)
 --------------------

 -----------------------------
 step_401_chromophore_16 ZINDO
 -----------------------------
 Symbolic Z-matrix:
 Charge =  0 Multiplicity = 1

                         Standard orientation:
 ---------------------------------------------------------------------
 Center     Atomic      Atomic             Coordinates (Angstroms)
 Number     Number       Type             X           Y           Z
 ---------------------------------------------------------------------
      1         12           0        6.297961    0.578379    0.005862
      2          6           0        4.088703   -2.117845    0.126705
      3          6           0        3.645987    2.537982   -0.783087
      4          6           0        8.414350    3.243874   -0.202800
      5          6           0        8.934740   -1.576244    0.726096
      6          7           0        4.073269    0.198976   -0.259354
      7          6           0        3.406777   -0.937391   -0.106140
      8          6           0        1.861290   -0.769653   -0.597984
      9          6           0        1.838517    0.736697   -0.811215
     10          6           0        3.271704    1.197910   -0.662909
     11          6           0        1.167353    1.377129   -2.024190
     12          6           0        0.899206   -1.428658    0.421698
     13          6           0       -0.391869   -0.743438    0.795644
     14          6           0       -1.463211   -1.782762    1.044276
     15          8           0       -1.532139   -2.423247    2.119558
     16          8           0       -2.139144   -2.061759   -0.087819
     17          7           0        6.126238    2.680151   -0.456724
     18          6           0        4.893657    3.235666   -0.733339
     19          6           0        5.048330    4.672021   -0.836577
     20          6           0        6.415681    4.945661   -0.570746
     21          6           0        7.117190    3.590620   -0.423818
     22          6           0        3.907584    5.669502   -1.052263
     23          6           0        7.250768    6.264187   -0.605471
     24          8           0        8.483968    6.355557   -0.367820
     25          6           0        6.582710    7.462103   -0.861677
     26          7           0        8.401536    0.810025    0.160558
     27          6           0        9.021161    1.964374    0.000625
     28          6           0       10.490824    1.866186    0.402018
     29          6           0       10.666429    0.348126    0.737847
     30          6           0        9.280296   -0.229154    0.578615
     31          6           0       11.597288    2.528920   -0.559559
     32          6           0       11.292575    0.165402    2.118767
     33          6           0       10.476339    0.637449    3.333884
     34          7           0        6.481146   -1.374225    0.354017
     35          6           0        7.659170   -2.163295    0.624852
     36          6           0        7.365363   -3.539090    0.767642
     37          6           0        5.970800   -3.570261    0.659498
     38          6           0        5.479240   -2.233259    0.354941
     39          6           0        8.334849   -4.680662    0.841244
     40          6           0        4.790078   -4.447504    0.661926
     41          8           0        4.631287   -5.614839    0.817329
     42          6           0        3.571296   -3.580522    0.234690
     43          6           0        3.064130   -4.159330   -1.072267
     44          8           0        3.668949   -4.092514   -2.147283
     45          8           0        1.882303   -4.758759   -0.828497
     46          6           0        1.158350   -5.373505   -1.935719
     47          6           0       -3.198971   -3.109295   -0.088692
     48          6           0       -4.536226   -2.635020   -0.460135
     49          6           0       -5.774628   -3.225639   -0.357187
     50          6           0       -5.929774   -4.573162    0.283599
     51          6           0       -7.018091   -2.638512   -1.037248
     52          6           0       -7.811627   -1.642812   -0.173183
     53          6           0       -8.407677   -0.664134   -1.157689
     54          6           0       -9.398788    0.326007   -0.573924
     55          6           0       -9.223510    0.604254    0.968930
     56          6           0      -10.954765    0.102578   -0.880810
     57          6           0      -11.549792    0.647132   -2.248931
     58          6           0      -12.892164    1.436101   -2.254579
     59          6           0      -14.151476    0.795604   -1.606405
     60          6           0      -15.006259    0.017201   -2.637015
     61          6           0      -15.027403    1.738907   -0.769549
     62          6           0      -14.644995    1.559621    0.708577
     63          6           0      -14.933914    2.685033    1.650729
     64          6           0      -15.778681    2.270324    2.925920
     65          6           0      -15.083156    2.744093    4.140500
     66          6           0      -17.269035    2.750986    2.946254
     67          1           0        2.706159    3.091495   -0.734546
     68          1           0        9.186258    4.015939   -0.191752
     69          1           0        9.650379   -2.380762    0.902535
     70          1           0        1.707763   -1.190078   -1.592365
     71          1           0        1.347966    1.121995    0.082888
     72          1           0        1.900718    1.620771   -2.792135
     73          1           0        0.565545    2.202415   -1.643278
     74          1           0        0.379739    0.758201   -2.452328
     75          1           0        1.491549   -1.490824    1.334079
     76          1           0        0.762306   -2.472856    0.139700
     77          1           0       -0.836392   -0.119202    0.021275
     78          1           0       -0.330439   -0.175965    1.724600
     79          1           0        2.955647    5.177134   -0.851225
     80          1           0        4.129392    6.097355   -2.029685
     81          1           0        3.918849    6.507692   -0.355031
     82          1           0        5.999291    7.447914   -1.781831
     83          1           0        7.328771    8.253683   -0.929465
     84          1           0        5.915916    7.713969   -0.037142
     85          1           0       10.602815    2.390601    1.351533
     86          1           0       11.350755   -0.174273    0.069983
     87          1           0       10.955629    2.636734   -1.433662
     88          1           0       12.437524    1.835897   -0.509874
     89          1           0       11.966404    3.487876   -0.196148
     90          1           0       12.177087    0.801365    2.141755
     91          1           0       11.628318   -0.854295    2.309973
     92          1           0       10.760211   -0.030820    4.146271
     93          1           0        9.396023    0.669526    3.189203
     94          1           0       10.694968    1.662939    3.629612
     95          1           0        8.982443   -4.706149   -0.034408
     96          1           0        7.733018   -5.589273    0.861541
     97          1           0        8.979351   -4.663206    1.720310
     98          1           0        2.864997   -3.637036    1.063423
     99          1           0        1.615242   -5.262927   -2.918929
    100          1           0        0.149524   -4.959653   -1.946366
    101          1           0        1.108803   -6.448958   -1.763301
    102          1           0       -3.167141   -3.611541    0.877875
    103          1           0       -2.781637   -3.730493   -0.881206
    104          1           0       -4.463605   -1.696425   -1.009329
    105          1           0       -6.378751   -4.428179    1.266742
    106          1           0       -4.936018   -4.993676    0.434379
    107          1           0       -6.428401   -5.239007   -0.420879
    108          1           0       -7.694224   -3.426053   -1.369644
    109          1           0       -6.694149   -2.226781   -1.992885
    110          1           0       -7.255119   -1.157991    0.629259
    111          1           0       -8.555832   -2.218475    0.377253
    112          1           0       -8.981620   -1.170696   -1.933311
    113          1           0       -7.568831   -0.175004   -1.651944
    114          1           0       -9.198980    1.324572   -0.962292
    115          1           0       -9.514724    1.635096    1.171335
    116          1           0       -8.214005    0.643325    1.376929
    117          1           0       -9.741957   -0.148885    1.563572
    118          1           0      -11.522874    0.340871    0.018873
    119          1           0      -11.002114   -0.977278   -1.028130
    120          1           0      -11.648312   -0.140118   -2.995969
    121          1           0      -10.798116    1.357371   -2.593100
    122          1           0      -13.192503    1.889104   -3.200198
    123          1           0      -12.733577    2.287617   -1.592458
    124          1           0      -13.774461    0.019965   -0.940640
    125          1           0      -14.807192    0.314049   -3.666961
    126          1           0      -16.075577   -0.022682   -2.430643
    127          1           0      -14.865833   -1.044877   -2.440919
    128          1           0      -16.087893    1.552380   -0.940444
    129          1           0      -14.788520    2.749299   -1.099810
    130          1           0      -13.585957    1.376902    0.890984
    131          1           0      -15.173960    0.678204    1.072111
    132          1           0      -15.357096    3.532701    1.110580
    133          1           0      -13.998428    3.108452    2.017554
    134          1           0      -15.818435    1.185517    3.023148
    135          1           0      -14.315158    1.986108    4.291756
    136          1           0      -15.752221    2.730917    5.000530
    137          1           0      -14.565659    3.703848    4.099679
    138          1           0      -17.855067    1.905315    2.586011
    139          1           0      -17.481180    3.643444    2.357386
    140          1           0      -17.620378    2.922340    3.963837
 ---------------------------------------------------------------------

 SCF Done:  E(RZINDO/S) =  -474.429913306     A.U. after   19 cycles

 Excitation energies and oscillator strengths:

 Excited State   1:      Singlet-A      1.3607 eV  911.19 nm  f=0.5392  <S**2>=0.000
     175 ->178         0.17514
     176 ->177         0.66807
 This state for optimization and/or second-order correction.
 Total Energy, E(CIS/TDA) =  -474.379908876
 Copying the excited state density for this state as the 1-particle RhoCI density.

 Excited State   2:      Singlet-A      1.9394 eV  639.29 nm  f=0.0339  <S**2>=0.000
     175 ->177         0.52847
     176 ->178        -0.43937

 Excited State   3:      Singlet-A      2.9097 eV  426.11 nm  f=0.0008  <S**2>=0.000
     167 ->177         0.15841
     167 ->179        -0.23547
     167 ->186        -0.10502
     168 ->177         0.30492
     168 ->179        -0.39319
     168 ->180        -0.11783
     168 ->181        -0.15978
     168 ->184        -0.10771
     168 ->186        -0.17225

 Excited State   4:      Singlet-A      3.0128 eV  411.53 nm  f=1.1917  <S**2>=0.000
     170 ->177         0.11487
     175 ->177         0.40697
     176 ->178         0.51093

 Excited State   5:      Singlet-A      3.0489 eV  406.66 nm  f=0.0540  <S**2>=0.000
     171 ->177         0.25800
     171 ->179         0.22121
     171 ->180        -0.19309
     171 ->181        -0.29777
     171 ->186         0.19236
     171 ->189         0.16513
     176 ->179        -0.24568
     176 ->181         0.10820

 The electronic state is 1-A.
 Alpha  occ. eigenvalues --   -1.83519  -1.80721  -1.80111  -1.72945  -1.72251
 Alpha  occ. eigenvalues --   -1.70463  -1.64749  -1.61562  -1.59792  -1.59030
 Alpha  occ. eigenvalues --   -1.55676  -1.51971  -1.48938  -1.48022  -1.47186
 Alpha  occ. eigenvalues --   -1.44712  -1.43079  -1.40219  -1.39265  -1.39073
 Alpha  occ. eigenvalues --   -1.35999  -1.34233  -1.33788  -1.31639  -1.28427
 Alpha  occ. eigenvalues --   -1.27926  -1.24866  -1.23337  -1.21661  -1.18642
 Alpha  occ. eigenvalues --   -1.17544  -1.15934  -1.15332  -1.14877  -1.13112
 Alpha  occ. eigenvalues --   -1.12821  -1.11630  -1.10849  -1.05069  -1.03495
 Alpha  occ. eigenvalues --   -1.02813  -1.01979  -1.00136  -0.98393  -0.97731
 Alpha  occ. eigenvalues --   -0.96478  -0.95436  -0.94678  -0.93407  -0.91834
 Alpha  occ. eigenvalues --   -0.90025  -0.89599  -0.88381  -0.87415  -0.85474
 Alpha  occ. eigenvalues --   -0.85029  -0.83864  -0.82919  -0.81998  -0.80297
 Alpha  occ. eigenvalues --   -0.79949  -0.79266  -0.78487  -0.77642  -0.76645
 Alpha  occ. eigenvalues --   -0.75306  -0.74499  -0.74368  -0.74122  -0.74061
 Alpha  occ. eigenvalues --   -0.73508  -0.72754  -0.72296  -0.71448  -0.70645
 Alpha  occ. eigenvalues --   -0.69962  -0.69786  -0.69434  -0.68030  -0.67583
 Alpha  occ. eigenvalues --   -0.67360  -0.67340  -0.66633  -0.66098  -0.65821
 Alpha  occ. eigenvalues --   -0.65406  -0.64800  -0.64316  -0.63923  -0.63636
 Alpha  occ. eigenvalues --   -0.63474  -0.63165  -0.62916  -0.62588  -0.62142
 Alpha  occ. eigenvalues --   -0.61889  -0.61703  -0.61528  -0.60944  -0.60581
 Alpha  occ. eigenvalues --   -0.60080  -0.59841  -0.59356  -0.59343  -0.58334
 Alpha  occ. eigenvalues --   -0.58045  -0.57685  -0.57477  -0.56648  -0.56343
 Alpha  occ. eigenvalues --   -0.56199  -0.56067  -0.55301  -0.54950  -0.54398
 Alpha  occ. eigenvalues --   -0.54272  -0.53475  -0.53217  -0.52853  -0.52584
 Alpha  occ. eigenvalues --   -0.52219  -0.51817  -0.51493  -0.51489  -0.51056
 Alpha  occ. eigenvalues --   -0.50639  -0.50302  -0.50080  -0.50011  -0.49655
 Alpha  occ. eigenvalues --   -0.49463  -0.49341  -0.49158  -0.48699  -0.48662
 Alpha  occ. eigenvalues --   -0.48401  -0.48124  -0.48039  -0.47890  -0.47513
 Alpha  occ. eigenvalues --   -0.47350  -0.47173  -0.46946  -0.46586  -0.46433
 Alpha  occ. eigenvalues --   -0.46222  -0.45994  -0.45753  -0.45614  -0.45529
 Alpha  occ. eigenvalues --   -0.44979  -0.44701  -0.44510  -0.44348  -0.44143
 Alpha  occ. eigenvalues --   -0.44051  -0.42909  -0.42480  -0.42443  -0.42294
 Alpha  occ. eigenvalues --   -0.41572  -0.41175  -0.40747  -0.38902  -0.38233
 Alpha  occ. eigenvalues --   -0.37925  -0.36855  -0.35916  -0.34947  -0.34277
 Alpha  occ. eigenvalues --   -0.33489  -0.32315  -0.31864  -0.31762  -0.26660
 Alpha  occ. eigenvalues --   -0.21834
 Alpha virt. eigenvalues --   -0.08028  -0.02064  -0.00634   0.01493   0.01638
 Alpha virt. eigenvalues --    0.03076   0.03305   0.03464   0.04172   0.04646
 Alpha virt. eigenvalues --    0.05951   0.06213   0.06945   0.07563   0.08280

 Mulliken charges:
               1
     1  Mg   0.424716
     2  C   -0.031957
     3  C   -0.105621
     4  C   -0.063717
     5  C   -0.046841
     6  N   -0.271370
     7  C    0.087022
     8  C   -0.000148
     9  C    0.010075
    10  C    0.165243
    11  C   -0.049373
    12  C   -0.012530
    13  C    0.014301
    14  C    0.466850
    15  O   -0.545753
    16  O   -0.275105
    17  N   -0.333878
    18  C    0.140294
    19  C    0.029584
    20  C   -0.048854
    21  C    0.149761
    22  C   -0.044887
    23  C    0.340142
    24  O   -0.535081
    25  C   -0.018797
    26  N   -0.258105
    27  C    0.179415
    28  C   -0.010171
    29  C    0.010824
    30  C    0.066633
    31  C   -0.064261
    32  C   -0.024932
    33  C   -0.057179
    34  N   -0.312949
    35  C    0.044534
    36  C    0.027102
    37  C   -0.075253
    38  C    0.113886
    39  C   -0.034262
    40  C    0.334761
    41  O   -0.516495
    42  C    0.046650
    43  C    0.499075
    44  O   -0.533404
    45  O   -0.254354
    46  C    0.075326
    47  C    0.114164
    48  C   -0.088883
    49  C   -0.011886
    50  C   -0.043778
    51  C   -0.019762
    52  C   -0.021716
    53  C   -0.017869
    54  C   -0.017574
    55  C   -0.063555
    56  C   -0.039433
    57  C   -0.029547
    58  C   -0.034744
    59  C   -0.013927
    60  C   -0.069760
    61  C   -0.026554
    62  C   -0.032904
    63  C   -0.034943
    64  C   -0.008454
    65  C   -0.051641
    66  C   -0.060774
    67  H    0.020664
    68  H    0.039639
    69  H    0.031777
    70  H    0.035429
    71  H    0.025040
    72  H    0.034503
    73  H    0.019156
    74  H    0.015252
    75  H    0.025004
    76  H    0.036181
    77  H    0.030175
    78  H    0.042663
    79  H    0.034629
    80  H    0.042001
    81  H    0.026248
    82  H    0.033563
    83  H    0.035558
    84  H    0.043363
    85  H    0.032840
    86  H    0.024754
    87  H    0.039627
    88  H    0.031299
    89  H    0.028001
    90  H    0.009588
    91  H    0.018989
    92  H    0.017433
    93  H    0.024378
    94  H    0.015743
    95  H    0.030248
    96  H    0.029779
    97  H    0.027493
    98  H    0.050897
    99  H    0.050928
   100  H    0.031432
   101  H    0.038600
   102  H    0.062186
   103  H    0.043132
   104  H    0.019803
   105  H    0.038631
   106  H    0.016993
   107  H    0.031623
   108  H    0.018455
   109  H    0.020094
   110  H    0.030841
   111  H    0.017310
   112  H    0.017283
   113  H    0.021039
   114  H    0.009576
   115  H    0.014558
   116  H    0.013985
   117  H    0.021360
   118  H    0.031582
   119  H    0.010349
   120  H    0.022197
   121  H    0.013785
   122  H    0.025210
   123  H    0.005368
   124  H    0.015621
   125  H    0.026213
   126  H    0.015957
   127  H    0.011645
   128  H    0.026197
   129  H    0.017846
   130  H    0.019869
   131  H    0.015858
   132  H    0.016652
   133  H    0.012277
   134  H    0.021931
   135  H    0.006468
   136  H    0.012610
   137  H    0.021590
   138  H    0.011777
   139  H    0.023878
   140  H    0.018005
 Sum of Mulliken charges =  -0.00000

 Dipole moment (field-independent basis, Debye):
    X=             -5.8437    Y=              8.2141    Z=             -2.4648  Tot=             10.3776
 N-N= 4.174114074159D+03 E-N= 0.000000000000D+00  KE=-9.022730842814D+03
 Leave Link  601 at Fri Apr 29 17:29:49 2022, MaxMem=  6710886400 cpu:               1.0 elap:               0.1
 (Enter /sw/apps/gaussian-16.0/g16/l9999.exe)
 1\1\GINC-BP1-COMPUTE082\SP\RZINDO CIS\STO-3G\C55H74Mg1N4O6\OF15641\29-
 Apr-2022\0\\#p ZINDO=(nstates=5)\\step_401_chromophore_16 ZINDO\\0,1\M
 g,0,40.963,41.587,27.137\C,0,39.775,43.789,29.567\C,0,41.418,39.317,29
 .614\C,0,42.205,39.411,24.824\C,0,40.532,44.054,24.72\N,0,40.581,41.59
 1,29.377\C,0,40.05,42.552,30.121\C,0,40.159,42.181,31.705\C,0,40.644,4
 0.744,31.583\C,0,40.953,40.534,30.117\C,0,41.748,40.179,32.474\C,0,38.
 823,42.496,32.423\C,0,38.274,41.54,33.453\C,0,37.569,42.319,34.542\O,0

 Normal termination of Gaussian 16 at Fri Apr 29 17:29:49 2022.
