 Gaussian 16, Revision A.03,
 Gaussian 16:  ES64L-G16RevA.03 25-Dec-2016

 ------------------------------
 #p blyp/Def2SVP td=(nstates=5)
 ------------------------------

 --------------------------------------------------
 step_901_chromophore_10 TDDFT with blyp functional
 --------------------------------------------------
 Symbolic Z-matrix:
 Charge =  0 Multiplicity = 1

                         Standard orientation:
 ---------------------------------------------------------------------
 Center     Atomic      Atomic             Coordinates (Angstroms)
 Number     Number       Type             X           Y           Z
 ---------------------------------------------------------------------
      1         12           0        5.833038    0.482277   -0.033815
      2          6           0        3.527289   -2.039230   -0.026986
      3          6           0        3.473770    2.724656   -0.980965
      4          6           0        8.259847    2.850631   -0.018603
      5          6           0        8.282800   -1.909184    0.651582
      6          7           0        3.743727    0.281628   -0.742651
      7          6           0        3.028796   -0.819588   -0.487539
      8          6           0        1.495345   -0.445624   -0.750559
      9          6           0        1.506368    1.054610   -1.213622
     10          6           0        3.009846    1.378271   -1.034817
     11          6           0        1.065265    1.266360   -2.728362
     12          6           0        0.629661   -0.721195    0.479069
     13          6           0       -0.822129   -0.398165    0.356435
     14          6           0       -1.941595   -1.458777    0.194943
     15          8           0       -2.150751   -2.092784   -0.839810
     16          8           0       -2.483037   -1.654241    1.424076
     17          7           0        5.859863    2.438092   -0.377758
     18          6           0        4.823566    3.220411   -0.725739
     19          6           0        5.219207    4.607351   -0.699449
     20          6           0        6.572432    4.656224   -0.314167
     21          6           0        6.953521    3.303250   -0.150391
     22          6           0        4.266222    5.792780   -1.006021
     23          6           0        7.461914    5.853327   -0.165392
     24          8           0        8.685721    5.737737    0.065916
     25          6           0        6.922672    7.244392   -0.135602
     26          7           0        8.042171    0.466661    0.025836
     27          6           0        8.737253    1.544051    0.014255
     28          6           0       10.220481    1.175993    0.103227
     29          6           0       10.181915   -0.170696    0.722765
     30          6           0        8.724199   -0.605153    0.415228
     31          6           0       11.039018    1.264659   -1.256315
     32          6           0       10.439470   -0.223166    2.292836
     33          6           0        9.285486    0.441388    3.183294
     34          7           0        5.960525   -1.622514    0.165046
     35          6           0        6.963352   -2.473826    0.561046
     36          6           0        6.424953   -3.809215    0.830301
     37          6           0        5.049251   -3.688843    0.577292
     38          6           0        4.840669   -2.341167    0.197333
     39          6           0        7.243578   -5.113803    0.996465
     40          6           0        3.851725   -4.440546    0.425379
     41          8           0        3.687750   -5.642272    0.428564
     42          6           0        2.765069   -3.376296    0.170589
     43          6           0        2.107148   -3.762020   -1.063994
     44          8           0        2.557690   -3.957936   -2.180231
     45          8           0        0.727492   -4.036448   -0.790549
     46          6           0        0.041451   -4.780728   -1.858924
     47          6           0       -3.182257   -2.942079    1.347191
     48          6           0       -4.707127   -2.558147    1.356193
     49          6           0       -5.804019   -3.149770    0.828807
     50          6           0       -5.761033   -4.510927    0.122929
     51          6           0       -7.127552   -2.347191    0.733650
     52          6           0       -7.216571   -0.970460    0.064304
     53          6           0       -7.878276   -1.064703   -1.241449
     54          6           0       -9.344446   -0.538208   -1.117272
     55          6           0      -10.092679   -1.063936   -2.349897
     56          6           0       -9.373528    0.963144   -1.144186
     57          6           0      -10.599589    1.611152   -0.519838
     58          6           0      -10.172337    2.334862    0.798592
     59          6           0      -11.344760    3.080641    1.509530
     60          6           0      -10.671221    4.078404    2.539796
     61          6           0      -12.314845    2.194270    2.352524
     62          6           0      -13.841620    2.192800    1.969278
     63          6           0      -14.324087    1.057049    0.922204
     64          6           0      -14.802552    1.506700   -0.479286
     65          6           0      -16.360295    1.514925   -0.487162
     66          6           0      -14.235800    0.703216   -1.681083
     67          1           0        2.805071    3.564715   -1.181142
     68          1           0        9.128968    3.506681   -0.100876
     69          1           0        9.043544   -2.639225    0.936357
     70          1           0        1.038400   -1.114046   -1.479549
     71          1           0        0.847175    1.601387   -0.539212
     72          1           0        0.914328    0.294596   -3.199289
     73          1           0        1.781564    1.843004   -3.313771
     74          1           0        0.166634    1.870770   -2.851589
     75          1           0        0.903605   -0.071517    1.310515
     76          1           0        0.622341   -1.763772    0.792918
     77          1           0       -0.948767    0.147156   -0.578430
     78          1           0       -1.174132    0.248935    1.158761
     79          1           0        3.279465    5.568614   -1.409365
     80          1           0        4.885904    6.514129   -1.538973
     81          1           0        4.077798    6.139531    0.010391
     82          1           0        6.006151    7.316671    0.451406
     83          1           0        6.745591    7.596291   -1.151876
     84          1           0        7.751805    7.798122    0.304521
     85          1           0       10.642144    1.877648    0.822635
     86          1           0       10.830199   -0.925615    0.278886
     87          1           0       11.689072    0.397426   -1.369978
     88          1           0       11.725905    2.101838   -1.383172
     89          1           0       10.291673    1.277165   -2.048706
     90          1           0       11.374673    0.302768    2.484559
     91          1           0       10.590703   -1.272394    2.545936
     92          1           0        8.963152   -0.312539    3.902146
     93          1           0        8.528963    0.990635    2.623302
     94          1           0        9.662392    1.150075    3.921366
     95          1           0        6.863903   -5.904748    1.643195
     96          1           0        8.210912   -4.803627    1.392458
     97          1           0        7.454406   -5.566947    0.027524
     98          1           0        2.047212   -3.375382    0.990646
     99          1           0       -0.961934   -5.070261   -1.545667
    100          1           0        0.468604   -5.769288   -2.030674
    101          1           0       -0.130035   -4.149918   -2.731769
    102          1           0       -3.020695   -3.554913    2.235116
    103          1           0       -3.110136   -3.701812    0.569158
    104          1           0       -4.807757   -1.505538    1.620839
    105          1           0       -6.267216   -4.419442   -0.838009
    106          1           0       -6.230602   -5.367094    0.607809
    107          1           0       -4.722386   -4.748793   -0.109727
    108          1           0       -7.422196   -2.205356    1.773637
    109          1           0       -7.933666   -2.989791    0.379268
    110          1           0       -6.259139   -0.459708   -0.044414
    111          1           0       -7.763256   -0.383214    0.802308
    112          1           0       -7.806658   -2.006387   -1.787262
    113          1           0       -7.393201   -0.309198   -1.859531
    114          1           0       -9.839847   -0.824107   -0.188576
    115          1           0      -10.866584   -0.324794   -2.557361
    116          1           0      -10.614986   -2.015766   -2.247235
    117          1           0       -9.427979   -1.065752   -3.214469
    118          1           0       -9.396019    1.306423   -2.178697
    119          1           0       -8.466501    1.409421   -0.736853
    120          1           0      -11.414396    0.950450   -0.224126
    121          1           0      -11.028252    2.317617   -1.231870
    122          1           0       -9.379996    3.050024    0.577756
    123          1           0       -9.896605    1.480641    1.417684
    124          1           0      -11.922871    3.625504    0.763938
    125          1           0      -11.088420    3.985688    3.542457
    126          1           0      -10.806851    5.139348    2.326235
    127          1           0       -9.618526    3.811108    2.621103
    128          1           0      -12.369789    2.451651    3.410122
    129          1           0      -11.877884    1.202304    2.240030
    130          1           0      -13.969705    3.218919    1.622285
    131          1           0      -14.309748    2.132710    2.952121
    132          1           0      -15.094874    0.473259    1.426626
    133          1           0      -13.475450    0.381809    0.810619
    134          1           0      -14.598703    2.546077   -0.733469
    135          1           0      -16.760135    2.528931   -0.510470
    136          1           0      -16.794165    1.004809    0.373370
    137          1           0      -16.724182    1.025481   -1.390485
    138          1           0      -13.896492    1.445864   -2.403039
    139          1           0      -14.844380   -0.124615   -2.046945
    140          1           0      -13.317857    0.225267   -1.341180
 ---------------------------------------------------------------------

 SCF Done:  E(RB-LYP) =  -3007.34621459     A.U. after   20 cycles

 Excitation energies and oscillator strengths:

 Excited State   1:      Singlet-A      1.8477 eV  671.01 nm  f=0.3113  <S**2>=0.000
     245 -> 248       -0.18350
     246 -> 247        0.68283
     246 <- 247       -0.14408
 This state for optimization and/or second-order correction.
 Total Energy, E(TD-HF/TD-DFT) =  -3007.27831188
 Copying the excited state density for this state as the 1-particle RhoCI density.

 Excited State   2:      Singlet-A      1.9828 eV  625.31 nm  f=0.0201  <S**2>=0.000
     243 -> 247        0.13276
     244 -> 247        0.59169
     245 -> 247        0.34038

 Excited State   3:      Singlet-A      2.0020 eV  619.30 nm  f=0.0488  <S**2>=0.000
     243 -> 247        0.23670
     244 -> 247       -0.37981
     245 -> 247        0.50606
     246 -> 248        0.16896

 Excited State   4:      Singlet-A      2.0836 eV  595.04 nm  f=0.0134  <S**2>=0.000
     243 -> 247        0.65080
     245 -> 247       -0.24166
     246 -> 248       -0.10375

 Excited State   5:      Singlet-A      2.1282 eV  582.58 nm  f=0.0000  <S**2>=0.000
     242 -> 247        0.70702

 The electronic state is 1-A.
 Alpha  occ. eigenvalues --  -46.27425 -18.84008 -18.80424 -18.77264 -18.76483
 Alpha  occ. eigenvalues --  -18.75903 -18.75718 -14.03703 -14.02549 -14.01441
 Alpha  occ. eigenvalues --  -14.01040 -10.04400 -10.03203 -10.00207  -9.99512
 Alpha  occ. eigenvalues --   -9.98148  -9.97326  -9.97135  -9.96118  -9.96084
 Alpha  occ. eigenvalues --   -9.96035  -9.95993  -9.95834  -9.95436  -9.94739
 Alpha  occ. eigenvalues --   -9.94363  -9.94324  -9.94265  -9.94093  -9.94014
 Alpha  occ. eigenvalues --   -9.93974  -9.93642  -9.93628  -9.93279  -9.93120
 Alpha  occ. eigenvalues --   -9.93055  -9.92999  -9.92992  -9.92777  -9.92728
 Alpha  occ. eigenvalues --   -9.92727  -9.92650  -9.92524  -9.92386  -9.92302
 Alpha  occ. eigenvalues --   -9.92038  -9.92036  -9.92014  -9.91964  -9.91726
 Alpha  occ. eigenvalues --   -9.91620  -9.91579  -9.91578  -9.91469  -9.91414
 Alpha  occ. eigenvalues --   -9.91182  -9.90965  -9.90935  -9.90901  -9.90877
 Alpha  occ. eigenvalues --   -9.90805  -9.90569  -9.90555  -9.90532  -9.90502
 Alpha  occ. eigenvalues --   -9.90362  -2.92111  -1.72523  -1.71989  -1.71839
 Alpha  occ. eigenvalues --   -0.99360  -0.95712  -0.92020  -0.90711  -0.90430
 Alpha  occ. eigenvalues --   -0.88634  -0.88221  -0.87141  -0.86392  -0.85736
 Alpha  occ. eigenvalues --   -0.76434  -0.74132  -0.73461  -0.72248  -0.72215
 Alpha  occ. eigenvalues --   -0.71549  -0.71448  -0.71143  -0.70714  -0.70550
 Alpha  occ. eigenvalues --   -0.69707  -0.68994  -0.68289  -0.67436  -0.66733
 Alpha  occ. eigenvalues --   -0.66118  -0.65942  -0.65398  -0.64732  -0.64597
 Alpha  occ. eigenvalues --   -0.63958  -0.63209  -0.62014  -0.61406  -0.60458
 Alpha  occ. eigenvalues --   -0.60317  -0.60138  -0.60010  -0.58926  -0.58728
 Alpha  occ. eigenvalues --   -0.58138  -0.57823  -0.57225  -0.55773  -0.55600
 Alpha  occ. eigenvalues --   -0.54549  -0.53777  -0.53401  -0.52399  -0.51930
 Alpha  occ. eigenvalues --   -0.51697  -0.51376  -0.51051  -0.50219  -0.50147
 Alpha  occ. eigenvalues --   -0.49672  -0.49109  -0.48930  -0.47472  -0.47076
 Alpha  occ. eigenvalues --   -0.46476  -0.46080  -0.45589  -0.45367  -0.44683
 Alpha  occ. eigenvalues --   -0.44474  -0.43964  -0.43181  -0.42615  -0.42534
 Alpha  occ. eigenvalues --   -0.42396  -0.41725  -0.41620  -0.41427  -0.40975
 Alpha  occ. eigenvalues --   -0.40816  -0.40561  -0.40395  -0.40345  -0.40108
 Alpha  occ. eigenvalues --   -0.39875  -0.39618  -0.39274  -0.38872  -0.38687
 Alpha  occ. eigenvalues --   -0.38538  -0.38457  -0.38031  -0.37946  -0.37908
 Alpha  occ. eigenvalues --   -0.37716  -0.37671  -0.37487  -0.37341  -0.37214
 Alpha  occ. eigenvalues --   -0.37102  -0.36915  -0.36504  -0.36471  -0.36390
 Alpha  occ. eigenvalues --   -0.36270  -0.36153  -0.35975  -0.35839  -0.35629
 Alpha  occ. eigenvalues --   -0.35426  -0.35230  -0.34882  -0.34764  -0.34628
 Alpha  occ. eigenvalues --   -0.34558  -0.34513  -0.34330  -0.34167  -0.34133
 Alpha  occ. eigenvalues --   -0.33994  -0.33861  -0.33747  -0.33460  -0.33377
 Alpha  occ. eigenvalues --   -0.32852  -0.32473  -0.32405  -0.32293  -0.31994
 Alpha  occ. eigenvalues --   -0.31986  -0.31785  -0.31604  -0.31514  -0.31334
 Alpha  occ. eigenvalues --   -0.31313  -0.30876  -0.30651  -0.30568  -0.30302
 Alpha  occ. eigenvalues --   -0.30091  -0.30049  -0.29974  -0.29934  -0.29767
 Alpha  occ. eigenvalues --   -0.29734  -0.29578  -0.29369  -0.29300  -0.28883
 Alpha  occ. eigenvalues --   -0.28722  -0.28396  -0.28340  -0.28050  -0.27854
 Alpha  occ. eigenvalues --   -0.27594  -0.27139  -0.27089  -0.26818  -0.26617
 Alpha  occ. eigenvalues --   -0.26371  -0.26292  -0.25985  -0.25658  -0.25261
 Alpha  occ. eigenvalues --   -0.24875  -0.24482  -0.24270  -0.24035  -0.23864
 Alpha  occ. eigenvalues --   -0.23458  -0.22395  -0.21807  -0.21540  -0.21485
 Alpha  occ. eigenvalues --   -0.20953  -0.19564  -0.19222  -0.18959  -0.17478
 Alpha  occ. eigenvalues --   -0.16167
 Alpha virt. eigenvalues --   -0.11743  -0.07220  -0.06509  -0.04796  -0.03508
 Alpha virt. eigenvalues --   -0.02770  -0.02583  -0.01611  -0.01179   0.00388
 Alpha virt. eigenvalues --    0.01502   0.01993   0.02511   0.02692   0.02795

 Mulliken charges:
               1
     1  Mg   0.687916
     2  C   -0.018711
     3  C   -0.039579
     4  C   -0.038272
     5  C   -0.057473
     6  N   -0.187402
     7  C   -0.047393
     8  C    0.000301
     9  C   -0.000399
    10  C    0.047957
    11  C    0.113900
    12  C    0.138256
    13  C    0.101274
    14  C    0.073370
    15  O   -0.195672
    16  O   -0.237602
    17  N   -0.322197
    18  C    0.095520
    19  C   -0.170868
    20  C    0.082936
    21  C    0.144072
    22  C    0.178060
    23  C   -0.092770
    24  O   -0.189672
    25  C    0.133651
    26  N   -0.110335
    27  C   -0.095602
    28  C    0.079859
    29  C   -0.006744
    30  C    0.014866
    31  C    0.131125
    32  C    0.079929
    33  C    0.048501
    34  N   -0.232678
    35  C    0.077798
    36  C   -0.158626
    37  C    0.100593
    38  C    0.090737
    39  C    0.147254
    40  C   -0.067465
    41  O   -0.114941
    42  C    0.102516
    43  C    0.106030
    44  O   -0.167251
    45  O   -0.319867
    46  C    0.232793
    47  C    0.309863
    48  C   -0.149326
    49  C   -0.105420
    50  C    0.133448
    51  C    0.120120
    52  C    0.114197
    53  C    0.133727
    54  C   -0.091468
    55  C    0.123452
    56  C    0.121466
    57  C    0.049898
    58  C    0.058307
    59  C   -0.054023
    60  C    0.100336
    61  C    0.069041
    62  C    0.059273
    63  C    0.135980
    64  C   -0.095988
    65  C    0.089538
    66  C    0.110284
    67  H   -0.077398
    68  H   -0.041890
    69  H   -0.066140
    70  H   -0.003329
    71  H   -0.013537
    72  H    0.005205
    73  H   -0.007488
    74  H   -0.009955
    75  H   -0.033076
    76  H   -0.006198
    77  H   -0.021619
    78  H   -0.020206
    79  H    0.001762
    80  H    0.007464
    81  H    0.006949
    82  H    0.003537
    83  H    0.017857
    84  H   -0.000363
    85  H   -0.039484
    86  H   -0.041666
    87  H   -0.014099
    88  H    0.000083
    89  H   -0.001254
    90  H   -0.016282
    91  H   -0.017407
    92  H   -0.009536
    93  H    0.029667
    94  H   -0.022862
    95  H    0.009227
    96  H   -0.020720
    97  H    0.017596
    98  H    0.006411
    99  H   -0.007702
   100  H    0.012582
   101  H    0.015102
   102  H   -0.002633
   103  H    0.014743
   104  H   -0.030773
   105  H   -0.010021
   106  H    0.003394
   107  H   -0.027802
   108  H   -0.031071
   109  H   -0.048943
   110  H   -0.034963
   111  H   -0.033618
   112  H   -0.022566
   113  H   -0.050449
   114  H   -0.045876
   115  H   -0.027122
   116  H   -0.016076
   117  H   -0.018175
   118  H   -0.049314
   119  H   -0.041051
   120  H   -0.021326
   121  H   -0.038628
   122  H   -0.015442
   123  H   -0.019865
   124  H   -0.038774
   125  H   -0.029089
   126  H   -0.015508
   127  H   -0.019195
   128  H   -0.028249
   129  H   -0.040675
   130  H   -0.027951
   131  H   -0.034780
   132  H   -0.030756
   133  H   -0.040775
   134  H   -0.030521
   135  H   -0.016923
   136  H   -0.016998
   137  H   -0.026277
   138  H   -0.009592
   139  H   -0.008313
   140  H   -0.029675
 Sum of Mulliken charges =  -0.00000

 Dipole moment (field-independent basis, Debye):
    X=             -1.5159    Y=              3.8989    Z=              2.0306  Tot=              4.6500
 Quadrupole moment (field-independent basis, Debye-Ang):
   XX=           -390.2839   YY=           -415.9350   ZZ=           -408.3144
   XY=             -1.5411   XZ=              9.4282   YZ=            -10.4937

 Normal termination of Gaussian 16 at Thu May  5 13:21:56 2022.
