 Gaussian 16, Revision A.03,
 Gaussian 16:  ES64L-G16RevA.03 25-Dec-2016

 -----------------------------------
 #p cam-b3lyp/Def2SVP td=(nstates=5)
 -----------------------------------

 -------------------------------------------------------
 step_901_chromophore_10 TDDFT with cam-b3lyp functional
 -------------------------------------------------------
 Symbolic Z-matrix:
 Charge =  0 Multiplicity = 1

                         Standard orientation:
 ---------------------------------------------------------------------
 Center     Atomic      Atomic             Coordinates (Angstroms)
 Number     Number       Type             X           Y           Z
 ---------------------------------------------------------------------
      1         12           0        5.833038    0.482277   -0.033815
      2          6           0        3.527289   -2.039230   -0.026986
      3          6           0        3.473770    2.724656   -0.980965
      4          6           0        8.259847    2.850631   -0.018603
      5          6           0        8.282800   -1.909184    0.651582
      6          7           0        3.743727    0.281628   -0.742651
      7          6           0        3.028796   -0.819588   -0.487539
      8          6           0        1.495345   -0.445624   -0.750559
      9          6           0        1.506368    1.054610   -1.213622
     10          6           0        3.009846    1.378271   -1.034817
     11          6           0        1.065265    1.266360   -2.728362
     12          6           0        0.629661   -0.721195    0.479069
     13          6           0       -0.822129   -0.398165    0.356435
     14          6           0       -1.941595   -1.458777    0.194943
     15          8           0       -2.150751   -2.092784   -0.839810
     16          8           0       -2.483037   -1.654241    1.424076
     17          7           0        5.859863    2.438092   -0.377758
     18          6           0        4.823566    3.220411   -0.725739
     19          6           0        5.219207    4.607351   -0.699449
     20          6           0        6.572432    4.656224   -0.314167
     21          6           0        6.953521    3.303250   -0.150391
     22          6           0        4.266222    5.792780   -1.006021
     23          6           0        7.461914    5.853327   -0.165392
     24          8           0        8.685721    5.737737    0.065916
     25          6           0        6.922672    7.244392   -0.135602
     26          7           0        8.042171    0.466661    0.025836
     27          6           0        8.737253    1.544051    0.014255
     28          6           0       10.220481    1.175993    0.103227
     29          6           0       10.181915   -0.170696    0.722765
     30          6           0        8.724199   -0.605153    0.415228
     31          6           0       11.039018    1.264659   -1.256315
     32          6           0       10.439470   -0.223166    2.292836
     33          6           0        9.285486    0.441388    3.183294
     34          7           0        5.960525   -1.622514    0.165046
     35          6           0        6.963352   -2.473826    0.561046
     36          6           0        6.424953   -3.809215    0.830301
     37          6           0        5.049251   -3.688843    0.577292
     38          6           0        4.840669   -2.341167    0.197333
     39          6           0        7.243578   -5.113803    0.996465
     40          6           0        3.851725   -4.440546    0.425379
     41          8           0        3.687750   -5.642272    0.428564
     42          6           0        2.765069   -3.376296    0.170589
     43          6           0        2.107148   -3.762020   -1.063994
     44          8           0        2.557690   -3.957936   -2.180231
     45          8           0        0.727492   -4.036448   -0.790549
     46          6           0        0.041451   -4.780728   -1.858924
     47          6           0       -3.182257   -2.942079    1.347191
     48          6           0       -4.707127   -2.558147    1.356193
     49          6           0       -5.804019   -3.149770    0.828807
     50          6           0       -5.761033   -4.510927    0.122929
     51          6           0       -7.127552   -2.347191    0.733650
     52          6           0       -7.216571   -0.970460    0.064304
     53          6           0       -7.878276   -1.064703   -1.241449
     54          6           0       -9.344446   -0.538208   -1.117272
     55          6           0      -10.092679   -1.063936   -2.349897
     56          6           0       -9.373528    0.963144   -1.144186
     57          6           0      -10.599589    1.611152   -0.519838
     58          6           0      -10.172337    2.334862    0.798592
     59          6           0      -11.344760    3.080641    1.509530
     60          6           0      -10.671221    4.078404    2.539796
     61          6           0      -12.314845    2.194270    2.352524
     62          6           0      -13.841620    2.192800    1.969278
     63          6           0      -14.324087    1.057049    0.922204
     64          6           0      -14.802552    1.506700   -0.479286
     65          6           0      -16.360295    1.514925   -0.487162
     66          6           0      -14.235800    0.703216   -1.681083
     67          1           0        2.805071    3.564715   -1.181142
     68          1           0        9.128968    3.506681   -0.100876
     69          1           0        9.043544   -2.639225    0.936357
     70          1           0        1.038400   -1.114046   -1.479549
     71          1           0        0.847175    1.601387   -0.539212
     72          1           0        0.914328    0.294596   -3.199289
     73          1           0        1.781564    1.843004   -3.313771
     74          1           0        0.166634    1.870770   -2.851589
     75          1           0        0.903605   -0.071517    1.310515
     76          1           0        0.622341   -1.763772    0.792918
     77          1           0       -0.948767    0.147156   -0.578430
     78          1           0       -1.174132    0.248935    1.158761
     79          1           0        3.279465    5.568614   -1.409365
     80          1           0        4.885904    6.514129   -1.538973
     81          1           0        4.077798    6.139531    0.010391
     82          1           0        6.006151    7.316671    0.451406
     83          1           0        6.745591    7.596291   -1.151876
     84          1           0        7.751805    7.798122    0.304521
     85          1           0       10.642144    1.877648    0.822635
     86          1           0       10.830199   -0.925615    0.278886
     87          1           0       11.689072    0.397426   -1.369978
     88          1           0       11.725905    2.101838   -1.383172
     89          1           0       10.291673    1.277165   -2.048706
     90          1           0       11.374673    0.302768    2.484559
     91          1           0       10.590703   -1.272394    2.545936
     92          1           0        8.963152   -0.312539    3.902146
     93          1           0        8.528963    0.990635    2.623302
     94          1           0        9.662392    1.150075    3.921366
     95          1           0        6.863903   -5.904748    1.643195
     96          1           0        8.210912   -4.803627    1.392458
     97          1           0        7.454406   -5.566947    0.027524
     98          1           0        2.047212   -3.375382    0.990646
     99          1           0       -0.961934   -5.070261   -1.545667
    100          1           0        0.468604   -5.769288   -2.030674
    101          1           0       -0.130035   -4.149918   -2.731769
    102          1           0       -3.020695   -3.554913    2.235116
    103          1           0       -3.110136   -3.701812    0.569158
    104          1           0       -4.807757   -1.505538    1.620839
    105          1           0       -6.267216   -4.419442   -0.838009
    106          1           0       -6.230602   -5.367094    0.607809
    107          1           0       -4.722386   -4.748793   -0.109727
    108          1           0       -7.422196   -2.205356    1.773637
    109          1           0       -7.933666   -2.989791    0.379268
    110          1           0       -6.259139   -0.459708   -0.044414
    111          1           0       -7.763256   -0.383214    0.802308
    112          1           0       -7.806658   -2.006387   -1.787262
    113          1           0       -7.393201   -0.309198   -1.859531
    114          1           0       -9.839847   -0.824107   -0.188576
    115          1           0      -10.866584   -0.324794   -2.557361
    116          1           0      -10.614986   -2.015766   -2.247235
    117          1           0       -9.427979   -1.065752   -3.214469
    118          1           0       -9.396019    1.306423   -2.178697
    119          1           0       -8.466501    1.409421   -0.736853
    120          1           0      -11.414396    0.950450   -0.224126
    121          1           0      -11.028252    2.317617   -1.231870
    122          1           0       -9.379996    3.050024    0.577756
    123          1           0       -9.896605    1.480641    1.417684
    124          1           0      -11.922871    3.625504    0.763938
    125          1           0      -11.088420    3.985688    3.542457
    126          1           0      -10.806851    5.139348    2.326235
    127          1           0       -9.618526    3.811108    2.621103
    128          1           0      -12.369789    2.451651    3.410122
    129          1           0      -11.877884    1.202304    2.240030
    130          1           0      -13.969705    3.218919    1.622285
    131          1           0      -14.309748    2.132710    2.952121
    132          1           0      -15.094874    0.473259    1.426626
    133          1           0      -13.475450    0.381809    0.810619
    134          1           0      -14.598703    2.546077   -0.733469
    135          1           0      -16.760135    2.528931   -0.510470
    136          1           0      -16.794165    1.004809    0.373370
    137          1           0      -16.724182    1.025481   -1.390485
    138          1           0      -13.896492    1.445864   -2.403039
    139          1           0      -14.844380   -0.124615   -2.046945
    140          1           0      -13.317857    0.225267   -1.341180
 ---------------------------------------------------------------------

 SCF Done:  E(RCAM-B3LYP) =  -3007.14430338     A.U. after   17 cycles

 Excitation energies and oscillator strengths:

 Excited State   1:      Singlet-A      1.7555 eV  706.27 nm  f=0.3963  <S**2>=0.000
     245 -> 248       -0.19056
     246 -> 247        0.68214
     245 <- 248       -0.10793
 This state for optimization and/or second-order correction.
 Total Energy, E(TD-HF/TD-DFT) =  -3007.07979072
 Copying the excited state density for this state as the 1-particle RhoCI density.

 Excited State   2:      Singlet-A      2.2429 eV  552.78 nm  f=0.1113  <S**2>=0.000
     245 -> 247        0.64074
     246 -> 248        0.28781

 Excited State   3:      Singlet-A      3.5192 eV  352.31 nm  f=0.3644  <S**2>=0.000
     241 -> 247       -0.15309
     242 -> 247       -0.16080
     243 -> 247       -0.34525
     245 -> 247       -0.20826
     246 -> 248        0.51160

 Excited State   4:      Singlet-A      3.5580 eV  348.46 nm  f=0.1724  <S**2>=0.000
     241 -> 247        0.10321
     242 -> 247       -0.23254
     243 -> 247        0.53662
     245 -> 247       -0.13803
     246 -> 248        0.30747

 Excited State   5:      Singlet-A      3.6088 eV  343.56 nm  f=0.0017  <S**2>=0.000
     239 -> 247        0.26348
     239 -> 248        0.11897
     239 -> 249        0.21050
     239 -> 250       -0.13369
     240 -> 247        0.43530
     240 -> 248        0.14380
     240 -> 249        0.20822
     240 -> 250       -0.18760
     241 -> 249       -0.16542

 The electronic state is 1-A.
 Alpha  occ. eigenvalues --  -46.88946 -19.26950 -19.23340 -19.20282 -19.19685
 Alpha  occ. eigenvalues --  -19.19081 -19.19061 -14.42438 -14.41348 -14.39960
 Alpha  occ. eigenvalues --  -14.39403 -10.39730 -10.38775 -10.35533 -10.34759
 Alpha  occ. eigenvalues --  -10.32239 -10.31862 -10.31648 -10.30415 -10.30351
 Alpha  occ. eigenvalues --  -10.30254 -10.30178 -10.30011 -10.29765 -10.29016
 Alpha  occ. eigenvalues --  -10.28800 -10.28792 -10.28467 -10.28346 -10.28176
 Alpha  occ. eigenvalues --  -10.27973 -10.27781 -10.27724 -10.27141 -10.27130
 Alpha  occ. eigenvalues --  -10.26990 -10.26947 -10.26941 -10.26933 -10.26838
 Alpha  occ. eigenvalues --  -10.26730 -10.26524 -10.26391 -10.26254 -10.25940
 Alpha  occ. eigenvalues --  -10.25884 -10.25743 -10.25727 -10.25682 -10.25604
 Alpha  occ. eigenvalues --  -10.25346 -10.25317 -10.25265 -10.25193 -10.25161
 Alpha  occ. eigenvalues --  -10.25129 -10.24885 -10.24659 -10.24637 -10.24510
 Alpha  occ. eigenvalues --  -10.24414 -10.24206 -10.24163 -10.24153 -10.24102
 Alpha  occ. eigenvalues --  -10.23948  -3.17538  -1.92426  -1.91979  -1.91867
 Alpha  occ. eigenvalues --   -1.17834  -1.14303  -1.10424  -1.09183  -1.08362
 Alpha  occ. eigenvalues --   -1.06419  -1.06083  -1.04818  -1.03984  -1.03314
 Alpha  occ. eigenvalues --   -0.93588  -0.91031  -0.90313  -0.89017  -0.88909
 Alpha  occ. eigenvalues --   -0.88153  -0.88132  -0.87926  -0.87266  -0.87115
 Alpha  occ. eigenvalues --   -0.86156  -0.85349  -0.84586  -0.83638  -0.82846
 Alpha  occ. eigenvalues --   -0.82230  -0.82152  -0.81340  -0.80526  -0.80420
 Alpha  occ. eigenvalues --   -0.79778  -0.78953  -0.77605  -0.76806  -0.75797
 Alpha  occ. eigenvalues --   -0.75674  -0.75397  -0.75368  -0.74171  -0.73970
 Alpha  occ. eigenvalues --   -0.73178  -0.72832  -0.72135  -0.70593  -0.70217
 Alpha  occ. eigenvalues --   -0.69228  -0.68360  -0.67995  -0.66783  -0.66105
 Alpha  occ. eigenvalues --   -0.65664  -0.65640  -0.65198  -0.64156  -0.64128
 Alpha  occ. eigenvalues --   -0.63670  -0.63046  -0.62880  -0.61230  -0.60730
 Alpha  occ. eigenvalues --   -0.60136  -0.59603  -0.59050  -0.58735  -0.58219
 Alpha  occ. eigenvalues --   -0.57910  -0.57361  -0.56361  -0.56017  -0.55712
 Alpha  occ. eigenvalues --   -0.55393  -0.54994  -0.54584  -0.54227  -0.53841
 Alpha  occ. eigenvalues --   -0.53658  -0.53335  -0.53158  -0.53053  -0.52912
 Alpha  occ. eigenvalues --   -0.52672  -0.52306  -0.51985  -0.51854  -0.51355
 Alpha  occ. eigenvalues --   -0.51049  -0.50816  -0.50652  -0.50305  -0.50242
 Alpha  occ. eigenvalues --   -0.50160  -0.49981  -0.49880  -0.49782  -0.49496
 Alpha  occ. eigenvalues --   -0.49372  -0.49180  -0.48977  -0.48925  -0.48824
 Alpha  occ. eigenvalues --   -0.48525  -0.48379  -0.48273  -0.47991  -0.47854
 Alpha  occ. eigenvalues --   -0.47406  -0.47300  -0.46916  -0.46667  -0.46491
 Alpha  occ. eigenvalues --   -0.46396  -0.46388  -0.46290  -0.46026  -0.45930
 Alpha  occ. eigenvalues --   -0.45807  -0.45594  -0.45553  -0.45339  -0.45195
 Alpha  occ. eigenvalues --   -0.44647  -0.44402  -0.44315  -0.43866  -0.43525
 Alpha  occ. eigenvalues --   -0.43453  -0.43354  -0.43133  -0.42924  -0.42893
 Alpha  occ. eigenvalues --   -0.42699  -0.42364  -0.42179  -0.41914  -0.41898
 Alpha  occ. eigenvalues --   -0.41595  -0.41293  -0.41151  -0.41130  -0.40970
 Alpha  occ. eigenvalues --   -0.40907  -0.40724  -0.40497  -0.40445  -0.40257
 Alpha  occ. eigenvalues --   -0.39938  -0.39715  -0.39348  -0.39061  -0.38912
 Alpha  occ. eigenvalues --   -0.38525  -0.38456  -0.38069  -0.37594  -0.37374
 Alpha  occ. eigenvalues --   -0.37081  -0.36858  -0.36788  -0.36566  -0.36221
 Alpha  occ. eigenvalues --   -0.35520  -0.35421  -0.35000  -0.34455  -0.34325
 Alpha  occ. eigenvalues --   -0.34124  -0.33792  -0.33503  -0.31713  -0.31411
 Alpha  occ. eigenvalues --   -0.31330  -0.30899  -0.30256  -0.29170  -0.24187
 Alpha  occ. eigenvalues --   -0.21475
 Alpha virt. eigenvalues --   -0.08799  -0.01978  -0.00090   0.02173   0.02243
 Alpha virt. eigenvalues --    0.04424   0.05119   0.05813   0.06215   0.06563
 Alpha virt. eigenvalues --    0.08194   0.08771   0.08933   0.08945   0.09157

 Mulliken charges:
               1
     1  Mg   0.822129
     2  C   -0.054646
     3  C   -0.053052
     4  C   -0.052012
     5  C   -0.059264
     6  N   -0.263055
     7  C   -0.001758
     8  C   -0.044682
     9  C   -0.056905
    10  C    0.067842
    11  C    0.059336
    12  C    0.083235
    13  C    0.037441
    14  C    0.154468
    15  O   -0.235929
    16  O   -0.300570
    17  N   -0.413100
    18  C    0.108459
    19  C   -0.177244
    20  C    0.007183
    21  C    0.166066
    22  C    0.121609
    23  C   -0.007936
    24  O   -0.230719
    25  C    0.048308
    26  N   -0.179926
    27  C   -0.077059
    28  C    0.016113
    29  C   -0.061534
    30  C    0.026218
    31  C    0.076826
    32  C    0.033549
    33  C   -0.014599
    34  N   -0.320610
    35  C    0.075142
    36  C   -0.150942
    37  C    0.022892
    38  C    0.130302
    39  C    0.102725
    40  C    0.031753
    41  O   -0.153709
    42  C    0.018152
    43  C    0.198591
    44  O   -0.201338
    45  O   -0.383623
    46  C    0.193738
    47  C    0.271440
    48  C   -0.164515
    49  C   -0.130706
    50  C    0.075822
    51  C    0.065829
    52  C    0.053371
    53  C    0.071996
    54  C   -0.142364
    55  C    0.066587
    56  C    0.060606
    57  C    0.009053
    58  C    0.008756
    59  C   -0.112234
    60  C    0.043890
    61  C    0.020298
    62  C    0.009574
    63  C    0.077521
    64  C   -0.157294
    65  C    0.033713
    66  C    0.056473
    67  H   -0.043376
    68  H    0.000527
    69  H   -0.031281
    70  H    0.027786
    71  H    0.020134
    72  H    0.029953
    73  H    0.018886
    74  H    0.013910
    75  H   -0.000538
    76  H    0.021298
    77  H    0.008427
    78  H    0.015248
    79  H    0.029707
    80  H    0.030737
    81  H    0.033235
    82  H    0.032185
    83  H    0.046002
    84  H    0.036202
    85  H   -0.002414
    86  H   -0.004710
    87  H    0.010076
    88  H    0.024165
    89  H    0.022944
    90  H    0.011226
    91  H    0.009213
    92  H    0.015159
    93  H    0.047130
    94  H    0.002905
    95  H    0.035545
    96  H    0.001340
    97  H    0.043149
    98  H    0.051707
    99  H    0.014483
   100  H    0.035425
   101  H    0.037640
   102  H    0.027022
   103  H    0.043625
   104  H    0.000288
   105  H    0.012978
   106  H    0.027730
   107  H   -0.004505
   108  H    0.000259
   109  H   -0.017897
   110  H   -0.004754
   111  H   -0.004720
   112  H    0.006316
   113  H   -0.018822
   114  H   -0.015901
   115  H   -0.005709
   116  H    0.009525
   117  H    0.006613
   118  H   -0.016950
   119  H   -0.011108
   120  H   -0.004466
   121  H   -0.010506
   122  H    0.012409
   123  H    0.003701
   124  H   -0.008063
   125  H   -0.004611
   126  H    0.008931
   127  H    0.005073
   128  H    0.000679
   129  H   -0.014554
   130  H   -0.002199
   131  H   -0.004909
   132  H   -0.000927
   133  H   -0.014219
   134  H    0.000477
   135  H    0.006732
   136  H    0.005839
   137  H   -0.001903
   138  H    0.013587
   139  H    0.016162
   140  H   -0.010932
 Sum of Mulliken charges =  -0.00000

 Dipole moment (field-independent basis, Debye):
    X=             -1.5823    Y=              4.4886    Z=              2.0927  Tot=              5.1991
 Quadrupole moment (field-independent basis, Debye-Ang):
   XX=           -388.9350   YY=           -410.8326   ZZ=           -408.6116
   XY=              1.2500   XZ=             10.2632   YZ=            -11.0695

 Normal termination of Gaussian 16 at Thu May  5 12:11:08 2022.
