 Gaussian 16, Revision A.03,
 Gaussian 16:  ES64L-G16RevA.03 25-Dec-2016

 ---------------------------------
 #p PBE1PBE/Def2SVP td=(nstates=5)
 ---------------------------------

 -----------------------------------------------------
 step_901_chromophore_10 TDDFT with PBE1PBE functional
 -----------------------------------------------------
 Symbolic Z-matrix:
 Charge =  0 Multiplicity = 1

                         Standard orientation:
 ---------------------------------------------------------------------
 Center     Atomic      Atomic             Coordinates (Angstroms)
 Number     Number       Type             X           Y           Z
 ---------------------------------------------------------------------
      1         12           0        5.833038    0.482277   -0.033815
      2          6           0        3.527289   -2.039230   -0.026986
      3          6           0        3.473770    2.724656   -0.980965
      4          6           0        8.259847    2.850631   -0.018603
      5          6           0        8.282800   -1.909184    0.651582
      6          7           0        3.743727    0.281628   -0.742651
      7          6           0        3.028796   -0.819588   -0.487539
      8          6           0        1.495345   -0.445624   -0.750559
      9          6           0        1.506368    1.054610   -1.213622
     10          6           0        3.009846    1.378271   -1.034817
     11          6           0        1.065265    1.266360   -2.728362
     12          6           0        0.629661   -0.721195    0.479069
     13          6           0       -0.822129   -0.398165    0.356435
     14          6           0       -1.941595   -1.458777    0.194943
     15          8           0       -2.150751   -2.092784   -0.839810
     16          8           0       -2.483037   -1.654241    1.424076
     17          7           0        5.859863    2.438092   -0.377758
     18          6           0        4.823566    3.220411   -0.725739
     19          6           0        5.219207    4.607351   -0.699449
     20          6           0        6.572432    4.656224   -0.314167
     21          6           0        6.953521    3.303250   -0.150391
     22          6           0        4.266222    5.792780   -1.006021
     23          6           0        7.461914    5.853327   -0.165392
     24          8           0        8.685721    5.737737    0.065916
     25          6           0        6.922672    7.244392   -0.135602
     26          7           0        8.042171    0.466661    0.025836
     27          6           0        8.737253    1.544051    0.014255
     28          6           0       10.220481    1.175993    0.103227
     29          6           0       10.181915   -0.170696    0.722765
     30          6           0        8.724199   -0.605153    0.415228
     31          6           0       11.039018    1.264659   -1.256315
     32          6           0       10.439470   -0.223166    2.292836
     33          6           0        9.285486    0.441388    3.183294
     34          7           0        5.960525   -1.622514    0.165046
     35          6           0        6.963352   -2.473826    0.561046
     36          6           0        6.424953   -3.809215    0.830301
     37          6           0        5.049251   -3.688843    0.577292
     38          6           0        4.840669   -2.341167    0.197333
     39          6           0        7.243578   -5.113803    0.996465
     40          6           0        3.851725   -4.440546    0.425379
     41          8           0        3.687750   -5.642272    0.428564
     42          6           0        2.765069   -3.376296    0.170589
     43          6           0        2.107148   -3.762020   -1.063994
     44          8           0        2.557690   -3.957936   -2.180231
     45          8           0        0.727492   -4.036448   -0.790549
     46          6           0        0.041451   -4.780728   -1.858924
     47          6           0       -3.182257   -2.942079    1.347191
     48          6           0       -4.707127   -2.558147    1.356193
     49          6           0       -5.804019   -3.149770    0.828807
     50          6           0       -5.761033   -4.510927    0.122929
     51          6           0       -7.127552   -2.347191    0.733650
     52          6           0       -7.216571   -0.970460    0.064304
     53          6           0       -7.878276   -1.064703   -1.241449
     54          6           0       -9.344446   -0.538208   -1.117272
     55          6           0      -10.092679   -1.063936   -2.349897
     56          6           0       -9.373528    0.963144   -1.144186
     57          6           0      -10.599589    1.611152   -0.519838
     58          6           0      -10.172337    2.334862    0.798592
     59          6           0      -11.344760    3.080641    1.509530
     60          6           0      -10.671221    4.078404    2.539796
     61          6           0      -12.314845    2.194270    2.352524
     62          6           0      -13.841620    2.192800    1.969278
     63          6           0      -14.324087    1.057049    0.922204
     64          6           0      -14.802552    1.506700   -0.479286
     65          6           0      -16.360295    1.514925   -0.487162
     66          6           0      -14.235800    0.703216   -1.681083
     67          1           0        2.805071    3.564715   -1.181142
     68          1           0        9.128968    3.506681   -0.100876
     69          1           0        9.043544   -2.639225    0.936357
     70          1           0        1.038400   -1.114046   -1.479549
     71          1           0        0.847175    1.601387   -0.539212
     72          1           0        0.914328    0.294596   -3.199289
     73          1           0        1.781564    1.843004   -3.313771
     74          1           0        0.166634    1.870770   -2.851589
     75          1           0        0.903605   -0.071517    1.310515
     76          1           0        0.622341   -1.763772    0.792918
     77          1           0       -0.948767    0.147156   -0.578430
     78          1           0       -1.174132    0.248935    1.158761
     79          1           0        3.279465    5.568614   -1.409365
     80          1           0        4.885904    6.514129   -1.538973
     81          1           0        4.077798    6.139531    0.010391
     82          1           0        6.006151    7.316671    0.451406
     83          1           0        6.745591    7.596291   -1.151876
     84          1           0        7.751805    7.798122    0.304521
     85          1           0       10.642144    1.877648    0.822635
     86          1           0       10.830199   -0.925615    0.278886
     87          1           0       11.689072    0.397426   -1.369978
     88          1           0       11.725905    2.101838   -1.383172
     89          1           0       10.291673    1.277165   -2.048706
     90          1           0       11.374673    0.302768    2.484559
     91          1           0       10.590703   -1.272394    2.545936
     92          1           0        8.963152   -0.312539    3.902146
     93          1           0        8.528963    0.990635    2.623302
     94          1           0        9.662392    1.150075    3.921366
     95          1           0        6.863903   -5.904748    1.643195
     96          1           0        8.210912   -4.803627    1.392458
     97          1           0        7.454406   -5.566947    0.027524
     98          1           0        2.047212   -3.375382    0.990646
     99          1           0       -0.961934   -5.070261   -1.545667
    100          1           0        0.468604   -5.769288   -2.030674
    101          1           0       -0.130035   -4.149918   -2.731769
    102          1           0       -3.020695   -3.554913    2.235116
    103          1           0       -3.110136   -3.701812    0.569158
    104          1           0       -4.807757   -1.505538    1.620839
    105          1           0       -6.267216   -4.419442   -0.838009
    106          1           0       -6.230602   -5.367094    0.607809
    107          1           0       -4.722386   -4.748793   -0.109727
    108          1           0       -7.422196   -2.205356    1.773637
    109          1           0       -7.933666   -2.989791    0.379268
    110          1           0       -6.259139   -0.459708   -0.044414
    111          1           0       -7.763256   -0.383214    0.802308
    112          1           0       -7.806658   -2.006387   -1.787262
    113          1           0       -7.393201   -0.309198   -1.859531
    114          1           0       -9.839847   -0.824107   -0.188576
    115          1           0      -10.866584   -0.324794   -2.557361
    116          1           0      -10.614986   -2.015766   -2.247235
    117          1           0       -9.427979   -1.065752   -3.214469
    118          1           0       -9.396019    1.306423   -2.178697
    119          1           0       -8.466501    1.409421   -0.736853
    120          1           0      -11.414396    0.950450   -0.224126
    121          1           0      -11.028252    2.317617   -1.231870
    122          1           0       -9.379996    3.050024    0.577756
    123          1           0       -9.896605    1.480641    1.417684
    124          1           0      -11.922871    3.625504    0.763938
    125          1           0      -11.088420    3.985688    3.542457
    126          1           0      -10.806851    5.139348    2.326235
    127          1           0       -9.618526    3.811108    2.621103
    128          1           0      -12.369789    2.451651    3.410122
    129          1           0      -11.877884    1.202304    2.240030
    130          1           0      -13.969705    3.218919    1.622285
    131          1           0      -14.309748    2.132710    2.952121
    132          1           0      -15.094874    0.473259    1.426626
    133          1           0      -13.475450    0.381809    0.810619
    134          1           0      -14.598703    2.546077   -0.733469
    135          1           0      -16.760135    2.528931   -0.510470
    136          1           0      -16.794165    1.004809    0.373370
    137          1           0      -16.724182    1.025481   -1.390485
    138          1           0      -13.896492    1.445864   -2.403039
    139          1           0      -14.844380   -0.124615   -2.046945
    140          1           0      -13.317857    0.225267   -1.341180
 ---------------------------------------------------------------------

 SCF Done:  E(RPBE1PBE) =  -3005.33277400     A.U. after   15 cycles

 Excitation energies and oscillator strengths:

 Excited State   1:      Singlet-A      1.9070 eV  650.15 nm  f=0.3835  <S**2>=0.000
     245 -> 248       -0.18076
     246 -> 247        0.68921
     246 <- 247       -0.10240
 This state for optimization and/or second-order correction.
 Total Energy, E(TD-HF/TD-DFT) =  -3005.26269270
 Copying the excited state density for this state as the 1-particle RhoCI density.

 Excited State   2:      Singlet-A      2.2391 eV  553.72 nm  f=0.1080  <S**2>=0.000
     245 -> 247        0.65366
     246 -> 248        0.25584

 Excited State   3:      Singlet-A      3.0967 eV  400.38 nm  f=0.0008  <S**2>=0.000
     240 -> 247       -0.10994
     241 -> 247        0.49933
     241 -> 249       -0.13093
     243 -> 247        0.43469

 Excited State   4:      Singlet-A      3.1333 eV  395.70 nm  f=0.0003  <S**2>=0.000
     242 -> 247        0.64408
     242 -> 248        0.12260
     242 -> 249        0.15766
     242 -> 250       -0.10480
     243 -> 247       -0.12844

 Excited State   5:      Singlet-A      3.2308 eV  383.76 nm  f=0.0002  <S**2>=0.000
     241 -> 247       -0.44541
     242 -> 247        0.13198
     243 -> 247        0.51900

 The electronic state is 1-A.
 Alpha  occ. eigenvalues --  -46.92343 -19.27660 -19.23993 -19.20565 -19.19856
 Alpha  occ. eigenvalues --  -19.19340 -19.19251 -14.42002 -14.40767 -14.39595
 Alpha  occ. eigenvalues --  -14.39071 -10.36777 -10.35770 -10.32619 -10.31917
 Alpha  occ. eigenvalues --  -10.29708 -10.29560 -10.29404 -10.28164 -10.28036
 Alpha  occ. eigenvalues --  -10.28010 -10.27898 -10.27435 -10.27238 -10.26664
 Alpha  occ. eigenvalues --  -10.26604 -10.26532 -10.26155 -10.25992 -10.25989
 Alpha  occ. eigenvalues --  -10.25648 -10.25455 -10.25388 -10.24802 -10.24750
 Alpha  occ. eigenvalues --  -10.24746 -10.24686 -10.24631 -10.24602 -10.24525
 Alpha  occ. eigenvalues --  -10.24218 -10.23841 -10.23774 -10.23739 -10.23451
 Alpha  occ. eigenvalues --  -10.23440 -10.23426 -10.23423 -10.23063 -10.23050
 Alpha  occ. eigenvalues --  -10.22964 -10.22921 -10.22902 -10.22766 -10.22723
 Alpha  occ. eigenvalues --  -10.22721 -10.22658 -10.22234 -10.22209 -10.22047
 Alpha  occ. eigenvalues --  -10.21821 -10.21778 -10.21729 -10.21588 -10.21504
 Alpha  occ. eigenvalues --  -10.21347  -3.14516  -1.87345  -1.86874  -1.86769
 Alpha  occ. eigenvalues --   -1.12676  -1.08997  -1.05208  -1.03838  -1.03215
 Alpha  occ. eigenvalues --   -1.01067  -1.00892  -0.99494  -0.98676  -0.97979
 Alpha  occ. eigenvalues --   -0.87997  -0.85137  -0.84511  -0.83222  -0.83116
 Alpha  occ. eigenvalues --   -0.82468  -0.82261  -0.82169  -0.81612  -0.81240
 Alpha  occ. eigenvalues --   -0.80521  -0.79609  -0.78797  -0.77945  -0.77090
 Alpha  occ. eigenvalues --   -0.76350  -0.76321  -0.75567  -0.74819  -0.74746
 Alpha  occ. eigenvalues --   -0.73924  -0.73255  -0.71860  -0.71099  -0.70088
 Alpha  occ. eigenvalues --   -0.69842  -0.69693  -0.69466  -0.68337  -0.68126
 Alpha  occ. eigenvalues --   -0.67593  -0.67172  -0.66596  -0.64896  -0.64561
 Alpha  occ. eigenvalues --   -0.63727  -0.62615  -0.62425  -0.61040  -0.60508
 Alpha  occ. eigenvalues --   -0.60185  -0.59853  -0.59724  -0.58682  -0.58581
 Alpha  occ. eigenvalues --   -0.57802  -0.57217  -0.57043  -0.55787  -0.55282
 Alpha  occ. eigenvalues --   -0.54691  -0.54213  -0.53480  -0.53369  -0.52623
 Alpha  occ. eigenvalues --   -0.52497  -0.51765  -0.50948  -0.50688  -0.50297
 Alpha  occ. eigenvalues --   -0.49866  -0.49546  -0.49164  -0.48628  -0.48387
 Alpha  occ. eigenvalues --   -0.48119  -0.47790  -0.47599  -0.47439  -0.47393
 Alpha  occ. eigenvalues --   -0.47235  -0.46868  -0.46611  -0.46373  -0.45955
 Alpha  occ. eigenvalues --   -0.45562  -0.45336  -0.45217  -0.44835  -0.44765
 Alpha  occ. eigenvalues --   -0.44733  -0.44536  -0.44426  -0.44350  -0.44068
 Alpha  occ. eigenvalues --   -0.43985  -0.43776  -0.43592  -0.43559  -0.43419
 Alpha  occ. eigenvalues --   -0.43128  -0.42988  -0.42881  -0.42533  -0.42439
 Alpha  occ. eigenvalues --   -0.42047  -0.41958  -0.41623  -0.41322  -0.41270
 Alpha  occ. eigenvalues --   -0.41123  -0.41005  -0.40980  -0.40710  -0.40568
 Alpha  occ. eigenvalues --   -0.40511  -0.40304  -0.40194  -0.40063  -0.39969
 Alpha  occ. eigenvalues --   -0.39412  -0.39133  -0.39058  -0.38563  -0.38383
 Alpha  occ. eigenvalues --   -0.38237  -0.38151  -0.38021  -0.37733  -0.37615
 Alpha  occ. eigenvalues --   -0.37542  -0.37121  -0.37035  -0.36669  -0.36590
 Alpha  occ. eigenvalues --   -0.36405  -0.36089  -0.36015  -0.35906  -0.35839
 Alpha  occ. eigenvalues --   -0.35692  -0.35548  -0.35360  -0.35223  -0.35015
 Alpha  occ. eigenvalues --   -0.34722  -0.34607  -0.34126  -0.33964  -0.33819
 Alpha  occ. eigenvalues --   -0.33517  -0.33261  -0.32950  -0.32406  -0.32173
 Alpha  occ. eigenvalues --   -0.31974  -0.31938  -0.31717  -0.31408  -0.31307
 Alpha  occ. eigenvalues --   -0.30412  -0.30349  -0.29933  -0.29527  -0.29428
 Alpha  occ. eigenvalues --   -0.29422  -0.28635  -0.28543  -0.27268  -0.26547
 Alpha  occ. eigenvalues --   -0.26230  -0.26167  -0.25853  -0.24431  -0.21142
 Alpha  occ. eigenvalues --   -0.19105
 Alpha virt. eigenvalues --   -0.11297  -0.05500  -0.04295  -0.02241  -0.00538
 Alpha virt. eigenvalues --   -0.00243   0.00433   0.01395   0.01730   0.03269
 Alpha virt. eigenvalues --    0.04119   0.05144   0.05379   0.05609   0.05719

 Mulliken charges:
               1
     1  Mg   0.968863
     2  C   -0.070339
     3  C   -0.042853
     4  C   -0.042043
     5  C   -0.054783
     6  N   -0.372116
     7  C    0.076476
     8  C   -0.113240
     9  C   -0.135721
    10  C    0.101930
    11  C    0.007444
    12  C    0.026304
    13  C   -0.034244
    14  C    0.220330
    15  O   -0.267094
    16  O   -0.328407
    17  N   -0.533579
    18  C    0.138754
    19  C   -0.206350
    20  C   -0.046222
    21  C    0.194344
    22  C    0.057639
    23  C    0.046363
    24  O   -0.266685
    25  C   -0.026220
    26  N   -0.291554
    27  C   -0.037990
    28  C   -0.062906
    29  C   -0.140190
    30  C    0.065568
    31  C    0.021964
    32  C   -0.022928
    33  C   -0.090649
    34  N   -0.444923
    35  C    0.097351
    36  C   -0.159099
    37  C   -0.026255
    38  C    0.187017
    39  C    0.050106
    40  C    0.129429
    41  O   -0.200875
    42  C   -0.101463
    43  C    0.294598
    44  O   -0.236994
    45  O   -0.414124
    46  C    0.138481
    47  C    0.215816
    48  C   -0.169317
    49  C   -0.174059
    50  C    0.011423
    51  C    0.006896
    52  C   -0.011109
    53  C    0.011581
    54  C   -0.231982
    55  C    0.005512
    56  C    0.006870
    57  C   -0.054097
    58  C   -0.054359
    59  C   -0.194443
    60  C   -0.013925
    61  C   -0.030285
    62  C   -0.052040
    63  C    0.018765
    64  C   -0.247409
    65  C   -0.023112
    66  C   -0.007728
    67  H   -0.008488
    68  H    0.031699
    69  H    0.000364
    70  H    0.066232
    71  H    0.055748
    72  H    0.056255
    73  H    0.046128
    74  H    0.040534
    75  H    0.033115
    76  H    0.059515
    77  H    0.043135
    78  H    0.046732
    79  H    0.055478
    80  H    0.059729
    81  H    0.062502
    82  H    0.059012
    83  H    0.072245
    84  H    0.063409
    85  H    0.035826
    86  H    0.031945
    87  H    0.037068
    88  H    0.050884
    89  H    0.050691
    90  H    0.044612
    91  H    0.041056
    92  H    0.043137
    93  H    0.078983
    94  H    0.031631
    95  H    0.061955
    96  H    0.029281
    97  H    0.070495
    98  H    0.087149
    99  H    0.036899
   100  H    0.057386
   101  H    0.059233
   102  H    0.055965
   103  H    0.073250
   104  H    0.030399
   105  H    0.041066
   106  H    0.054999
   107  H    0.023413
   108  H    0.033964
   109  H    0.014740
   110  H    0.026777
   111  H    0.028947
   112  H    0.038389
   113  H    0.015939
   114  H    0.021276
   115  H    0.024641
   116  H    0.037792
   117  H    0.034432
   118  H    0.016925
   119  H    0.020929
   120  H    0.033978
   121  H    0.022715
   122  H    0.044953
   123  H    0.038570
   124  H    0.028971
   125  H    0.022379
   126  H    0.036494
   127  H    0.032285
   128  H    0.031652
   129  H    0.018008
   130  H    0.030444
   131  H    0.027632
   132  H    0.031194
   133  H    0.016616
   134  H    0.037426
   135  H    0.034079
   136  H    0.032366
   137  H    0.025467
   138  H    0.040901
   139  H    0.042657
   140  H    0.019682
 Sum of Mulliken charges =  -0.00000

 Dipole moment (field-independent basis, Debye):
    X=             -1.5669    Y=              4.3964    Z=              2.0810  Tot=              5.1102
 Quadrupole moment (field-independent basis, Debye-Ang):
   XX=           -383.1744   YY=           -408.1982   ZZ=           -406.0295
   XY=             -0.3564   XZ=             11.0460   YZ=            -10.9894

 Normal termination of Gaussian 16 at Thu May  5 12:35:35 2022.
