 Gaussian 16, Revision A.03,
 Gaussian 16:  ES64L-G16RevA.03 25-Dec-2016

 --------------------------------
 #p wB97XD/Def2SVP td=(nstates=5)
 --------------------------------

 ----------------------------------------------------
 step_901_chromophore_10 TDDFT with wB97XD functional
 ----------------------------------------------------
 Symbolic Z-matrix:
 Charge =  0 Multiplicity = 1

                         Standard orientation:
 ---------------------------------------------------------------------
 Center     Atomic      Atomic             Coordinates (Angstroms)
 Number     Number       Type             X           Y           Z
 ---------------------------------------------------------------------
      1         12           0        5.833038    0.482277   -0.033815
      2          6           0        3.527289   -2.039230   -0.026986
      3          6           0        3.473770    2.724656   -0.980965
      4          6           0        8.259847    2.850631   -0.018603
      5          6           0        8.282800   -1.909184    0.651582
      6          7           0        3.743727    0.281628   -0.742651
      7          6           0        3.028796   -0.819588   -0.487539
      8          6           0        1.495345   -0.445624   -0.750559
      9          6           0        1.506368    1.054610   -1.213622
     10          6           0        3.009846    1.378271   -1.034817
     11          6           0        1.065265    1.266360   -2.728362
     12          6           0        0.629661   -0.721195    0.479069
     13          6           0       -0.822129   -0.398165    0.356435
     14          6           0       -1.941595   -1.458777    0.194943
     15          8           0       -2.150751   -2.092784   -0.839810
     16          8           0       -2.483037   -1.654241    1.424076
     17          7           0        5.859863    2.438092   -0.377758
     18          6           0        4.823566    3.220411   -0.725739
     19          6           0        5.219207    4.607351   -0.699449
     20          6           0        6.572432    4.656224   -0.314167
     21          6           0        6.953521    3.303250   -0.150391
     22          6           0        4.266222    5.792780   -1.006021
     23          6           0        7.461914    5.853327   -0.165392
     24          8           0        8.685721    5.737737    0.065916
     25          6           0        6.922672    7.244392   -0.135602
     26          7           0        8.042171    0.466661    0.025836
     27          6           0        8.737253    1.544051    0.014255
     28          6           0       10.220481    1.175993    0.103227
     29          6           0       10.181915   -0.170696    0.722765
     30          6           0        8.724199   -0.605153    0.415228
     31          6           0       11.039018    1.264659   -1.256315
     32          6           0       10.439470   -0.223166    2.292836
     33          6           0        9.285486    0.441388    3.183294
     34          7           0        5.960525   -1.622514    0.165046
     35          6           0        6.963352   -2.473826    0.561046
     36          6           0        6.424953   -3.809215    0.830301
     37          6           0        5.049251   -3.688843    0.577292
     38          6           0        4.840669   -2.341167    0.197333
     39          6           0        7.243578   -5.113803    0.996465
     40          6           0        3.851725   -4.440546    0.425379
     41          8           0        3.687750   -5.642272    0.428564
     42          6           0        2.765069   -3.376296    0.170589
     43          6           0        2.107148   -3.762020   -1.063994
     44          8           0        2.557690   -3.957936   -2.180231
     45          8           0        0.727492   -4.036448   -0.790549
     46          6           0        0.041451   -4.780728   -1.858924
     47          6           0       -3.182257   -2.942079    1.347191
     48          6           0       -4.707127   -2.558147    1.356193
     49          6           0       -5.804019   -3.149770    0.828807
     50          6           0       -5.761033   -4.510927    0.122929
     51          6           0       -7.127552   -2.347191    0.733650
     52          6           0       -7.216571   -0.970460    0.064304
     53          6           0       -7.878276   -1.064703   -1.241449
     54          6           0       -9.344446   -0.538208   -1.117272
     55          6           0      -10.092679   -1.063936   -2.349897
     56          6           0       -9.373528    0.963144   -1.144186
     57          6           0      -10.599589    1.611152   -0.519838
     58          6           0      -10.172337    2.334862    0.798592
     59          6           0      -11.344760    3.080641    1.509530
     60          6           0      -10.671221    4.078404    2.539796
     61          6           0      -12.314845    2.194270    2.352524
     62          6           0      -13.841620    2.192800    1.969278
     63          6           0      -14.324087    1.057049    0.922204
     64          6           0      -14.802552    1.506700   -0.479286
     65          6           0      -16.360295    1.514925   -0.487162
     66          6           0      -14.235800    0.703216   -1.681083
     67          1           0        2.805071    3.564715   -1.181142
     68          1           0        9.128968    3.506681   -0.100876
     69          1           0        9.043544   -2.639225    0.936357
     70          1           0        1.038400   -1.114046   -1.479549
     71          1           0        0.847175    1.601387   -0.539212
     72          1           0        0.914328    0.294596   -3.199289
     73          1           0        1.781564    1.843004   -3.313771
     74          1           0        0.166634    1.870770   -2.851589
     75          1           0        0.903605   -0.071517    1.310515
     76          1           0        0.622341   -1.763772    0.792918
     77          1           0       -0.948767    0.147156   -0.578430
     78          1           0       -1.174132    0.248935    1.158761
     79          1           0        3.279465    5.568614   -1.409365
     80          1           0        4.885904    6.514129   -1.538973
     81          1           0        4.077798    6.139531    0.010391
     82          1           0        6.006151    7.316671    0.451406
     83          1           0        6.745591    7.596291   -1.151876
     84          1           0        7.751805    7.798122    0.304521
     85          1           0       10.642144    1.877648    0.822635
     86          1           0       10.830199   -0.925615    0.278886
     87          1           0       11.689072    0.397426   -1.369978
     88          1           0       11.725905    2.101838   -1.383172
     89          1           0       10.291673    1.277165   -2.048706
     90          1           0       11.374673    0.302768    2.484559
     91          1           0       10.590703   -1.272394    2.545936
     92          1           0        8.963152   -0.312539    3.902146
     93          1           0        8.528963    0.990635    2.623302
     94          1           0        9.662392    1.150075    3.921366
     95          1           0        6.863903   -5.904748    1.643195
     96          1           0        8.210912   -4.803627    1.392458
     97          1           0        7.454406   -5.566947    0.027524
     98          1           0        2.047212   -3.375382    0.990646
     99          1           0       -0.961934   -5.070261   -1.545667
    100          1           0        0.468604   -5.769288   -2.030674
    101          1           0       -0.130035   -4.149918   -2.731769
    102          1           0       -3.020695   -3.554913    2.235116
    103          1           0       -3.110136   -3.701812    0.569158
    104          1           0       -4.807757   -1.505538    1.620839
    105          1           0       -6.267216   -4.419442   -0.838009
    106          1           0       -6.230602   -5.367094    0.607809
    107          1           0       -4.722386   -4.748793   -0.109727
    108          1           0       -7.422196   -2.205356    1.773637
    109          1           0       -7.933666   -2.989791    0.379268
    110          1           0       -6.259139   -0.459708   -0.044414
    111          1           0       -7.763256   -0.383214    0.802308
    112          1           0       -7.806658   -2.006387   -1.787262
    113          1           0       -7.393201   -0.309198   -1.859531
    114          1           0       -9.839847   -0.824107   -0.188576
    115          1           0      -10.866584   -0.324794   -2.557361
    116          1           0      -10.614986   -2.015766   -2.247235
    117          1           0       -9.427979   -1.065752   -3.214469
    118          1           0       -9.396019    1.306423   -2.178697
    119          1           0       -8.466501    1.409421   -0.736853
    120          1           0      -11.414396    0.950450   -0.224126
    121          1           0      -11.028252    2.317617   -1.231870
    122          1           0       -9.379996    3.050024    0.577756
    123          1           0       -9.896605    1.480641    1.417684
    124          1           0      -11.922871    3.625504    0.763938
    125          1           0      -11.088420    3.985688    3.542457
    126          1           0      -10.806851    5.139348    2.326235
    127          1           0       -9.618526    3.811108    2.621103
    128          1           0      -12.369789    2.451651    3.410122
    129          1           0      -11.877884    1.202304    2.240030
    130          1           0      -13.969705    3.218919    1.622285
    131          1           0      -14.309748    2.132710    2.952121
    132          1           0      -15.094874    0.473259    1.426626
    133          1           0      -13.475450    0.381809    0.810619
    134          1           0      -14.598703    2.546077   -0.733469
    135          1           0      -16.760135    2.528931   -0.510470
    136          1           0      -16.794165    1.004809    0.373370
    137          1           0      -16.724182    1.025481   -1.390485
    138          1           0      -13.896492    1.445864   -2.403039
    139          1           0      -14.844380   -0.124615   -2.046945
    140          1           0      -13.317857    0.225267   -1.341180
 ---------------------------------------------------------------------

 SCF Done:  E(RwB97XD) =  -3007.84513510     A.U. after   17 cycles

 Excitation energies and oscillator strengths:

 Excited State   1:      Singlet-A      1.6961 eV  730.98 nm  f=0.3936  <S**2>=0.000
     245 -> 248        0.19625
     246 -> 247        0.68013
     245 <- 248        0.11726
 This state for optimization and/or second-order correction.
 Total Energy, E(TD-HF/TD-DFT) =  -3007.78280315
 Copying the excited state density for this state as the 1-particle RhoCI density.

 Excited State   2:      Singlet-A      2.1877 eV  566.74 nm  f=0.1077  <S**2>=0.000
     245 -> 247        0.63885
     246 -> 248       -0.29072

 Excited State   3:      Singlet-A      3.5320 eV  351.03 nm  f=0.4321  <S**2>=0.000
     242 -> 247        0.18003
     243 -> 247        0.30542
     245 -> 247        0.22424
     246 -> 248        0.54346

 Excited State   4:      Singlet-A      3.5798 eV  346.34 nm  f=0.1235  <S**2>=0.000
     241 -> 247        0.13553
     242 -> 247       -0.23405
     243 -> 247        0.55207
     245 -> 247       -0.11384
     246 -> 248       -0.24829

 Excited State   5:      Singlet-A      3.6183 eV  342.66 nm  f=0.0013  <S**2>=0.000
     239 -> 247        0.12494
     239 -> 249       -0.11830
     240 -> 247        0.46448
     240 -> 248       -0.17934
     240 -> 249       -0.30776
     240 -> 250        0.22406
     241 -> 249        0.12661
     243 -> 247        0.12747

 The electronic state is 1-A.
 Alpha  occ. eigenvalues --  -46.95281 -19.32196 -19.28558 -19.25215 -19.24601
 Alpha  occ. eigenvalues --  -19.24138 -19.24107 -14.47000 -14.45915 -14.44597
 Alpha  occ. eigenvalues --  -14.43983 -10.43544 -10.42619 -10.39512 -10.38766
 Alpha  occ. eigenvalues --  -10.36158 -10.35914 -10.35674 -10.34467 -10.34347
 Alpha  occ. eigenvalues --  -10.34306 -10.34198 -10.33748 -10.33740 -10.33176
 Alpha  occ. eigenvalues --  -10.32954 -10.32853 -10.32440 -10.32390 -10.32230
 Alpha  occ. eigenvalues --  -10.31928 -10.31883 -10.31792 -10.31211 -10.31200
 Alpha  occ. eigenvalues --  -10.30983 -10.30951 -10.30949 -10.30900 -10.30859
 Alpha  occ. eigenvalues --  -10.30643 -10.30406 -10.30277 -10.30119 -10.29938
 Alpha  occ. eigenvalues --  -10.29789 -10.29721 -10.29696 -10.29511 -10.29452
 Alpha  occ. eigenvalues --  -10.29269 -10.29263 -10.29238 -10.29144 -10.29097
 Alpha  occ. eigenvalues --  -10.29087 -10.28922 -10.28600 -10.28569 -10.28425
 Alpha  occ. eigenvalues --  -10.28243 -10.28144 -10.28083 -10.27993 -10.27936
 Alpha  occ. eigenvalues --  -10.27760  -3.21310  -1.94890  -1.94418  -1.94308
 Alpha  occ. eigenvalues --   -1.20036  -1.16427  -1.12667  -1.11396  -1.10551
 Alpha  occ. eigenvalues --   -1.08421  -1.08276  -1.06823  -1.06022  -1.05372
 Alpha  occ. eigenvalues --   -0.95578  -0.92792  -0.92144  -0.90823  -0.90789
 Alpha  occ. eigenvalues --   -0.90049  -0.89931  -0.89879  -0.89200  -0.88896
 Alpha  occ. eigenvalues --   -0.88109  -0.87237  -0.86441  -0.85562  -0.84740
 Alpha  occ. eigenvalues --   -0.84142  -0.83979  -0.83219  -0.82434  -0.82374
 Alpha  occ. eigenvalues --   -0.81595  -0.80919  -0.79502  -0.78703  -0.77706
 Alpha  occ. eigenvalues --   -0.77517  -0.77298  -0.77159  -0.76005  -0.75794
 Alpha  occ. eigenvalues --   -0.75142  -0.74763  -0.74111  -0.72511  -0.72118
 Alpha  occ. eigenvalues --   -0.71244  -0.70234  -0.70006  -0.68656  -0.68035
 Alpha  occ. eigenvalues --   -0.67605  -0.67495  -0.67197  -0.66129  -0.66074
 Alpha  occ. eigenvalues --   -0.65479  -0.64859  -0.64705  -0.63232  -0.62738
 Alpha  occ. eigenvalues --   -0.62115  -0.61600  -0.60962  -0.60726  -0.60164
 Alpha  occ. eigenvalues --   -0.59902  -0.59265  -0.58358  -0.58025  -0.57690
 Alpha  occ. eigenvalues --   -0.57325  -0.56943  -0.56526  -0.56088  -0.55750
 Alpha  occ. eigenvalues --   -0.55540  -0.55265  -0.55026  -0.54987  -0.54779
 Alpha  occ. eigenvalues --   -0.54588  -0.54230  -0.53913  -0.53742  -0.53280
 Alpha  occ. eigenvalues --   -0.52963  -0.52689  -0.52544  -0.52262  -0.52116
 Alpha  occ. eigenvalues --   -0.52070  -0.51896  -0.51797  -0.51711  -0.51379
 Alpha  occ. eigenvalues --   -0.51303  -0.51099  -0.50909  -0.50839  -0.50748
 Alpha  occ. eigenvalues --   -0.50406  -0.50264  -0.50172  -0.49882  -0.49807
 Alpha  occ. eigenvalues --   -0.49285  -0.49234  -0.48862  -0.48564  -0.48404
 Alpha  occ. eigenvalues --   -0.48342  -0.48238  -0.48200  -0.47910  -0.47784
 Alpha  occ. eigenvalues --   -0.47718  -0.47482  -0.47439  -0.47240  -0.47162
 Alpha  occ. eigenvalues --   -0.46609  -0.46324  -0.46251  -0.45727  -0.45467
 Alpha  occ. eigenvalues --   -0.45348  -0.45288  -0.45051  -0.44829  -0.44755
 Alpha  occ. eigenvalues --   -0.44629  -0.44223  -0.44114  -0.43939  -0.43762
 Alpha  occ. eigenvalues --   -0.43477  -0.43162  -0.43035  -0.42995  -0.42842
 Alpha  occ. eigenvalues --   -0.42779  -0.42632  -0.42369  -0.42340  -0.42166
 Alpha  occ. eigenvalues --   -0.41798  -0.41640  -0.41201  -0.40957  -0.40819
 Alpha  occ. eigenvalues --   -0.40447  -0.40295  -0.39987  -0.39431  -0.39214
 Alpha  occ. eigenvalues --   -0.38988  -0.38948  -0.38672  -0.38415  -0.38138
 Alpha  occ. eigenvalues --   -0.37501  -0.37265  -0.36848  -0.36310  -0.36297
 Alpha  occ. eigenvalues --   -0.36208  -0.35695  -0.35606  -0.33868  -0.33393
 Alpha  occ. eigenvalues --   -0.33335  -0.33085  -0.32438  -0.31193  -0.26106
 Alpha  occ. eigenvalues --   -0.23283
 Alpha virt. eigenvalues --   -0.07154  -0.00073   0.01965   0.04253   0.05302
 Alpha virt. eigenvalues --    0.06655   0.07228   0.08074   0.08548   0.09524
 Alpha virt. eigenvalues --    0.10677   0.11926   0.12005   0.12385   0.12454

 Mulliken charges:
               1
     1  Mg   0.959588
     2  C   -0.071742
     3  C   -0.061766
     4  C   -0.057707
     5  C   -0.067433
     6  N   -0.336068
     7  C    0.041117
     8  C   -0.084267
     9  C   -0.112344
    10  C    0.090511
    11  C    0.016267
    12  C    0.041319
    13  C   -0.016226
    14  C    0.208796
    15  O   -0.264748
    16  O   -0.329560
    17  N   -0.502281
    18  C    0.129493
    19  C   -0.196175
    20  C   -0.038026
    21  C    0.186241
    22  C    0.073969
    23  C    0.040718
    24  O   -0.261111
    25  C   -0.015844
    26  N   -0.251827
    27  C   -0.053516
    28  C   -0.039959
    29  C   -0.110196
    30  C    0.049235
    31  C    0.030589
    32  C   -0.011328
    33  C   -0.069666
    34  N   -0.407565
    35  C    0.086305
    36  C   -0.160475
    37  C   -0.021958
    38  C    0.167040
    39  C    0.063593
    40  C    0.111341
    41  O   -0.191283
    42  C   -0.060058
    43  C    0.267829
    44  O   -0.230720
    45  O   -0.412272
    46  C    0.152864
    47  C    0.241689
    48  C   -0.181666
    49  C   -0.162223
    50  C    0.027145
    51  C    0.024147
    52  C    0.004379
    53  C    0.029878
    54  C   -0.198677
    55  C    0.019867
    56  C    0.022562
    57  C   -0.025901
    58  C   -0.028960
    59  C   -0.171592
    60  C    0.000091
    61  C   -0.013728
    62  C   -0.035929
    63  C    0.037390
    64  C   -0.221942
    65  C   -0.010929
    66  C    0.011226
    67  H   -0.017213
    68  H    0.028098
    69  H   -0.005573
    70  H    0.052100
    71  H    0.045799
    72  H    0.051312
    73  H    0.040119
    74  H    0.035444
    75  H    0.025660
    76  H    0.044081
    77  H    0.032510
    78  H    0.042278
    79  H    0.053280
    80  H    0.051680
    81  H    0.055551
    82  H    0.053709
    83  H    0.068618
    84  H    0.062350
    85  H    0.024983
    86  H    0.022866
    87  H    0.031243
    88  H    0.046240
    89  H    0.044554
    90  H    0.036485
    91  H    0.033484
    92  H    0.037636
    93  H    0.065428
    94  H    0.026284
    95  H    0.058652
    96  H    0.021877
    97  H    0.065614
    98  H    0.082404
    99  H    0.033263
   100  H    0.053416
   101  H    0.055725
   102  H    0.051540
   103  H    0.062562
   104  H    0.024549
   105  H    0.034518
   106  H    0.050430
   107  H    0.016703
   108  H    0.026238
   109  H    0.005870
   110  H    0.019756
   111  H    0.018212
   112  H    0.029666
   113  H    0.005622
   114  H    0.007895
   115  H    0.014184
   116  H    0.033242
   117  H    0.027737
   118  H    0.007395
   119  H    0.010016
   120  H    0.004237
   121  H    0.014520
   122  H    0.035496
   123  H    0.024049
   124  H    0.016329
   125  H    0.015590
   126  H    0.031500
   127  H    0.025401
   128  H    0.023316
   129  H    0.006048
   130  H    0.019940
   131  H    0.021415
   132  H    0.023368
   133  H    0.006002
   134  H    0.026292
   135  H    0.028670
   136  H    0.025458
   137  H    0.018871
   138  H    0.035520
   139  H    0.037901
   140  H    0.006466
 Sum of Mulliken charges =  -0.00000

 Dipole moment (field-independent basis, Debye):
    X=             -1.5887    Y=              4.5910    Z=              2.1055  Tot=              5.2948
 Quadrupole moment (field-independent basis, Debye-Ang):
   XX=           -383.7996   YY=           -406.1021   ZZ=           -405.7311
   XY=              1.3002   XZ=             11.1503   YZ=            -11.1065

 Normal termination of Gaussian 16 at Thu May  5 13:08:10 2022.
