 Gaussian 16, Revision A.03,
 Gaussian 16:  ES64L-G16RevA.03 25-Dec-2016

 --------------------
 #p ZINDO=(nstates=5)
 --------------------

 -----------------------------
 step_901_chromophore_10 ZINDO
 -----------------------------
 Symbolic Z-matrix:
 Charge =  0 Multiplicity = 1

                         Standard orientation:
 ---------------------------------------------------------------------
 Center     Atomic      Atomic             Coordinates (Angstroms)
 Number     Number       Type             X           Y           Z
 ---------------------------------------------------------------------
      1         12           0        5.833038    0.482277   -0.033815
      2          6           0        3.527289   -2.039230   -0.026986
      3          6           0        3.473770    2.724656   -0.980965
      4          6           0        8.259847    2.850631   -0.018603
      5          6           0        8.282800   -1.909184    0.651582
      6          7           0        3.743727    0.281628   -0.742651
      7          6           0        3.028796   -0.819588   -0.487539
      8          6           0        1.495345   -0.445624   -0.750559
      9          6           0        1.506368    1.054610   -1.213622
     10          6           0        3.009846    1.378271   -1.034817
     11          6           0        1.065265    1.266360   -2.728362
     12          6           0        0.629661   -0.721195    0.479069
     13          6           0       -0.822129   -0.398165    0.356435
     14          6           0       -1.941595   -1.458777    0.194943
     15          8           0       -2.150751   -2.092784   -0.839810
     16          8           0       -2.483037   -1.654241    1.424076
     17          7           0        5.859863    2.438092   -0.377758
     18          6           0        4.823566    3.220411   -0.725739
     19          6           0        5.219207    4.607351   -0.699449
     20          6           0        6.572432    4.656224   -0.314167
     21          6           0        6.953521    3.303250   -0.150391
     22          6           0        4.266222    5.792780   -1.006021
     23          6           0        7.461914    5.853327   -0.165392
     24          8           0        8.685721    5.737737    0.065916
     25          6           0        6.922672    7.244392   -0.135602
     26          7           0        8.042171    0.466661    0.025836
     27          6           0        8.737253    1.544051    0.014255
     28          6           0       10.220481    1.175993    0.103227
     29          6           0       10.181915   -0.170696    0.722765
     30          6           0        8.724199   -0.605153    0.415228
     31          6           0       11.039018    1.264659   -1.256315
     32          6           0       10.439470   -0.223166    2.292836
     33          6           0        9.285486    0.441388    3.183294
     34          7           0        5.960525   -1.622514    0.165046
     35          6           0        6.963352   -2.473826    0.561046
     36          6           0        6.424953   -3.809215    0.830301
     37          6           0        5.049251   -3.688843    0.577292
     38          6           0        4.840669   -2.341167    0.197333
     39          6           0        7.243578   -5.113803    0.996465
     40          6           0        3.851725   -4.440546    0.425379
     41          8           0        3.687750   -5.642272    0.428564
     42          6           0        2.765069   -3.376296    0.170589
     43          6           0        2.107148   -3.762020   -1.063994
     44          8           0        2.557690   -3.957936   -2.180231
     45          8           0        0.727492   -4.036448   -0.790549
     46          6           0        0.041451   -4.780728   -1.858924
     47          6           0       -3.182257   -2.942079    1.347191
     48          6           0       -4.707127   -2.558147    1.356193
     49          6           0       -5.804019   -3.149770    0.828807
     50          6           0       -5.761033   -4.510927    0.122929
     51          6           0       -7.127552   -2.347191    0.733650
     52          6           0       -7.216571   -0.970460    0.064304
     53          6           0       -7.878276   -1.064703   -1.241449
     54          6           0       -9.344446   -0.538208   -1.117272
     55          6           0      -10.092679   -1.063936   -2.349897
     56          6           0       -9.373528    0.963144   -1.144186
     57          6           0      -10.599589    1.611152   -0.519838
     58          6           0      -10.172337    2.334862    0.798592
     59          6           0      -11.344760    3.080641    1.509530
     60          6           0      -10.671221    4.078404    2.539796
     61          6           0      -12.314845    2.194270    2.352524
     62          6           0      -13.841620    2.192800    1.969278
     63          6           0      -14.324087    1.057049    0.922204
     64          6           0      -14.802552    1.506700   -0.479286
     65          6           0      -16.360295    1.514925   -0.487162
     66          6           0      -14.235800    0.703216   -1.681083
     67          1           0        2.805071    3.564715   -1.181142
     68          1           0        9.128968    3.506681   -0.100876
     69          1           0        9.043544   -2.639225    0.936357
     70          1           0        1.038400   -1.114046   -1.479549
     71          1           0        0.847175    1.601387   -0.539212
     72          1           0        0.914328    0.294596   -3.199289
     73          1           0        1.781564    1.843004   -3.313771
     74          1           0        0.166634    1.870770   -2.851589
     75          1           0        0.903605   -0.071517    1.310515
     76          1           0        0.622341   -1.763772    0.792918
     77          1           0       -0.948767    0.147156   -0.578430
     78          1           0       -1.174132    0.248935    1.158761
     79          1           0        3.279465    5.568614   -1.409365
     80          1           0        4.885904    6.514129   -1.538973
     81          1           0        4.077798    6.139531    0.010391
     82          1           0        6.006151    7.316671    0.451406
     83          1           0        6.745591    7.596291   -1.151876
     84          1           0        7.751805    7.798122    0.304521
     85          1           0       10.642144    1.877648    0.822635
     86          1           0       10.830199   -0.925615    0.278886
     87          1           0       11.689072    0.397426   -1.369978
     88          1           0       11.725905    2.101838   -1.383172
     89          1           0       10.291673    1.277165   -2.048706
     90          1           0       11.374673    0.302768    2.484559
     91          1           0       10.590703   -1.272394    2.545936
     92          1           0        8.963152   -0.312539    3.902146
     93          1           0        8.528963    0.990635    2.623302
     94          1           0        9.662392    1.150075    3.921366
     95          1           0        6.863903   -5.904748    1.643195
     96          1           0        8.210912   -4.803627    1.392458
     97          1           0        7.454406   -5.566947    0.027524
     98          1           0        2.047212   -3.375382    0.990646
     99          1           0       -0.961934   -5.070261   -1.545667
    100          1           0        0.468604   -5.769288   -2.030674
    101          1           0       -0.130035   -4.149918   -2.731769
    102          1           0       -3.020695   -3.554913    2.235116
    103          1           0       -3.110136   -3.701812    0.569158
    104          1           0       -4.807757   -1.505538    1.620839
    105          1           0       -6.267216   -4.419442   -0.838009
    106          1           0       -6.230602   -5.367094    0.607809
    107          1           0       -4.722386   -4.748793   -0.109727
    108          1           0       -7.422196   -2.205356    1.773637
    109          1           0       -7.933666   -2.989791    0.379268
    110          1           0       -6.259139   -0.459708   -0.044414
    111          1           0       -7.763256   -0.383214    0.802308
    112          1           0       -7.806658   -2.006387   -1.787262
    113          1           0       -7.393201   -0.309198   -1.859531
    114          1           0       -9.839847   -0.824107   -0.188576
    115          1           0      -10.866584   -0.324794   -2.557361
    116          1           0      -10.614986   -2.015766   -2.247235
    117          1           0       -9.427979   -1.065752   -3.214469
    118          1           0       -9.396019    1.306423   -2.178697
    119          1           0       -8.466501    1.409421   -0.736853
    120          1           0      -11.414396    0.950450   -0.224126
    121          1           0      -11.028252    2.317617   -1.231870
    122          1           0       -9.379996    3.050024    0.577756
    123          1           0       -9.896605    1.480641    1.417684
    124          1           0      -11.922871    3.625504    0.763938
    125          1           0      -11.088420    3.985688    3.542457
    126          1           0      -10.806851    5.139348    2.326235
    127          1           0       -9.618526    3.811108    2.621103
    128          1           0      -12.369789    2.451651    3.410122
    129          1           0      -11.877884    1.202304    2.240030
    130          1           0      -13.969705    3.218919    1.622285
    131          1           0      -14.309748    2.132710    2.952121
    132          1           0      -15.094874    0.473259    1.426626
    133          1           0      -13.475450    0.381809    0.810619
    134          1           0      -14.598703    2.546077   -0.733469
    135          1           0      -16.760135    2.528931   -0.510470
    136          1           0      -16.794165    1.004809    0.373370
    137          1           0      -16.724182    1.025481   -1.390485
    138          1           0      -13.896492    1.445864   -2.403039
    139          1           0      -14.844380   -0.124615   -2.046945
    140          1           0      -13.317857    0.225267   -1.341180
 ---------------------------------------------------------------------

 SCF Done:  E(RZINDO/S) =  -474.388339510     A.U. after   20 cycles

 Excitation energies and oscillator strengths:

 Excited State   1:      Singlet-A      1.2722 eV  974.58 nm  f=0.6099  <S**2>=0.000
     175 ->178         0.20790
     176 ->177         0.65845
 This state for optimization and/or second-order correction.
 Total Energy, E(CIS/TDA) =  -474.341587587
 Copying the excited state density for this state as the 1-particle RhoCI density.

 Excited State   2:      Singlet-A      1.9152 eV  647.38 nm  f=0.0537  <S**2>=0.000
     175 ->177         0.55482
     176 ->178        -0.41518

 Excited State   3:      Singlet-A      2.8770 eV  430.95 nm  f=0.0003  <S**2>=0.000
     168 ->177         0.28943
     168 ->178        -0.13817
     168 ->179         0.40661
     168 ->180         0.34404
     168 ->186        -0.19271
     168 ->187        -0.10721

 Excited State   4:      Singlet-A      2.9756 eV  416.67 nm  f=0.0777  <S**2>=0.000
     170 ->177         0.34523
     170 ->178        -0.11149
     170 ->179        -0.33814
     170 ->180         0.30031
     170 ->186         0.18002
     170 ->187        -0.14694
     176 ->178         0.14458

 Excited State   5:      Singlet-A      3.0291 eV  409.31 nm  f=0.9875  <S**2>=0.000
     170 ->179         0.10100
     175 ->177         0.35441
     176 ->178         0.49831
     176 ->179         0.18778

 The electronic state is 1-A.
 Alpha  occ. eigenvalues --   -1.86942  -1.85016  -1.81299  -1.75347  -1.72548
 Alpha  occ. eigenvalues --   -1.71022  -1.67906  -1.59990  -1.59224  -1.58942
 Alpha  occ. eigenvalues --   -1.53212  -1.51890  -1.49201  -1.48093  -1.45261
 Alpha  occ. eigenvalues --   -1.44261  -1.42646  -1.39479  -1.38935  -1.37697
 Alpha  occ. eigenvalues --   -1.35546  -1.33274  -1.32066  -1.31593  -1.29201
 Alpha  occ. eigenvalues --   -1.28041  -1.25211  -1.21746  -1.21163  -1.18969
 Alpha  occ. eigenvalues --   -1.17231  -1.16202  -1.15014  -1.14365  -1.13253
 Alpha  occ. eigenvalues --   -1.11158  -1.10670  -1.10198  -1.05697  -1.04146
 Alpha  occ. eigenvalues --   -1.02136  -1.01953  -0.98376  -0.97961  -0.96736
 Alpha  occ. eigenvalues --   -0.96123  -0.94526  -0.93649  -0.93549  -0.92450
 Alpha  occ. eigenvalues --   -0.91284  -0.90773  -0.90225  -0.89173  -0.87712
 Alpha  occ. eigenvalues --   -0.86466  -0.85382  -0.82760  -0.81658  -0.81119
 Alpha  occ. eigenvalues --   -0.78606  -0.78132  -0.77198  -0.76619  -0.76112
 Alpha  occ. eigenvalues --   -0.75700  -0.75274  -0.75207  -0.74943  -0.74078
 Alpha  occ. eigenvalues --   -0.73658  -0.72822  -0.72036  -0.71643  -0.70618
 Alpha  occ. eigenvalues --   -0.69383  -0.68875  -0.68559  -0.68345  -0.68213
 Alpha  occ. eigenvalues --   -0.67086  -0.66888  -0.66264  -0.65619  -0.65282
 Alpha  occ. eigenvalues --   -0.65084  -0.64364  -0.64250  -0.63967  -0.63213
 Alpha  occ. eigenvalues --   -0.62626  -0.62386  -0.62366  -0.61652  -0.61235
 Alpha  occ. eigenvalues --   -0.61070  -0.61033  -0.60817  -0.60424  -0.60315
 Alpha  occ. eigenvalues --   -0.59936  -0.59823  -0.58849  -0.58806  -0.58356
 Alpha  occ. eigenvalues --   -0.57259  -0.57003  -0.56884  -0.56543  -0.56425
 Alpha  occ. eigenvalues --   -0.56010  -0.55375  -0.54867  -0.54815  -0.54446
 Alpha  occ. eigenvalues --   -0.54121  -0.53509  -0.53477  -0.53239  -0.52681
 Alpha  occ. eigenvalues --   -0.51924  -0.51731  -0.51599  -0.51590  -0.51285
 Alpha  occ. eigenvalues --   -0.51100  -0.50734  -0.50393  -0.50305  -0.50020
 Alpha  occ. eigenvalues --   -0.49852  -0.49660  -0.49273  -0.48740  -0.48673
 Alpha  occ. eigenvalues --   -0.48507  -0.48318  -0.48051  -0.47833  -0.47578
 Alpha  occ. eigenvalues --   -0.47490  -0.47415  -0.47010  -0.46590  -0.46364
 Alpha  occ. eigenvalues --   -0.45989  -0.45907  -0.45722  -0.45530  -0.45378
 Alpha  occ. eigenvalues --   -0.45138  -0.44956  -0.44495  -0.44442  -0.43623
 Alpha  occ. eigenvalues --   -0.43430  -0.42988  -0.42738  -0.42610  -0.42158
 Alpha  occ. eigenvalues --   -0.41874  -0.41688  -0.41307  -0.39165  -0.38495
 Alpha  occ. eigenvalues --   -0.38045  -0.36894  -0.35440  -0.35310  -0.34933
 Alpha  occ. eigenvalues --   -0.33658  -0.32995  -0.32740  -0.31840  -0.26614
 Alpha  occ. eigenvalues --   -0.22043
 Alpha virt. eigenvalues --   -0.08628  -0.02278  -0.00746   0.01123   0.01339
 Alpha virt. eigenvalues --    0.02179   0.02900   0.02977   0.04611   0.04858
 Alpha virt. eigenvalues --    0.06552   0.06979   0.07290   0.07654   0.08275

 Mulliken charges:
               1
     1  Mg   0.425053
     2  C   -0.048584
     3  C   -0.101673
     4  C   -0.059996
     5  C   -0.064632
     6  N   -0.269326
     7  C    0.125317
     8  C    0.000600
     9  C    0.002909
    10  C    0.135089
    11  C   -0.052825
    12  C   -0.013322
    13  C   -0.004494
    14  C    0.470054
    15  O   -0.515635
    16  O   -0.241389
    17  N   -0.323820
    18  C    0.113318
    19  C   -0.000162
    20  C   -0.034978
    21  C    0.130156
    22  C   -0.053226
    23  C    0.326779
    24  O   -0.538970
    25  C   -0.030107
    26  N   -0.247677
    27  C    0.148881
    28  C    0.011855
    29  C    0.003995
    30  C    0.120036
    31  C   -0.052684
    32  C   -0.031392
    33  C   -0.065198
    34  N   -0.323096
    35  C    0.090203
    36  C    0.027030
    37  C   -0.053774
    38  C    0.130647
    39  C   -0.038202
    40  C    0.345626
    41  O   -0.514767
    42  C    0.060519
    43  C    0.490335
    44  O   -0.513811
    45  O   -0.295152
    46  C    0.074983
    47  C    0.097283
    48  C   -0.094481
    49  C   -0.007170
    50  C   -0.044285
    51  C   -0.023178
    52  C   -0.017766
    53  C   -0.028311
    54  C   -0.006748
    55  C   -0.060028
    56  C   -0.026202
    57  C   -0.045107
    58  C   -0.037983
    59  C   -0.017641
    60  C   -0.067904
    61  C   -0.042458
    62  C   -0.049955
    63  C   -0.028890
    64  C   -0.009947
    65  C   -0.062329
    66  C   -0.060636
    67  H    0.026762
    68  H    0.049113
    69  H    0.021537
    70  H    0.043228
    71  H    0.034576
    72  H    0.031499
    73  H    0.023029
    74  H    0.018941
    75  H    0.018830
    76  H    0.031273
    77  H    0.027234
    78  H    0.027135
    79  H    0.037418
    80  H    0.035648
    81  H    0.026931
    82  H    0.034706
    83  H    0.043002
    84  H    0.041372
    85  H    0.021644
    86  H    0.024245
    87  H    0.018913
    88  H    0.028205
    89  H    0.025529
    90  H    0.018478
    91  H    0.022474
    92  H    0.022504
    93  H    0.040943
    94  H    0.012504
    95  H    0.039025
    96  H    0.012791
    97  H    0.037822
    98  H    0.057342
    99  H    0.020305
   100  H    0.048268
   101  H    0.049021
   102  H    0.031339
   103  H    0.071586
   104  H    0.022283
   105  H    0.022056
   106  H    0.032530
   107  H    0.022604
   108  H    0.011235
   109  H    0.015642
   110  H    0.019379
   111  H    0.016623
   112  H    0.029159
   113  H    0.008429
   114  H    0.024961
   115  H    0.007163
   116  H    0.018613
   117  H    0.021955
   118  H    0.009442
   119  H    0.015469
   120  H    0.023447
   121  H    0.012782
   122  H    0.026743
   123  H    0.024607
   124  H    0.024987
   125  H    0.013870
   126  H    0.017668
   127  H    0.018723
   128  H    0.022244
   129  H    0.015399
   130  H    0.021645
   131  H    0.019678
   132  H    0.022093
   133  H    0.017126
   134  H    0.023215
   135  H    0.014729
   136  H    0.019902
   137  H    0.013806
   138  H    0.023561
   139  H    0.030783
   140  H    0.009519
 Sum of Mulliken charges =  -0.00000

 Dipole moment (field-independent basis, Debye):
    X=             -2.6926    Y=              6.8067    Z=              3.7226  Tot=              8.2121
 N-N= 4.315734341313D+03 E-N= 0.000000000000D+00  KE=-9.306000811042D+03
 Leave Link  601 at Thu May  5 13:22:02 2022, MaxMem=  6710886400 cpu:               0.8 elap:               0.0
 (Enter /sw/apps/gaussian-16.0/g16/l9999.exe)
 1\1\GINC-BP1-COMPUTE192\SP\RZINDO CIS\STO-3G\C55H74Mg1N4O6\OF15641\05-
 May-2022\0\\#p ZINDO=(nstates=5)\\step_901_chromophore_10 ZINDO\\0,1\M
 g,0,41.032,7.831,28.922\C,0,42.805,9.444,31.357\C,0,38.855,6.618,31.22
 \C,0,39.415,6.273,26.381\C,0,43.461,8.856,26.633\N,0,41.027,7.79,31.13
 7\C,0,41.77,8.646,31.847\C,0,41.2,8.622,33.342\C,0,40.023,7.583,33.322
 \C,0,39.989,7.247,31.811\C,0,40.304,6.272,34.18\C,0,40.801,10.02,33.81
 5\C,0,40.242,10.121,35.195\C,0,41.017,10.691,36.411\O,0,41.931,10.101,

 Normal termination of Gaussian 16 at Thu May  5 13:22:02 2022.
