 Gaussian 16, Revision A.03,
 Gaussian 16:  ES64L-G16RevA.03 25-Dec-2016

 ------------------------------
 #p blyp/Def2SVP td=(nstates=5)
 ------------------------------

 -------------------------------------------------
 step_901_chromophore_7 TDDFT with blyp functional
 -------------------------------------------------
 Symbolic Z-matrix:
 Charge =  0 Multiplicity = 1

                         Standard orientation:
 ---------------------------------------------------------------------
 Center     Atomic      Atomic             Coordinates (Angstroms)
 Number     Number       Type             X           Y           Z
 ---------------------------------------------------------------------
      1         12           0        5.880488    0.533929    0.223681
      2          6           0        3.429036   -2.006353   -0.067563
      3          6           0        3.557164    2.712004   -0.846817
      4          6           0        8.315981    2.869496    0.172009
      5          6           0        8.342278   -2.036852    0.777152
      6          7           0        3.722349    0.349924   -0.568270
      7          6           0        2.886374   -0.775036   -0.403370
      8          6           0        1.464885   -0.437576   -0.706658
      9          6           0        1.496111    1.144597   -0.982179
     10          6           0        3.026603    1.414488   -0.828275
     11          6           0        0.772331    1.687659   -2.282639
     12          6           0        0.548947   -0.856189    0.511609
     13          6           0       -0.914940   -0.408388    0.586873
     14          6           0       -1.923447   -1.580252    0.790162
     15          8           0       -1.894142   -2.462469    1.653131
     16          8           0       -2.734927   -1.652141   -0.246811
     17          7           0        5.894963    2.519132   -0.252279
     18          6           0        4.880476    3.274291   -0.750356
     19          6           0        5.229144    4.677202   -1.003835
     20          6           0        6.640236    4.757203   -0.689832
     21          6           0        6.991051    3.356513   -0.128384
     22          6           0        4.283134    5.674357   -1.612155
     23          6           0        7.578694    5.937525   -0.785773
     24          8           0        8.766452    5.976957   -0.454761
     25          6           0        6.971457    7.239290   -1.167714
     26          7           0        7.980650    0.479223    0.560289
     27          6           0        8.720302    1.565218    0.581003
     28          6           0       10.204583    1.195927    0.862612
     29          6           0       10.155362   -0.325784    1.179997
     30          6           0        8.734328   -0.664786    0.762102
     31          6           0       11.057019    1.503663   -0.321806
     32          6           0       10.330078   -0.512877    2.792259
     33          6           0       10.731844   -1.886287    3.241569
     34          7           0        5.935553   -1.608583    0.420463
     35          6           0        6.988994   -2.503638    0.596243
     36          6           0        6.508641   -3.833796    0.543912
     37          6           0        5.079241   -3.730095    0.362902
     38          6           0        4.807818   -2.352902    0.274732
     39          6           0        7.395612   -5.028241    0.705787
     40          6           0        3.816335   -4.438166    0.391927
     41          8           0        3.433376   -5.592142    0.573315
     42          6           0        2.695412   -3.339033    0.183251
     43          6           0        1.959983   -3.872507   -0.992393
     44          8           0        2.379866   -4.034531   -2.114932
     45          8           0        0.670747   -4.117420   -0.616843
     46          6           0       -0.205807   -4.481782   -1.755471
     47          6           0       -3.699521   -2.706001   -0.362804
     48          6           0       -5.010191   -2.162132   -0.823639
     49          6           0       -6.259188   -2.700127   -0.783597
     50          6           0       -6.534072   -4.119053   -0.126047
     51          6           0       -7.528410   -1.986096   -1.297279
     52          6           0       -7.459171   -0.871681   -2.380190
     53          6           0       -8.162439    0.460697   -1.959988
     54          6           0       -9.545402    0.580085   -2.522681
     55          6           0       -9.505268    1.082299   -4.002621
     56          6           0      -10.565307    1.370005   -1.638934
     57          6           0      -11.266665    0.514189   -0.655637
     58          6           0      -12.733756    0.425541   -0.966413
     59          6           0      -13.527099    0.063490    0.323475
     60          6           0      -14.790630   -0.714196   -0.004089
     61          6           0      -13.971774    1.407045    1.051758
     62          6           0      -13.615910    1.426529    2.521266
     63          6           0      -12.919652    2.715308    3.037836
     64          6           0      -11.480743    2.626058    3.603791
     65          6           0      -11.327685    3.623453    4.778745
     66          6           0      -10.318283    2.957438    2.581164
     67          1           0        2.788234    3.469636   -1.011786
     68          1           0        9.110978    3.618169    0.180468
     69          1           0        9.178277   -2.719198    0.940187
     70          1           0        1.086242   -0.804230   -1.660821
     71          1           0        0.959606    1.499818   -0.102846
     72          1           0        0.192500    0.979070   -2.875217
     73          1           0        1.525699    2.150395   -2.919722
     74          1           0        0.052629    2.433131   -1.944624
     75          1           0        1.162883   -0.593046    1.372196
     76          1           0        0.588420   -1.945525    0.507240
     77          1           0       -1.201356    0.164359   -0.295245
     78          1           0       -0.893326    0.338792    1.379136
     79          1           0        4.050177    6.594709   -1.076465
     80          1           0        3.314661    5.199566   -1.768113
     81          1           0        4.517376    5.928430   -2.645030
     82          1           0        7.681717    8.057992   -1.046055
     83          1           0        6.062465    7.488627   -0.621196
     84          1           0        6.833038    7.139492   -2.243741
     85          1           0       10.518022    1.828127    1.693123
     86          1           0       10.758535   -1.025856    0.601922
     87          1           0       10.449269    1.842668   -1.160020
     88          1           0       11.554045    0.604948   -0.687573
     89          1           0       11.827130    2.246640   -0.110679
     90          1           0        9.538804   -0.110513    3.425584
     91          1           0       11.098305    0.225573    3.019290
     92          1           0       11.341665   -2.403944    2.501363
     93          1           0        9.849761   -2.510278    3.378880
     94          1           0       11.239102   -1.936287    4.205477
     95          1           0        8.000987   -5.315354   -0.153543
     96          1           0        6.782185   -5.878142    1.007230
     97          1           0        8.084692   -4.750192    1.502812
     98          1           0        2.151947   -3.383571    1.128101
     99          1           0       -0.774680   -3.563677   -1.903874
    100          1           0       -0.924876   -5.155987   -1.290591
    101          1           0        0.284887   -4.919873   -2.625153
    102          1           0       -4.005476   -3.155223    0.580747
    103          1           0       -3.341723   -3.487917   -1.033300
    104          1           0       -4.816757   -1.190866   -1.279812
    105          1           0       -7.038302   -4.706703   -0.892036
    106          1           0       -7.298450   -4.207222    0.647165
    107          1           0       -5.633982   -4.587575    0.272445
    108          1           0       -8.046964   -1.624937   -0.409728
    109          1           0       -8.172965   -2.729348   -1.767242
    110          1           0       -7.884596   -1.276035   -3.298629
    111          1           0       -6.429934   -0.651922   -2.662482
    112          1           0       -7.531334    1.298246   -2.256439
    113          1           0       -8.340845    0.580169   -0.890619
    114          1           0       -9.897604   -0.450378   -2.568893
    115          1           0       -8.538086    0.918186   -4.476801
    116          1           0       -9.830833    2.116414   -4.107974
    117          1           0      -10.182868    0.443785   -4.569165
    118          1           0      -11.249284    1.821402   -2.357168
    119          1           0      -10.082754    2.226114   -1.166789
    120          1           0      -11.193308    0.984446    0.324671
    121          1           0      -10.828561   -0.470426   -0.494189
    122          1           0      -13.022303   -0.410263   -1.603198
    123          1           0      -13.132910    1.265292   -1.533562
    124          1           0      -13.012166   -0.645838    0.971837
    125          1           0      -15.388643   -0.148875   -0.717999
    126          1           0      -15.330632   -0.769607    0.941660
    127          1           0      -14.497247   -1.716740   -0.316084
    128          1           0      -15.056851    1.491027    0.982258
    129          1           0      -13.610930    2.353653    0.648073
    130          1           0      -13.064801    0.552815    2.871091
    131          1           0      -14.484347    1.458323    3.178351
    132          1           0      -13.623294    3.238579    3.685655
    133          1           0      -12.871074    3.365628    2.164987
    134          1           0      -11.433984    1.628139    4.038267
    135          1           0      -11.663927    3.113429    5.682098
    136          1           0      -11.932313    4.486460    4.500013
    137          1           0      -10.310188    3.962646    4.973652
    138          1           0       -9.644872    2.101526    2.526263
    139          1           0       -9.824535    3.912361    2.760339
    140          1           0      -10.816337    2.995263    1.611423
 ---------------------------------------------------------------------

 SCF Done:  E(RB-LYP) =  -3007.37804468     A.U. after   21 cycles

 Excitation energies and oscillator strengths:

 Excited State   1:      Singlet-A      1.6924 eV  732.59 nm  f=0.0037  <S**2>=0.000
     244 -> 247        0.68290
     245 -> 247        0.17835
 This state for optimization and/or second-order correction.
 Total Energy, E(TD-HF/TD-DFT) =  -3007.31584999
 Copying the excited state density for this state as the 1-particle RhoCI density.

 Excited State   2:      Singlet-A      1.7656 eV  702.24 nm  f=0.2758  <S**2>=0.000
     245 -> 248       -0.17743
     246 -> 247        0.68439
     246 <- 247       -0.14446

 Excited State   3:      Singlet-A      1.9101 eV  649.09 nm  f=0.0170  <S**2>=0.000
     243 -> 247        0.65565
     245 -> 247        0.23450

 Excited State   4:      Singlet-A      1.9533 eV  634.75 nm  f=0.1066  <S**2>=0.000
     243 -> 247       -0.25956
     244 -> 247       -0.15871
     245 -> 247        0.59387
     246 -> 248        0.17470
     246 -> 249       -0.10874

 Excited State   5:      Singlet-A      2.2965 eV  539.88 nm  f=0.0000  <S**2>=0.000
     241 -> 247        0.70693

 The electronic state is 1-A.
 Alpha  occ. eigenvalues --  -46.28271 -18.83362 -18.81261 -18.76250 -18.75930
 Alpha  occ. eigenvalues --  -18.75764 -18.75050 -14.03444 -14.03411 -14.02261
 Alpha  occ. eigenvalues --  -14.00899 -10.04637 -10.02785 -10.00179  -9.99051
 Alpha  occ. eigenvalues --   -9.98367  -9.97363  -9.97002  -9.96858  -9.96837
 Alpha  occ. eigenvalues --   -9.96772  -9.96621  -9.96513  -9.95494  -9.95151
 Alpha  occ. eigenvalues --   -9.94805  -9.94614  -9.94437  -9.94240  -9.94199
 Alpha  occ. eigenvalues --   -9.94190  -9.94178  -9.94134  -9.93849  -9.93559
 Alpha  occ. eigenvalues --   -9.93450  -9.93281  -9.93222  -9.93110  -9.93033
 Alpha  occ. eigenvalues --   -9.92935  -9.92914  -9.92872  -9.92842  -9.92713
 Alpha  occ. eigenvalues --   -9.92090  -9.92081  -9.91967  -9.91965  -9.91844
 Alpha  occ. eigenvalues --   -9.91816  -9.91747  -9.91580  -9.91464  -9.91257
 Alpha  occ. eigenvalues --   -9.91187  -9.91038  -9.91006  -9.90888  -9.90801
 Alpha  occ. eigenvalues --   -9.90778  -9.90772  -9.90700  -9.90695  -9.90639
 Alpha  occ. eigenvalues --   -9.90570  -2.92749  -1.73181  -1.72621  -1.72469
 Alpha  occ. eigenvalues --   -1.00257  -0.97309  -0.91348  -0.90413  -0.89487
 Alpha  occ. eigenvalues --   -0.89182  -0.86968  -0.86670  -0.85495  -0.84952
 Alpha  occ. eigenvalues --   -0.74771  -0.73943  -0.73227  -0.72663  -0.72450
 Alpha  occ. eigenvalues --   -0.72098  -0.71566  -0.71058  -0.70846  -0.70358
 Alpha  occ. eigenvalues --   -0.69553  -0.69473  -0.68336  -0.67848  -0.67327
 Alpha  occ. eigenvalues --   -0.66753  -0.66248  -0.65846  -0.65280  -0.64505
 Alpha  occ. eigenvalues --   -0.64374  -0.62828  -0.62566  -0.61808  -0.60493
 Alpha  occ. eigenvalues --   -0.60276  -0.59828  -0.59628  -0.59572  -0.59054
 Alpha  occ. eigenvalues --   -0.58883  -0.57684  -0.56618  -0.55788  -0.54513
 Alpha  occ. eigenvalues --   -0.54389  -0.53815  -0.52971  -0.52565  -0.52064
 Alpha  occ. eigenvalues --   -0.51758  -0.51589  -0.50768  -0.50480  -0.50112
 Alpha  occ. eigenvalues --   -0.49971  -0.49224  -0.48776  -0.47520  -0.46965
 Alpha  occ. eigenvalues --   -0.46738  -0.46030  -0.45755  -0.45247  -0.44982
 Alpha  occ. eigenvalues --   -0.44342  -0.44050  -0.43288  -0.42512  -0.41978
 Alpha  occ. eigenvalues --   -0.41869  -0.41723  -0.41337  -0.41253  -0.41118
 Alpha  occ. eigenvalues --   -0.40848  -0.40592  -0.40493  -0.40375  -0.40196
 Alpha  occ. eigenvalues --   -0.39792  -0.39595  -0.39327  -0.39237  -0.38983
 Alpha  occ. eigenvalues --   -0.38732  -0.38683  -0.38552  -0.38447  -0.38241
 Alpha  occ. eigenvalues --   -0.37990  -0.37919  -0.37674  -0.37450  -0.37316
 Alpha  occ. eigenvalues --   -0.36981  -0.36926  -0.36760  -0.36731  -0.36552
 Alpha  occ. eigenvalues --   -0.36463  -0.36075  -0.35810  -0.35748  -0.35525
 Alpha  occ. eigenvalues --   -0.35467  -0.35408  -0.35088  -0.34990  -0.34755
 Alpha  occ. eigenvalues --   -0.34600  -0.34420  -0.34219  -0.34140  -0.34092
 Alpha  occ. eigenvalues --   -0.34052  -0.33902  -0.33651  -0.33476  -0.33429
 Alpha  occ. eigenvalues --   -0.33353  -0.33110  -0.32894  -0.32705  -0.32559
 Alpha  occ. eigenvalues --   -0.32418  -0.32271  -0.31971  -0.31759  -0.31643
 Alpha  occ. eigenvalues --   -0.31473  -0.31322  -0.31098  -0.30904  -0.30764
 Alpha  occ. eigenvalues --   -0.30490  -0.30390  -0.30198  -0.29969  -0.29692
 Alpha  occ. eigenvalues --   -0.29541  -0.29531  -0.29310  -0.29270  -0.29095
 Alpha  occ. eigenvalues --   -0.28874  -0.28440  -0.28314  -0.27964  -0.27951
 Alpha  occ. eigenvalues --   -0.27561  -0.27162  -0.26711  -0.26576  -0.26346
 Alpha  occ. eigenvalues --   -0.26078  -0.25943  -0.25742  -0.25651  -0.25599
 Alpha  occ. eigenvalues --   -0.25309  -0.24710  -0.24085  -0.23672  -0.23586
 Alpha  occ. eigenvalues --   -0.23503  -0.22399  -0.21771  -0.21587  -0.21275
 Alpha  occ. eigenvalues --   -0.20431  -0.20059  -0.18919  -0.18160  -0.17230
 Alpha  occ. eigenvalues --   -0.16219
 Alpha virt. eigenvalues --   -0.11992  -0.07309  -0.06132  -0.04590  -0.02953
 Alpha virt. eigenvalues --   -0.02775  -0.02044  -0.01339  -0.01078  -0.00337
 Alpha virt. eigenvalues --    0.01210   0.01338   0.02041   0.02402   0.02856

 Mulliken charges:
               1
     1  Mg   0.697463
     2  C    0.064154
     3  C   -0.053220
     4  C   -0.024982
     5  C   -0.064292
     6  N   -0.167552
     7  C   -0.071170
     8  C    0.023172
     9  C   -0.012081
    10  C   -0.010215
    11  C    0.124690
    12  C    0.028208
    13  C    0.163612
    14  C    0.074582
    15  O   -0.198696
    16  O   -0.223477
    17  N   -0.297612
    18  C    0.123484
    19  C   -0.092580
    20  C   -0.004063
    21  C    0.098477
    22  C    0.158385
    23  C   -0.069730
    24  O   -0.164634
    25  C    0.139294
    26  N   -0.206808
    27  C    0.009206
    28  C    0.009024
    29  C    0.012523
    30  C    0.005244
    31  C    0.148003
    32  C    0.087432
    33  C    0.089661
    34  N   -0.255051
    35  C    0.128650
    36  C   -0.170473
    37  C    0.077921
    38  C    0.042096
    39  C    0.164710
    40  C   -0.061451
    41  O   -0.139725
    42  C    0.018659
    43  C    0.109979
    44  O   -0.173001
    45  O   -0.270213
    46  C    0.201202
    47  C    0.312647
    48  C   -0.154245
    49  C   -0.092586
    50  C    0.095074
    51  C    0.130887
    52  C    0.073272
    53  C    0.112319
    54  C   -0.113670
    55  C    0.110789
    56  C    0.140667
    57  C    0.117378
    58  C    0.111438
    59  C   -0.100355
    60  C    0.110742
    61  C    0.137585
    62  C    0.075907
    63  C    0.056201
    64  C   -0.091869
    65  C    0.084079
    66  C    0.114886
    67  H   -0.070655
    68  H   -0.037568
    69  H   -0.058582
    70  H   -0.020412
    71  H   -0.023479
    72  H    0.002363
    73  H    0.000116
    74  H   -0.007674
    75  H   -0.025800
    76  H    0.033774
    77  H   -0.017902
    78  H   -0.001465
    79  H    0.009132
    80  H   -0.034334
    81  H    0.004918
    82  H   -0.011857
    83  H    0.012576
    84  H   -0.000032
    85  H   -0.018871
    86  H   -0.017837
    87  H   -0.005087
    88  H   -0.021161
    89  H   -0.003681
    90  H   -0.022284
    91  H   -0.030084
    92  H   -0.015766
    93  H   -0.007575
    94  H   -0.010192
    95  H    0.006085
    96  H    0.007280
    97  H   -0.007267
    98  H    0.016868
    99  H    0.006040
   100  H    0.012000
   101  H    0.046206
   102  H    0.015740
   103  H    0.008822
   104  H   -0.031714
   105  H   -0.008008
   106  H   -0.005695
   107  H   -0.003149
   108  H   -0.003513
   109  H   -0.029638
   110  H   -0.026830
   111  H   -0.033381
   112  H   -0.040948
   113  H   -0.036185
   114  H   -0.044922
   115  H   -0.024383
   116  H   -0.009723
   117  H   -0.024840
   118  H   -0.046588
   119  H   -0.036763
   120  H   -0.044354
   121  H   -0.030100
   122  H   -0.061735
   123  H   -0.033543
   124  H   -0.035585
   125  H   -0.014636
   126  H   -0.022171
   127  H   -0.013501
   128  H   -0.042141
   129  H   -0.034810
   130  H   -0.035235
   131  H   -0.042637
   132  H   -0.035807
   133  H   -0.051692
   134  H   -0.035376
   135  H   -0.016594
   136  H   -0.009577
   137  H   -0.019808
   138  H   -0.005828
   139  H   -0.007233
   140  H   -0.013660
 Sum of Mulliken charges =  -0.00000

 Dipole moment (field-independent basis, Debye):
    X=             -2.8698    Y=              4.4103    Z=             -0.6466  Tot=              5.3014
 Quadrupole moment (field-independent basis, Debye-Ang):
   XX=           -373.5638   YY=           -430.7941   ZZ=           -408.3105
   XY=             -0.8128   XZ=             17.5595   YZ=             -1.6322

 Normal termination of Gaussian 16 at Thu May  5 15:33:59 2022.
