 Gaussian 16, Revision A.03,
 Gaussian 16:  ES64L-G16RevA.03 25-Dec-2016

 -----------------------------------
 #p cam-b3lyp/Def2SVP td=(nstates=5)
 -----------------------------------

 ------------------------------------------------------
 step_901_chromophore_7 TDDFT with cam-b3lyp functional
 ------------------------------------------------------
 Symbolic Z-matrix:
 Charge =  0 Multiplicity = 1

                         Standard orientation:
 ---------------------------------------------------------------------
 Center     Atomic      Atomic             Coordinates (Angstroms)
 Number     Number       Type             X           Y           Z
 ---------------------------------------------------------------------
      1         12           0        5.880488    0.533929    0.223681
      2          6           0        3.429036   -2.006353   -0.067563
      3          6           0        3.557164    2.712004   -0.846817
      4          6           0        8.315981    2.869496    0.172009
      5          6           0        8.342278   -2.036852    0.777152
      6          7           0        3.722349    0.349924   -0.568270
      7          6           0        2.886374   -0.775036   -0.403370
      8          6           0        1.464885   -0.437576   -0.706658
      9          6           0        1.496111    1.144597   -0.982179
     10          6           0        3.026603    1.414488   -0.828275
     11          6           0        0.772331    1.687659   -2.282639
     12          6           0        0.548947   -0.856189    0.511609
     13          6           0       -0.914940   -0.408388    0.586873
     14          6           0       -1.923447   -1.580252    0.790162
     15          8           0       -1.894142   -2.462469    1.653131
     16          8           0       -2.734927   -1.652141   -0.246811
     17          7           0        5.894963    2.519132   -0.252279
     18          6           0        4.880476    3.274291   -0.750356
     19          6           0        5.229144    4.677202   -1.003835
     20          6           0        6.640236    4.757203   -0.689832
     21          6           0        6.991051    3.356513   -0.128384
     22          6           0        4.283134    5.674357   -1.612155
     23          6           0        7.578694    5.937525   -0.785773
     24          8           0        8.766452    5.976957   -0.454761
     25          6           0        6.971457    7.239290   -1.167714
     26          7           0        7.980650    0.479223    0.560289
     27          6           0        8.720302    1.565218    0.581003
     28          6           0       10.204583    1.195927    0.862612
     29          6           0       10.155362   -0.325784    1.179997
     30          6           0        8.734328   -0.664786    0.762102
     31          6           0       11.057019    1.503663   -0.321806
     32          6           0       10.330078   -0.512877    2.792259
     33          6           0       10.731844   -1.886287    3.241569
     34          7           0        5.935553   -1.608583    0.420463
     35          6           0        6.988994   -2.503638    0.596243
     36          6           0        6.508641   -3.833796    0.543912
     37          6           0        5.079241   -3.730095    0.362902
     38          6           0        4.807818   -2.352902    0.274732
     39          6           0        7.395612   -5.028241    0.705787
     40          6           0        3.816335   -4.438166    0.391927
     41          8           0        3.433376   -5.592142    0.573315
     42          6           0        2.695412   -3.339033    0.183251
     43          6           0        1.959983   -3.872507   -0.992393
     44          8           0        2.379866   -4.034531   -2.114932
     45          8           0        0.670747   -4.117420   -0.616843
     46          6           0       -0.205807   -4.481782   -1.755471
     47          6           0       -3.699521   -2.706001   -0.362804
     48          6           0       -5.010191   -2.162132   -0.823639
     49          6           0       -6.259188   -2.700127   -0.783597
     50          6           0       -6.534072   -4.119053   -0.126047
     51          6           0       -7.528410   -1.986096   -1.297279
     52          6           0       -7.459171   -0.871681   -2.380190
     53          6           0       -8.162439    0.460697   -1.959988
     54          6           0       -9.545402    0.580085   -2.522681
     55          6           0       -9.505268    1.082299   -4.002621
     56          6           0      -10.565307    1.370005   -1.638934
     57          6           0      -11.266665    0.514189   -0.655637
     58          6           0      -12.733756    0.425541   -0.966413
     59          6           0      -13.527099    0.063490    0.323475
     60          6           0      -14.790630   -0.714196   -0.004089
     61          6           0      -13.971774    1.407045    1.051758
     62          6           0      -13.615910    1.426529    2.521266
     63          6           0      -12.919652    2.715308    3.037836
     64          6           0      -11.480743    2.626058    3.603791
     65          6           0      -11.327685    3.623453    4.778745
     66          6           0      -10.318283    2.957438    2.581164
     67          1           0        2.788234    3.469636   -1.011786
     68          1           0        9.110978    3.618169    0.180468
     69          1           0        9.178277   -2.719198    0.940187
     70          1           0        1.086242   -0.804230   -1.660821
     71          1           0        0.959606    1.499818   -0.102846
     72          1           0        0.192500    0.979070   -2.875217
     73          1           0        1.525699    2.150395   -2.919722
     74          1           0        0.052629    2.433131   -1.944624
     75          1           0        1.162883   -0.593046    1.372196
     76          1           0        0.588420   -1.945525    0.507240
     77          1           0       -1.201356    0.164359   -0.295245
     78          1           0       -0.893326    0.338792    1.379136
     79          1           0        4.050177    6.594709   -1.076465
     80          1           0        3.314661    5.199566   -1.768113
     81          1           0        4.517376    5.928430   -2.645030
     82          1           0        7.681717    8.057992   -1.046055
     83          1           0        6.062465    7.488627   -0.621196
     84          1           0        6.833038    7.139492   -2.243741
     85          1           0       10.518022    1.828127    1.693123
     86          1           0       10.758535   -1.025856    0.601922
     87          1           0       10.449269    1.842668   -1.160020
     88          1           0       11.554045    0.604948   -0.687573
     89          1           0       11.827130    2.246640   -0.110679
     90          1           0        9.538804   -0.110513    3.425584
     91          1           0       11.098305    0.225573    3.019290
     92          1           0       11.341665   -2.403944    2.501363
     93          1           0        9.849761   -2.510278    3.378880
     94          1           0       11.239102   -1.936287    4.205477
     95          1           0        8.000987   -5.315354   -0.153543
     96          1           0        6.782185   -5.878142    1.007230
     97          1           0        8.084692   -4.750192    1.502812
     98          1           0        2.151947   -3.383571    1.128101
     99          1           0       -0.774680   -3.563677   -1.903874
    100          1           0       -0.924876   -5.155987   -1.290591
    101          1           0        0.284887   -4.919873   -2.625153
    102          1           0       -4.005476   -3.155223    0.580747
    103          1           0       -3.341723   -3.487917   -1.033300
    104          1           0       -4.816757   -1.190866   -1.279812
    105          1           0       -7.038302   -4.706703   -0.892036
    106          1           0       -7.298450   -4.207222    0.647165
    107          1           0       -5.633982   -4.587575    0.272445
    108          1           0       -8.046964   -1.624937   -0.409728
    109          1           0       -8.172965   -2.729348   -1.767242
    110          1           0       -7.884596   -1.276035   -3.298629
    111          1           0       -6.429934   -0.651922   -2.662482
    112          1           0       -7.531334    1.298246   -2.256439
    113          1           0       -8.340845    0.580169   -0.890619
    114          1           0       -9.897604   -0.450378   -2.568893
    115          1           0       -8.538086    0.918186   -4.476801
    116          1           0       -9.830833    2.116414   -4.107974
    117          1           0      -10.182868    0.443785   -4.569165
    118          1           0      -11.249284    1.821402   -2.357168
    119          1           0      -10.082754    2.226114   -1.166789
    120          1           0      -11.193308    0.984446    0.324671
    121          1           0      -10.828561   -0.470426   -0.494189
    122          1           0      -13.022303   -0.410263   -1.603198
    123          1           0      -13.132910    1.265292   -1.533562
    124          1           0      -13.012166   -0.645838    0.971837
    125          1           0      -15.388643   -0.148875   -0.717999
    126          1           0      -15.330632   -0.769607    0.941660
    127          1           0      -14.497247   -1.716740   -0.316084
    128          1           0      -15.056851    1.491027    0.982258
    129          1           0      -13.610930    2.353653    0.648073
    130          1           0      -13.064801    0.552815    2.871091
    131          1           0      -14.484347    1.458323    3.178351
    132          1           0      -13.623294    3.238579    3.685655
    133          1           0      -12.871074    3.365628    2.164987
    134          1           0      -11.433984    1.628139    4.038267
    135          1           0      -11.663927    3.113429    5.682098
    136          1           0      -11.932313    4.486460    4.500013
    137          1           0      -10.310188    3.962646    4.973652
    138          1           0       -9.644872    2.101526    2.526263
    139          1           0       -9.824535    3.912361    2.760339
    140          1           0      -10.816337    2.995263    1.611423
 ---------------------------------------------------------------------

 SCF Done:  E(RCAM-B3LYP) =  -3007.17028774     A.U. after   17 cycles

 Excitation energies and oscillator strengths:

 Excited State   1:      Singlet-A      1.7570 eV  705.68 nm  f=0.3706  <S**2>=0.000
     245 -> 248       -0.15829
     246 -> 247        0.68756
 This state for optimization and/or second-order correction.
 Total Energy, E(TD-HF/TD-DFT) =  -3007.10572086
 Copying the excited state density for this state as the 1-particle RhoCI density.

 Excited State   2:      Singlet-A      2.1614 eV  573.64 nm  f=0.1741  <S**2>=0.000
     245 -> 247        0.65942
     246 -> 248        0.22919

 Excited State   3:      Singlet-A      3.2829 eV  377.67 nm  f=0.0105  <S**2>=0.000
     241 -> 247       -0.13652
     244 -> 247        0.67854

 Excited State   4:      Singlet-A      3.4519 eV  359.17 nm  f=0.0156  <S**2>=0.000
     239 -> 247        0.13001
     239 -> 249        0.11009
     240 -> 247        0.51301
     240 -> 248       -0.19036
     240 -> 249        0.24494
     241 -> 247        0.17127
     246 -> 248       -0.16858

 Excited State   5:      Singlet-A      3.5226 eV  351.97 nm  f=0.0433  <S**2>=0.000
     243 -> 247        0.56977
     243 -> 249       -0.23543
     243 -> 250        0.10152
     243 -> 251       -0.22445
     246 -> 248       -0.16589

 The electronic state is 1-A.
 Alpha  occ. eigenvalues --  -46.89869 -19.26180 -19.23948 -19.19782 -19.19099
 Alpha  occ. eigenvalues --  -19.18572 -19.17588 -14.42347 -14.42285 -14.41099
 Alpha  occ. eigenvalues --  -14.38918 -10.39822 -10.37922 -10.35989 -10.33860
 Alpha  occ. eigenvalues --  -10.32660 -10.32289 -10.32078 -10.31791 -10.31701
 Alpha  occ. eigenvalues --  -10.31133 -10.30831 -10.30729 -10.30458 -10.29820
 Alpha  occ. eigenvalues --  -10.28874 -10.28511 -10.28504 -10.28437 -10.28368
 Alpha  occ. eigenvalues --  -10.28294 -10.28185 -10.28175 -10.27963 -10.27554
 Alpha  occ. eigenvalues --  -10.27328 -10.27264 -10.27257 -10.27233 -10.26891
 Alpha  occ. eigenvalues --  -10.26858 -10.26731 -10.26655 -10.26621 -10.26435
 Alpha  occ. eigenvalues --  -10.26263 -10.26048 -10.25813 -10.25687 -10.25563
 Alpha  occ. eigenvalues --  -10.25277 -10.25250 -10.25189 -10.25094 -10.24813
 Alpha  occ. eigenvalues --  -10.24686 -10.24680 -10.24614 -10.24475 -10.24440
 Alpha  occ. eigenvalues --  -10.24422 -10.24397 -10.24384 -10.24283 -10.24273
 Alpha  occ. eigenvalues --  -10.24165  -3.18245  -1.93156  -1.92686  -1.92555
 Alpha  occ. eigenvalues --   -1.18662  -1.15631  -1.10340  -1.08225  -1.07286
 Alpha  occ. eigenvalues --   -1.06858  -1.04836  -1.04425  -1.03480  -1.01937
 Alpha  occ. eigenvalues --   -0.91563  -0.90819  -0.89973  -0.89410  -0.89184
 Alpha  occ. eigenvalues --   -0.88785  -0.88717  -0.87685  -0.87642  -0.86995
 Alpha  occ. eigenvalues --   -0.85842  -0.85478  -0.84658  -0.84031  -0.83370
 Alpha  occ. eigenvalues --   -0.82916  -0.82599  -0.81837  -0.81232  -0.80271
 Alpha  occ. eigenvalues --   -0.80144  -0.79117  -0.78079  -0.77149  -0.75732
 Alpha  occ. eigenvalues --   -0.75576  -0.75158  -0.74879  -0.74865  -0.74154
 Alpha  occ. eigenvalues --   -0.74053  -0.72544  -0.71539  -0.70616  -0.69090
 Alpha  occ. eigenvalues --   -0.68860  -0.68632  -0.67429  -0.66952  -0.66108
 Alpha  occ. eigenvalues --   -0.66023  -0.65647  -0.64713  -0.64427  -0.64017
 Alpha  occ. eigenvalues --   -0.64010  -0.63164  -0.62706  -0.61060  -0.60809
 Alpha  occ. eigenvalues --   -0.60473  -0.59500  -0.59240  -0.58695  -0.58387
 Alpha  occ. eigenvalues --   -0.57703  -0.57193  -0.56650  -0.55758  -0.55060
 Alpha  occ. eigenvalues --   -0.54994  -0.54662  -0.54287  -0.54084  -0.53866
 Alpha  occ. eigenvalues --   -0.53686  -0.53522  -0.53243  -0.53154  -0.53112
 Alpha  occ. eigenvalues --   -0.52915  -0.52116  -0.51990  -0.51672  -0.51583
 Alpha  occ. eigenvalues --   -0.51532  -0.51173  -0.50925  -0.50862  -0.50701
 Alpha  occ. eigenvalues --   -0.50473  -0.50337  -0.50022  -0.49855  -0.49609
 Alpha  occ. eigenvalues --   -0.49503  -0.49308  -0.49186  -0.48957  -0.48827
 Alpha  occ. eigenvalues --   -0.48687  -0.48230  -0.48118  -0.47971  -0.47829
 Alpha  occ. eigenvalues --   -0.47666  -0.47399  -0.47238  -0.46939  -0.46733
 Alpha  occ. eigenvalues --   -0.46662  -0.46252  -0.46145  -0.45996  -0.45815
 Alpha  occ. eigenvalues --   -0.45767  -0.45667  -0.45342  -0.45175  -0.45042
 Alpha  occ. eigenvalues --   -0.44984  -0.44729  -0.44500  -0.44322  -0.44251
 Alpha  occ. eigenvalues --   -0.43939  -0.43888  -0.43802  -0.43467  -0.42903
 Alpha  occ. eigenvalues --   -0.42853  -0.42808  -0.42722  -0.42426  -0.42277
 Alpha  occ. eigenvalues --   -0.42126  -0.41990  -0.41468  -0.41383  -0.41232
 Alpha  occ. eigenvalues --   -0.40874  -0.40676  -0.40442  -0.40397  -0.40286
 Alpha  occ. eigenvalues --   -0.39833  -0.39379  -0.39353  -0.38907  -0.38856
 Alpha  occ. eigenvalues --   -0.38444  -0.38279  -0.37845  -0.37343  -0.37077
 Alpha  occ. eigenvalues --   -0.36913  -0.36751  -0.36693  -0.36304  -0.36259
 Alpha  occ. eigenvalues --   -0.35927  -0.35361  -0.35248  -0.34434  -0.33885
 Alpha  occ. eigenvalues --   -0.33787  -0.33733  -0.32801  -0.32276  -0.31765
 Alpha  occ. eigenvalues --   -0.30916  -0.30014  -0.29592  -0.28667  -0.24013
 Alpha  occ. eigenvalues --   -0.21702
 Alpha virt. eigenvalues --   -0.09176  -0.01895   0.00019   0.02102   0.02592
 Alpha virt. eigenvalues --    0.04818   0.05450   0.05749   0.06050   0.07053
 Alpha virt. eigenvalues --    0.07762   0.08260   0.08533   0.08786   0.09028

 Mulliken charges:
               1
     1  Mg   0.827894
     2  C    0.045846
     3  C   -0.077777
     4  C   -0.054789
     5  C   -0.065433
     6  N   -0.236090
     7  C   -0.042880
     8  C   -0.015271
     9  C   -0.063388
    10  C    0.019114
    11  C    0.063969
    12  C   -0.021573
    13  C    0.093538
    14  C    0.154521
    15  O   -0.240235
    16  O   -0.288586
    17  N   -0.387586
    18  C    0.141456
    19  C   -0.096868
    20  C   -0.065665
    21  C    0.133897
    22  C    0.099259
    23  C    0.011914
    24  O   -0.200877
    25  C    0.052064
    26  N   -0.279816
    27  C    0.042066
    28  C   -0.052076
    29  C   -0.044353
    30  C    0.023043
    31  C    0.083389
    32  C    0.037569
    33  C    0.023903
    34  N   -0.341437
    35  C    0.121292
    36  C   -0.168527
    37  C   -0.001120
    38  C    0.072696
    39  C    0.116173
    40  C    0.038841
    41  O   -0.184505
    42  C   -0.066378
    43  C    0.198700
    44  O   -0.212468
    45  O   -0.332912
    46  C    0.165370
    47  C    0.283717
    48  C   -0.173712
    49  C   -0.121875
    50  C    0.038023
    51  C    0.084982
    52  C    0.012455
    53  C    0.058427
    54  C   -0.163205
    55  C    0.050834
    56  C    0.081939
    57  C    0.064742
    58  C    0.057122
    59  C   -0.156488
    60  C    0.053647
    61  C    0.078403
    62  C    0.017707
    63  C    0.006169
    64  C   -0.148420
    65  C    0.025925
    66  C    0.056410
    67  H   -0.037259
    68  H    0.003434
    69  H   -0.023136
    70  H    0.012019
    71  H    0.010779
    72  H    0.028830
    73  H    0.025335
    74  H    0.015926
    75  H    0.006624
    76  H    0.060972
    77  H    0.015184
    78  H    0.030681
    79  H    0.038871
    80  H   -0.001759
    81  H    0.035751
    82  H    0.026856
    83  H    0.039525
    84  H    0.028868
    85  H    0.016609
    86  H    0.016644
    87  H    0.021612
    88  H    0.006738
    89  H    0.021592
    90  H    0.005805
    91  H   -0.003982
    92  H    0.006259
    93  H    0.015444
    94  H    0.015168
    95  H    0.029198
    96  H    0.031858
    97  H    0.011811
    98  H    0.060094
    99  H    0.023029
   100  H    0.034237
   101  H    0.072337
   102  H    0.045113
   103  H    0.032485
   104  H    0.001458
   105  H    0.015645
   106  H    0.019405
   107  H    0.020116
   108  H    0.022195
   109  H   -0.001688
   110  H    0.001959
   111  H   -0.003908
   112  H   -0.010644
   113  H   -0.008258
   114  H   -0.013801
   115  H   -0.000075
   116  H    0.013694
   117  H    0.000077
   118  H   -0.015245
   119  H   -0.007944
   120  H   -0.018997
   121  H   -0.002884
   122  H   -0.030362
   123  H   -0.004738
   124  H   -0.003680
   125  H    0.008769
   126  H    0.002347
   127  H    0.011027
   128  H   -0.010588
   129  H   -0.006779
   130  H   -0.007795
   131  H   -0.011750
   132  H   -0.005045
   133  H   -0.023696
   134  H   -0.004563
   135  H    0.007624
   136  H    0.012289
   137  H    0.005102
   138  H    0.017325
   139  H    0.017716
   140  H    0.003427
 Sum of Mulliken charges =  -0.00000

 Dipole moment (field-independent basis, Debye):
    X=             -2.9840    Y=              6.6509    Z=             -1.0663  Tot=              7.3672
 Quadrupole moment (field-independent basis, Debye-Ang):
   XX=           -371.6360   YY=           -425.2872   ZZ=           -408.3390
   XY=             10.8587   XZ=             16.2927   YZ=             -3.0595

 Normal termination of Gaussian 16 at Thu May  5 14:00:27 2022.
