 Gaussian 16, Revision A.03,
 Gaussian 16:  ES64L-G16RevA.03 25-Dec-2016

 ---------------------------------
 #p PBE1PBE/Def2SVP td=(nstates=5)
 ---------------------------------

 ----------------------------------------------------
 step_901_chromophore_7 TDDFT with PBE1PBE functional
 ----------------------------------------------------
 Symbolic Z-matrix:
 Charge =  0 Multiplicity = 1

                         Standard orientation:
 ---------------------------------------------------------------------
 Center     Atomic      Atomic             Coordinates (Angstroms)
 Number     Number       Type             X           Y           Z
 ---------------------------------------------------------------------
      1         12           0        5.880488    0.533929    0.223681
      2          6           0        3.429036   -2.006353   -0.067563
      3          6           0        3.557164    2.712004   -0.846817
      4          6           0        8.315981    2.869496    0.172009
      5          6           0        8.342278   -2.036852    0.777152
      6          7           0        3.722349    0.349924   -0.568270
      7          6           0        2.886374   -0.775036   -0.403370
      8          6           0        1.464885   -0.437576   -0.706658
      9          6           0        1.496111    1.144597   -0.982179
     10          6           0        3.026603    1.414488   -0.828275
     11          6           0        0.772331    1.687659   -2.282639
     12          6           0        0.548947   -0.856189    0.511609
     13          6           0       -0.914940   -0.408388    0.586873
     14          6           0       -1.923447   -1.580252    0.790162
     15          8           0       -1.894142   -2.462469    1.653131
     16          8           0       -2.734927   -1.652141   -0.246811
     17          7           0        5.894963    2.519132   -0.252279
     18          6           0        4.880476    3.274291   -0.750356
     19          6           0        5.229144    4.677202   -1.003835
     20          6           0        6.640236    4.757203   -0.689832
     21          6           0        6.991051    3.356513   -0.128384
     22          6           0        4.283134    5.674357   -1.612155
     23          6           0        7.578694    5.937525   -0.785773
     24          8           0        8.766452    5.976957   -0.454761
     25          6           0        6.971457    7.239290   -1.167714
     26          7           0        7.980650    0.479223    0.560289
     27          6           0        8.720302    1.565218    0.581003
     28          6           0       10.204583    1.195927    0.862612
     29          6           0       10.155362   -0.325784    1.179997
     30          6           0        8.734328   -0.664786    0.762102
     31          6           0       11.057019    1.503663   -0.321806
     32          6           0       10.330078   -0.512877    2.792259
     33          6           0       10.731844   -1.886287    3.241569
     34          7           0        5.935553   -1.608583    0.420463
     35          6           0        6.988994   -2.503638    0.596243
     36          6           0        6.508641   -3.833796    0.543912
     37          6           0        5.079241   -3.730095    0.362902
     38          6           0        4.807818   -2.352902    0.274732
     39          6           0        7.395612   -5.028241    0.705787
     40          6           0        3.816335   -4.438166    0.391927
     41          8           0        3.433376   -5.592142    0.573315
     42          6           0        2.695412   -3.339033    0.183251
     43          6           0        1.959983   -3.872507   -0.992393
     44          8           0        2.379866   -4.034531   -2.114932
     45          8           0        0.670747   -4.117420   -0.616843
     46          6           0       -0.205807   -4.481782   -1.755471
     47          6           0       -3.699521   -2.706001   -0.362804
     48          6           0       -5.010191   -2.162132   -0.823639
     49          6           0       -6.259188   -2.700127   -0.783597
     50          6           0       -6.534072   -4.119053   -0.126047
     51          6           0       -7.528410   -1.986096   -1.297279
     52          6           0       -7.459171   -0.871681   -2.380190
     53          6           0       -8.162439    0.460697   -1.959988
     54          6           0       -9.545402    0.580085   -2.522681
     55          6           0       -9.505268    1.082299   -4.002621
     56          6           0      -10.565307    1.370005   -1.638934
     57          6           0      -11.266665    0.514189   -0.655637
     58          6           0      -12.733756    0.425541   -0.966413
     59          6           0      -13.527099    0.063490    0.323475
     60          6           0      -14.790630   -0.714196   -0.004089
     61          6           0      -13.971774    1.407045    1.051758
     62          6           0      -13.615910    1.426529    2.521266
     63          6           0      -12.919652    2.715308    3.037836
     64          6           0      -11.480743    2.626058    3.603791
     65          6           0      -11.327685    3.623453    4.778745
     66          6           0      -10.318283    2.957438    2.581164
     67          1           0        2.788234    3.469636   -1.011786
     68          1           0        9.110978    3.618169    0.180468
     69          1           0        9.178277   -2.719198    0.940187
     70          1           0        1.086242   -0.804230   -1.660821
     71          1           0        0.959606    1.499818   -0.102846
     72          1           0        0.192500    0.979070   -2.875217
     73          1           0        1.525699    2.150395   -2.919722
     74          1           0        0.052629    2.433131   -1.944624
     75          1           0        1.162883   -0.593046    1.372196
     76          1           0        0.588420   -1.945525    0.507240
     77          1           0       -1.201356    0.164359   -0.295245
     78          1           0       -0.893326    0.338792    1.379136
     79          1           0        4.050177    6.594709   -1.076465
     80          1           0        3.314661    5.199566   -1.768113
     81          1           0        4.517376    5.928430   -2.645030
     82          1           0        7.681717    8.057992   -1.046055
     83          1           0        6.062465    7.488627   -0.621196
     84          1           0        6.833038    7.139492   -2.243741
     85          1           0       10.518022    1.828127    1.693123
     86          1           0       10.758535   -1.025856    0.601922
     87          1           0       10.449269    1.842668   -1.160020
     88          1           0       11.554045    0.604948   -0.687573
     89          1           0       11.827130    2.246640   -0.110679
     90          1           0        9.538804   -0.110513    3.425584
     91          1           0       11.098305    0.225573    3.019290
     92          1           0       11.341665   -2.403944    2.501363
     93          1           0        9.849761   -2.510278    3.378880
     94          1           0       11.239102   -1.936287    4.205477
     95          1           0        8.000987   -5.315354   -0.153543
     96          1           0        6.782185   -5.878142    1.007230
     97          1           0        8.084692   -4.750192    1.502812
     98          1           0        2.151947   -3.383571    1.128101
     99          1           0       -0.774680   -3.563677   -1.903874
    100          1           0       -0.924876   -5.155987   -1.290591
    101          1           0        0.284887   -4.919873   -2.625153
    102          1           0       -4.005476   -3.155223    0.580747
    103          1           0       -3.341723   -3.487917   -1.033300
    104          1           0       -4.816757   -1.190866   -1.279812
    105          1           0       -7.038302   -4.706703   -0.892036
    106          1           0       -7.298450   -4.207222    0.647165
    107          1           0       -5.633982   -4.587575    0.272445
    108          1           0       -8.046964   -1.624937   -0.409728
    109          1           0       -8.172965   -2.729348   -1.767242
    110          1           0       -7.884596   -1.276035   -3.298629
    111          1           0       -6.429934   -0.651922   -2.662482
    112          1           0       -7.531334    1.298246   -2.256439
    113          1           0       -8.340845    0.580169   -0.890619
    114          1           0       -9.897604   -0.450378   -2.568893
    115          1           0       -8.538086    0.918186   -4.476801
    116          1           0       -9.830833    2.116414   -4.107974
    117          1           0      -10.182868    0.443785   -4.569165
    118          1           0      -11.249284    1.821402   -2.357168
    119          1           0      -10.082754    2.226114   -1.166789
    120          1           0      -11.193308    0.984446    0.324671
    121          1           0      -10.828561   -0.470426   -0.494189
    122          1           0      -13.022303   -0.410263   -1.603198
    123          1           0      -13.132910    1.265292   -1.533562
    124          1           0      -13.012166   -0.645838    0.971837
    125          1           0      -15.388643   -0.148875   -0.717999
    126          1           0      -15.330632   -0.769607    0.941660
    127          1           0      -14.497247   -1.716740   -0.316084
    128          1           0      -15.056851    1.491027    0.982258
    129          1           0      -13.610930    2.353653    0.648073
    130          1           0      -13.064801    0.552815    2.871091
    131          1           0      -14.484347    1.458323    3.178351
    132          1           0      -13.623294    3.238579    3.685655
    133          1           0      -12.871074    3.365628    2.164987
    134          1           0      -11.433984    1.628139    4.038267
    135          1           0      -11.663927    3.113429    5.682098
    136          1           0      -11.932313    4.486460    4.500013
    137          1           0      -10.310188    3.962646    4.973652
    138          1           0       -9.644872    2.101526    2.526263
    139          1           0       -9.824535    3.912361    2.760339
    140          1           0      -10.816337    2.995263    1.611423
 ---------------------------------------------------------------------

 SCF Done:  E(RPBE1PBE) =  -3005.35905635     A.U. after   16 cycles

 Excitation energies and oscillator strengths:

 Excited State   1:      Singlet-A      1.8355 eV  675.47 nm  f=0.3540  <S**2>=0.000
     245 -> 248       -0.15834
     246 -> 247        0.69293
     246 <- 247       -0.10184
 This state for optimization and/or second-order correction.
 Total Energy, E(TD-HF/TD-DFT) =  -3005.29160159
 Copying the excited state density for this state as the 1-particle RhoCI density.

 Excited State   2:      Singlet-A      2.1496 eV  576.77 nm  f=0.1630  <S**2>=0.000
     245 -> 247        0.66798
     246 -> 248        0.20601

 Excited State   3:      Singlet-A      2.8111 eV  441.05 nm  f=0.0015  <S**2>=0.000
     243 -> 247        0.39451
     244 -> 247        0.56517

 Excited State   4:      Singlet-A      2.8699 eV  432.02 nm  f=0.0087  <S**2>=0.000
     243 -> 247        0.56479
     244 -> 247       -0.40537

 Excited State   5:      Singlet-A      2.9843 eV  415.45 nm  f=0.0006  <S**2>=0.000
     240 -> 247       -0.14259
     241 -> 247        0.65104
     241 -> 248       -0.13784
     241 -> 249       -0.13274

 The electronic state is 1-A.
 Alpha  occ. eigenvalues --  -46.93268 -19.26902 -19.24740 -19.19598 -19.19456
 Alpha  occ. eigenvalues --  -19.18945 -19.18260 -14.41792 -14.41776 -14.40550
 Alpha  occ. eigenvalues --  -14.38855 -10.36914 -10.35075 -10.32716 -10.31400
 Alpha  occ. eigenvalues --  -10.29920 -10.29736 -10.29223 -10.29125 -10.29095
 Alpha  occ. eigenvalues --  -10.28731 -10.28551 -10.28209 -10.28154 -10.27031
 Alpha  occ. eigenvalues --  -10.26814 -10.26660 -10.26592 -10.26246 -10.26165
 Alpha  occ. eigenvalues --  -10.26036 -10.25955 -10.25721 -10.25440 -10.25296
 Alpha  occ. eigenvalues --  -10.25180 -10.25028 -10.24804 -10.24766 -10.24746
 Alpha  occ. eigenvalues --  -10.24607 -10.24603 -10.24431 -10.24073 -10.24016
 Alpha  occ. eigenvalues --  -10.23620 -10.23494 -10.23286 -10.23268 -10.23230
 Alpha  occ. eigenvalues --  -10.22896 -10.22877 -10.22874 -10.22786 -10.22672
 Alpha  occ. eigenvalues --  -10.22267 -10.22235 -10.22209 -10.21998 -10.21975
 Alpha  occ. eigenvalues --  -10.21963 -10.21954 -10.21816 -10.21791 -10.21682
 Alpha  occ. eigenvalues --  -10.21558  -3.15229  -1.88081  -1.87587  -1.87462
 Alpha  occ. eigenvalues --   -1.13576  -1.10526  -1.04682  -1.03344  -1.02194
 Alpha  occ. eigenvalues --   -1.01828  -0.99348  -0.99003  -0.97869  -0.97004
 Alpha  occ. eigenvalues --   -0.86113  -0.84914  -0.84171  -0.83605  -0.83400
 Alpha  occ. eigenvalues --   -0.82950  -0.82718  -0.81852  -0.81767  -0.81266
 Alpha  occ. eigenvalues --   -0.80166  -0.80037  -0.78829  -0.78271  -0.77710
 Alpha  occ. eigenvalues --   -0.77095  -0.76728  -0.76010  -0.75538  -0.74572
 Alpha  occ. eigenvalues --   -0.74397  -0.73052  -0.72436  -0.71585  -0.70159
 Alpha  occ. eigenvalues --   -0.69772  -0.69238  -0.69232  -0.69017  -0.68421
 Alpha  occ. eigenvalues --   -0.68302  -0.67112  -0.65895  -0.64979  -0.63322
 Alpha  occ. eigenvalues --   -0.63301  -0.62902  -0.61894  -0.61167  -0.60637
 Alpha  occ. eigenvalues --   -0.60271  -0.60051  -0.59343  -0.58903  -0.58616
 Alpha  occ. eigenvalues --   -0.58146  -0.57319  -0.56898  -0.55731  -0.55072
 Alpha  occ. eigenvalues --   -0.54924  -0.54067  -0.53863  -0.53156  -0.52891
 Alpha  occ. eigenvalues --   -0.52305  -0.51960  -0.51122  -0.50272  -0.49658
 Alpha  occ. eigenvalues --   -0.49620  -0.49242  -0.48862  -0.48666  -0.48285
 Alpha  occ. eigenvalues --   -0.48122  -0.47836  -0.47750  -0.47689  -0.47578
 Alpha  occ. eigenvalues --   -0.47276  -0.46735  -0.46550  -0.46177  -0.46120
 Alpha  occ. eigenvalues --   -0.46060  -0.45820  -0.45600  -0.45443  -0.45078
 Alpha  occ. eigenvalues --   -0.44990  -0.44932  -0.44644  -0.44412  -0.44234
 Alpha  occ. eigenvalues --   -0.44026  -0.43807  -0.43722  -0.43602  -0.43442
 Alpha  occ. eigenvalues --   -0.43336  -0.42962  -0.42756  -0.42691  -0.42409
 Alpha  occ. eigenvalues --   -0.42240  -0.41986  -0.41872  -0.41580  -0.41356
 Alpha  occ. eigenvalues --   -0.41306  -0.41034  -0.40730  -0.40647  -0.40569
 Alpha  occ. eigenvalues --   -0.40433  -0.40346  -0.40191  -0.39978  -0.39717
 Alpha  occ. eigenvalues --   -0.39693  -0.39572  -0.39410  -0.39157  -0.39038
 Alpha  occ. eigenvalues --   -0.38853  -0.38724  -0.38364  -0.38200  -0.37752
 Alpha  occ. eigenvalues --   -0.37627  -0.37606  -0.37542  -0.37180  -0.37051
 Alpha  occ. eigenvalues --   -0.36916  -0.36807  -0.36427  -0.36185  -0.36112
 Alpha  occ. eigenvalues --   -0.35907  -0.35402  -0.35339  -0.35259  -0.35183
 Alpha  occ. eigenvalues --   -0.34573  -0.34373  -0.34250  -0.33819  -0.33675
 Alpha  occ. eigenvalues --   -0.33267  -0.33243  -0.32900  -0.32103  -0.31942
 Alpha  occ. eigenvalues --   -0.31930  -0.31833  -0.31531  -0.31452  -0.31129
 Alpha  occ. eigenvalues --   -0.30836  -0.30411  -0.30161  -0.29697  -0.28870
 Alpha  occ. eigenvalues --   -0.28805  -0.28633  -0.28270  -0.27463  -0.26590
 Alpha  occ. eigenvalues --   -0.26142  -0.25318  -0.24857  -0.24725  -0.20899
 Alpha  occ. eigenvalues --   -0.19222
 Alpha virt. eigenvalues --   -0.11645  -0.05536  -0.04024  -0.02031  -0.00526
 Alpha virt. eigenvalues --    0.00267   0.00999   0.01512   0.02178   0.02416
 Alpha virt. eigenvalues --    0.03994   0.04408   0.04876   0.05305   0.05843

 Mulliken charges:
               1
     1  Mg   0.974133
     2  C    0.044322
     3  C   -0.075530
     4  C   -0.051390
     5  C   -0.056070
     6  N   -0.339831
     7  C    0.014799
     8  C   -0.081028
     9  C   -0.129859
    10  C    0.056792
    11  C    0.002529
    12  C   -0.076925
    13  C    0.017434
    14  C    0.221749
    15  O   -0.274639
    16  O   -0.323546
    17  N   -0.498533
    18  C    0.160664
    19  C   -0.121765
    20  C   -0.110304
    21  C    0.165890
    22  C    0.043311
    23  C    0.057329
    24  O   -0.241980
    25  C   -0.023338
    26  N   -0.387596
    27  C    0.081799
    28  C   -0.138222
    29  C   -0.121212
    30  C    0.066004
    31  C    0.029763
    32  C   -0.019319
    33  C   -0.050440
    34  N   -0.463556
    35  C    0.146293
    36  C   -0.179868
    37  C   -0.041493
    38  C    0.125200
    39  C    0.063939
    40  C    0.125766
    41  O   -0.225774
    42  C   -0.186726
    43  C    0.295173
    44  O   -0.248105
    45  O   -0.365530
    46  C    0.107560
    47  C    0.243154
    48  C   -0.182837
    49  C   -0.170483
    50  C   -0.022135
    51  C    0.031044
    52  C   -0.055595
    53  C    0.003646
    54  C   -0.247139
    55  C   -0.009911
    56  C    0.024990
    57  C   -0.008295
    58  C    0.007086
    59  C   -0.244556
    60  C   -0.012476
    61  C    0.024196
    62  C   -0.041145
    63  C   -0.045236
    64  C   -0.237724
    65  C   -0.037387
    66  C   -0.009471
    67  H   -0.003010
    68  H    0.034442
    69  H    0.007761
    70  H    0.050390
    71  H    0.049600
    72  H    0.053391
    73  H    0.053519
    74  H    0.042388
    75  H    0.040075
    76  H    0.103157
    77  H    0.049432
    78  H    0.062986
    79  H    0.062614
    80  H    0.023797
    81  H    0.061092
    82  H    0.053367
    83  H    0.064848
    84  H    0.056196
    85  H    0.052177
    86  H    0.049974
    87  H    0.050234
    88  H    0.033872
    89  H    0.048593
    90  H    0.038111
    91  H    0.031767
    92  H    0.033768
    93  H    0.043680
    94  H    0.044347
    95  H    0.059030
    96  H    0.061516
    97  H    0.040777
    98  H    0.095563
    99  H    0.048303
   100  H    0.056497
   101  H    0.092726
   102  H    0.071214
   103  H    0.060097
   104  H    0.032205
   105  H    0.043693
   106  H    0.046207
   107  H    0.045769
   108  H    0.054401
   109  H    0.029696
   110  H    0.034225
   111  H    0.028224
   112  H    0.022460
   113  H    0.025792
   114  H    0.026811
   115  H    0.027450
   116  H    0.040789
   117  H    0.028365
   118  H    0.018229
   119  H    0.024747
   120  H    0.024429
   121  H    0.028951
   122  H    0.004357
   123  H    0.025280
   124  H    0.031975
   125  H    0.037427
   126  H    0.032686
   127  H    0.039468
   128  H    0.022373
   129  H    0.023637
   130  H    0.023036
   131  H    0.021837
   132  H    0.026331
   133  H    0.009697
   134  H    0.033153
   135  H    0.036103
   136  H    0.040076
   137  H    0.033202
   138  H    0.044704
   139  H    0.044563
   140  H    0.031768
 Sum of Mulliken charges =  -0.00000

 Dipole moment (field-independent basis, Debye):
    X=             -3.0127    Y=              5.5372    Z=             -0.8305  Tot=              6.3582
 Quadrupole moment (field-independent basis, Debye-Ang):
   XX=           -364.8378   YY=           -423.5071   ZZ=           -405.8184
   XY=              3.8156   XZ=             18.4430   YZ=             -3.1505

 Normal termination of Gaussian 16 at Thu May  5 14:27:39 2022.
