 Gaussian 16, Revision A.03,
 Gaussian 16:  ES64L-G16RevA.03 25-Dec-2016

 --------------------------------
 #p wB97XD/Def2SVP td=(nstates=5)
 --------------------------------

 ---------------------------------------------------
 step_901_chromophore_7 TDDFT with wB97XD functional
 ---------------------------------------------------
 Symbolic Z-matrix:
 Charge =  0 Multiplicity = 1

                         Standard orientation:
 ---------------------------------------------------------------------
 Center     Atomic      Atomic             Coordinates (Angstroms)
 Number     Number       Type             X           Y           Z
 ---------------------------------------------------------------------
      1         12           0        5.880488    0.533929    0.223681
      2          6           0        3.429036   -2.006353   -0.067563
      3          6           0        3.557164    2.712004   -0.846817
      4          6           0        8.315981    2.869496    0.172009
      5          6           0        8.342278   -2.036852    0.777152
      6          7           0        3.722349    0.349924   -0.568270
      7          6           0        2.886374   -0.775036   -0.403370
      8          6           0        1.464885   -0.437576   -0.706658
      9          6           0        1.496111    1.144597   -0.982179
     10          6           0        3.026603    1.414488   -0.828275
     11          6           0        0.772331    1.687659   -2.282639
     12          6           0        0.548947   -0.856189    0.511609
     13          6           0       -0.914940   -0.408388    0.586873
     14          6           0       -1.923447   -1.580252    0.790162
     15          8           0       -1.894142   -2.462469    1.653131
     16          8           0       -2.734927   -1.652141   -0.246811
     17          7           0        5.894963    2.519132   -0.252279
     18          6           0        4.880476    3.274291   -0.750356
     19          6           0        5.229144    4.677202   -1.003835
     20          6           0        6.640236    4.757203   -0.689832
     21          6           0        6.991051    3.356513   -0.128384
     22          6           0        4.283134    5.674357   -1.612155
     23          6           0        7.578694    5.937525   -0.785773
     24          8           0        8.766452    5.976957   -0.454761
     25          6           0        6.971457    7.239290   -1.167714
     26          7           0        7.980650    0.479223    0.560289
     27          6           0        8.720302    1.565218    0.581003
     28          6           0       10.204583    1.195927    0.862612
     29          6           0       10.155362   -0.325784    1.179997
     30          6           0        8.734328   -0.664786    0.762102
     31          6           0       11.057019    1.503663   -0.321806
     32          6           0       10.330078   -0.512877    2.792259
     33          6           0       10.731844   -1.886287    3.241569
     34          7           0        5.935553   -1.608583    0.420463
     35          6           0        6.988994   -2.503638    0.596243
     36          6           0        6.508641   -3.833796    0.543912
     37          6           0        5.079241   -3.730095    0.362902
     38          6           0        4.807818   -2.352902    0.274732
     39          6           0        7.395612   -5.028241    0.705787
     40          6           0        3.816335   -4.438166    0.391927
     41          8           0        3.433376   -5.592142    0.573315
     42          6           0        2.695412   -3.339033    0.183251
     43          6           0        1.959983   -3.872507   -0.992393
     44          8           0        2.379866   -4.034531   -2.114932
     45          8           0        0.670747   -4.117420   -0.616843
     46          6           0       -0.205807   -4.481782   -1.755471
     47          6           0       -3.699521   -2.706001   -0.362804
     48          6           0       -5.010191   -2.162132   -0.823639
     49          6           0       -6.259188   -2.700127   -0.783597
     50          6           0       -6.534072   -4.119053   -0.126047
     51          6           0       -7.528410   -1.986096   -1.297279
     52          6           0       -7.459171   -0.871681   -2.380190
     53          6           0       -8.162439    0.460697   -1.959988
     54          6           0       -9.545402    0.580085   -2.522681
     55          6           0       -9.505268    1.082299   -4.002621
     56          6           0      -10.565307    1.370005   -1.638934
     57          6           0      -11.266665    0.514189   -0.655637
     58          6           0      -12.733756    0.425541   -0.966413
     59          6           0      -13.527099    0.063490    0.323475
     60          6           0      -14.790630   -0.714196   -0.004089
     61          6           0      -13.971774    1.407045    1.051758
     62          6           0      -13.615910    1.426529    2.521266
     63          6           0      -12.919652    2.715308    3.037836
     64          6           0      -11.480743    2.626058    3.603791
     65          6           0      -11.327685    3.623453    4.778745
     66          6           0      -10.318283    2.957438    2.581164
     67          1           0        2.788234    3.469636   -1.011786
     68          1           0        9.110978    3.618169    0.180468
     69          1           0        9.178277   -2.719198    0.940187
     70          1           0        1.086242   -0.804230   -1.660821
     71          1           0        0.959606    1.499818   -0.102846
     72          1           0        0.192500    0.979070   -2.875217
     73          1           0        1.525699    2.150395   -2.919722
     74          1           0        0.052629    2.433131   -1.944624
     75          1           0        1.162883   -0.593046    1.372196
     76          1           0        0.588420   -1.945525    0.507240
     77          1           0       -1.201356    0.164359   -0.295245
     78          1           0       -0.893326    0.338792    1.379136
     79          1           0        4.050177    6.594709   -1.076465
     80          1           0        3.314661    5.199566   -1.768113
     81          1           0        4.517376    5.928430   -2.645030
     82          1           0        7.681717    8.057992   -1.046055
     83          1           0        6.062465    7.488627   -0.621196
     84          1           0        6.833038    7.139492   -2.243741
     85          1           0       10.518022    1.828127    1.693123
     86          1           0       10.758535   -1.025856    0.601922
     87          1           0       10.449269    1.842668   -1.160020
     88          1           0       11.554045    0.604948   -0.687573
     89          1           0       11.827130    2.246640   -0.110679
     90          1           0        9.538804   -0.110513    3.425584
     91          1           0       11.098305    0.225573    3.019290
     92          1           0       11.341665   -2.403944    2.501363
     93          1           0        9.849761   -2.510278    3.378880
     94          1           0       11.239102   -1.936287    4.205477
     95          1           0        8.000987   -5.315354   -0.153543
     96          1           0        6.782185   -5.878142    1.007230
     97          1           0        8.084692   -4.750192    1.502812
     98          1           0        2.151947   -3.383571    1.128101
     99          1           0       -0.774680   -3.563677   -1.903874
    100          1           0       -0.924876   -5.155987   -1.290591
    101          1           0        0.284887   -4.919873   -2.625153
    102          1           0       -4.005476   -3.155223    0.580747
    103          1           0       -3.341723   -3.487917   -1.033300
    104          1           0       -4.816757   -1.190866   -1.279812
    105          1           0       -7.038302   -4.706703   -0.892036
    106          1           0       -7.298450   -4.207222    0.647165
    107          1           0       -5.633982   -4.587575    0.272445
    108          1           0       -8.046964   -1.624937   -0.409728
    109          1           0       -8.172965   -2.729348   -1.767242
    110          1           0       -7.884596   -1.276035   -3.298629
    111          1           0       -6.429934   -0.651922   -2.662482
    112          1           0       -7.531334    1.298246   -2.256439
    113          1           0       -8.340845    0.580169   -0.890619
    114          1           0       -9.897604   -0.450378   -2.568893
    115          1           0       -8.538086    0.918186   -4.476801
    116          1           0       -9.830833    2.116414   -4.107974
    117          1           0      -10.182868    0.443785   -4.569165
    118          1           0      -11.249284    1.821402   -2.357168
    119          1           0      -10.082754    2.226114   -1.166789
    120          1           0      -11.193308    0.984446    0.324671
    121          1           0      -10.828561   -0.470426   -0.494189
    122          1           0      -13.022303   -0.410263   -1.603198
    123          1           0      -13.132910    1.265292   -1.533562
    124          1           0      -13.012166   -0.645838    0.971837
    125          1           0      -15.388643   -0.148875   -0.717999
    126          1           0      -15.330632   -0.769607    0.941660
    127          1           0      -14.497247   -1.716740   -0.316084
    128          1           0      -15.056851    1.491027    0.982258
    129          1           0      -13.610930    2.353653    0.648073
    130          1           0      -13.064801    0.552815    2.871091
    131          1           0      -14.484347    1.458323    3.178351
    132          1           0      -13.623294    3.238579    3.685655
    133          1           0      -12.871074    3.365628    2.164987
    134          1           0      -11.433984    1.628139    4.038267
    135          1           0      -11.663927    3.113429    5.682098
    136          1           0      -11.932313    4.486460    4.500013
    137          1           0      -10.310188    3.962646    4.973652
    138          1           0       -9.644872    2.101526    2.526263
    139          1           0       -9.824535    3.912361    2.760339
    140          1           0      -10.816337    2.995263    1.611423
 ---------------------------------------------------------------------

 SCF Done:  E(RwB97XD) =  -3007.86958557     A.U. after   19 cycles

 Excitation energies and oscillator strengths:

 Excited State   1:      Singlet-A      1.7397 eV  712.66 nm  f=0.3702  <S**2>=0.000
     245 -> 248       -0.16015
     246 -> 247        0.68519
 This state for optimization and/or second-order correction.
 Total Energy, E(TD-HF/TD-DFT) =  -3007.80565170
 Copying the excited state density for this state as the 1-particle RhoCI density.

 Excited State   2:      Singlet-A      2.1151 eV  586.18 nm  f=0.1709  <S**2>=0.000
     245 -> 247        0.65651
     246 -> 248        0.23070

 Excited State   3:      Singlet-A      3.3593 eV  369.08 nm  f=0.0140  <S**2>=0.000
     241 -> 247       -0.19514
     244 -> 247        0.65010

 Excited State   4:      Singlet-A      3.4494 eV  359.44 nm  f=0.0082  <S**2>=0.000
     240 -> 247        0.51617
     240 -> 248       -0.20432
     240 -> 249        0.27827
     240 -> 250        0.12289
     241 -> 247        0.14907
     244 -> 247        0.13766
     246 -> 248       -0.14520

 Excited State   5:      Singlet-A      3.5548 eV  348.78 nm  f=0.3864  <S**2>=0.000
     239 -> 247       -0.25181
     240 -> 247        0.11782
     241 -> 247       -0.20636
     245 -> 247       -0.18036
     246 -> 248        0.55020

 The electronic state is 1-A.
 Alpha  occ. eigenvalues --  -46.96205 -19.31413 -19.29132 -19.24909 -19.24071
 Alpha  occ. eigenvalues --  -19.23461 -19.22546 -14.46945 -14.46858 -14.45756
 Alpha  occ. eigenvalues --  -14.43445 -10.43646 -10.41714 -10.40045 -10.37798
 Alpha  occ. eigenvalues --  -10.36881 -10.36276 -10.36181 -10.35880 -10.35796
 Alpha  occ. eigenvalues --  -10.35450 -10.34710 -10.34540 -10.34407 -10.34083
 Alpha  occ. eigenvalues --  -10.32962 -10.32491 -10.32419 -10.32417 -10.32392
 Alpha  occ. eigenvalues --  -10.32387 -10.32228 -10.32115 -10.32008 -10.31598
 Alpha  occ. eigenvalues --  -10.31388 -10.31379 -10.31323 -10.31139 -10.30884
 Alpha  occ. eigenvalues --  -10.30860 -10.30693 -10.30574 -10.30487 -10.30389
 Alpha  occ. eigenvalues --  -10.30201 -10.30000 -10.29757 -10.29640 -10.29548
 Alpha  occ. eigenvalues --  -10.29164 -10.29132 -10.29052 -10.28867 -10.28635
 Alpha  occ. eigenvalues --  -10.28614 -10.28610 -10.28549 -10.28378 -10.28366
 Alpha  occ. eigenvalues --  -10.28341 -10.28300 -10.28231 -10.28174 -10.28114
 Alpha  occ. eigenvalues --  -10.27982  -3.22045  -1.95642  -1.95150  -1.95020
 Alpha  occ. eigenvalues --   -1.20886  -1.17746  -1.12649  -1.10366  -1.09485
 Alpha  occ. eigenvalues --   -1.09006  -1.06867  -1.06433  -1.05596  -1.03878
 Alpha  occ. eigenvalues --   -0.93466  -0.92580  -0.91805  -0.91235  -0.91138
 Alpha  occ. eigenvalues --   -0.90652  -0.90595  -0.89667  -0.89419  -0.88933
 Alpha  occ. eigenvalues --   -0.87717  -0.87341  -0.86505  -0.85912  -0.85241
 Alpha  occ. eigenvalues --   -0.84833  -0.84543  -0.83674  -0.83146  -0.82187
 Alpha  occ. eigenvalues --   -0.82039  -0.81161  -0.79972  -0.79044  -0.77653
 Alpha  occ. eigenvalues --   -0.77434  -0.76943  -0.76817  -0.76693  -0.76021
 Alpha  occ. eigenvalues --   -0.75947  -0.74494  -0.73496  -0.72588  -0.71071
 Alpha  occ. eigenvalues --   -0.70722  -0.70595  -0.69414  -0.68805  -0.68056
 Alpha  occ. eigenvalues --   -0.67875  -0.67592  -0.66703  -0.66370  -0.66011
 Alpha  occ. eigenvalues --   -0.65821  -0.64981  -0.64535  -0.63024  -0.62890
 Alpha  occ. eigenvalues --   -0.62398  -0.61461  -0.61212  -0.60602  -0.60338
 Alpha  occ. eigenvalues --   -0.59587  -0.59186  -0.58678  -0.57719  -0.57006
 Alpha  occ. eigenvalues --   -0.56968  -0.56565  -0.56237  -0.55970  -0.55739
 Alpha  occ. eigenvalues --   -0.55554  -0.55514  -0.55111  -0.55101  -0.55006
 Alpha  occ. eigenvalues --   -0.54862  -0.54040  -0.53914  -0.53555  -0.53526
 Alpha  occ. eigenvalues --   -0.53459  -0.53129  -0.52839  -0.52797  -0.52679
 Alpha  occ. eigenvalues --   -0.52359  -0.52228  -0.51994  -0.51721  -0.51558
 Alpha  occ. eigenvalues --   -0.51368  -0.51307  -0.51090  -0.50860  -0.50692
 Alpha  occ. eigenvalues --   -0.50553  -0.50217  -0.50125  -0.49862  -0.49715
 Alpha  occ. eigenvalues --   -0.49526  -0.49277  -0.49151  -0.48855  -0.48692
 Alpha  occ. eigenvalues --   -0.48553  -0.48169  -0.47991  -0.47923  -0.47694
 Alpha  occ. eigenvalues --   -0.47666  -0.47568  -0.47275  -0.47108  -0.46902
 Alpha  occ. eigenvalues --   -0.46852  -0.46653  -0.46400  -0.46216  -0.46138
 Alpha  occ. eigenvalues --   -0.45836  -0.45822  -0.45730  -0.45355  -0.44853
 Alpha  occ. eigenvalues --   -0.44752  -0.44707  -0.44595  -0.44454  -0.44185
 Alpha  occ. eigenvalues --   -0.44013  -0.43885  -0.43327  -0.43242  -0.43186
 Alpha  occ. eigenvalues --   -0.42811  -0.42522  -0.42315  -0.42302  -0.42214
 Alpha  occ. eigenvalues --   -0.41666  -0.41289  -0.41249  -0.40768  -0.40744
 Alpha  occ. eigenvalues --   -0.40302  -0.40199  -0.39753  -0.39165  -0.38927
 Alpha  occ. eigenvalues --   -0.38923  -0.38688  -0.38544  -0.38445  -0.38099
 Alpha  occ. eigenvalues --   -0.37765  -0.37334  -0.37066  -0.36378  -0.35726
 Alpha  occ. eigenvalues --   -0.35722  -0.35704  -0.34969  -0.34523  -0.33822
 Alpha  occ. eigenvalues --   -0.33130  -0.32062  -0.31490  -0.30736  -0.25961
 Alpha  occ. eigenvalues --   -0.23535
 Alpha virt. eigenvalues --   -0.07507   0.00051   0.02034   0.04534   0.05406
 Alpha virt. eigenvalues --    0.07108   0.07727   0.08266   0.08645   0.09217
 Alpha virt. eigenvalues --    0.10458   0.11306   0.11551   0.11911   0.12463

 Mulliken charges:
               1
     1  Mg   0.964873
     2  C    0.036615
     3  C   -0.091702
     4  C   -0.070077
     5  C   -0.068503
     6  N   -0.304860
     7  C   -0.012063
     8  C   -0.058720
     9  C   -0.110582
    10  C    0.047919
    11  C    0.014782
    12  C   -0.051793
    13  C    0.031859
    14  C    0.211854
    15  O   -0.270768
    16  O   -0.320993
    17  N   -0.471353
    18  C    0.160538
    19  C   -0.112308
    20  C   -0.104083
    21  C    0.161179
    22  C    0.051843
    23  C    0.057312
    24  O   -0.232100
    25  C   -0.011268
    26  N   -0.353396
    27  C    0.070720
    28  C   -0.109741
    29  C   -0.092114
    30  C    0.045457
    31  C    0.036866
    32  C   -0.006273
    33  C   -0.033679
    34  N   -0.426962
    35  C    0.132820
    36  C   -0.181491
    37  C   -0.042329
    38  C    0.105388
    39  C    0.074885
    40  C    0.111952
    41  O   -0.221681
    42  C   -0.140930
    43  C    0.268503
    44  O   -0.243557
    45  O   -0.363343
    46  C    0.124674
    47  C    0.258133
    48  C   -0.190457
    49  C   -0.157122
    50  C   -0.008558
    51  C    0.046234
    52  C   -0.036073
    53  C    0.017631
    54  C   -0.213641
    55  C    0.000201
    56  C    0.041892
    57  C    0.019548
    58  C    0.019361
    59  C   -0.213446
    60  C    0.003050
    61  C    0.038769
    62  C   -0.028522
    63  C   -0.027625
    64  C   -0.211379
    65  C   -0.023055
    66  C    0.008658
    67  H   -0.013047
    68  H    0.030389
    69  H    0.000051
    70  H    0.038850
    71  H    0.037478
    72  H    0.050254
    73  H    0.046724
    74  H    0.037106
    75  H    0.031604
    76  H    0.079956
    77  H    0.041248
    78  H    0.057605
    79  H    0.061648
    80  H    0.021790
    81  H    0.059346
    82  H    0.054063
    83  H    0.059577
    84  H    0.051185
    85  H    0.042835
    86  H    0.040260
    87  H    0.042714
    88  H    0.029477
    89  H    0.044384
    90  H    0.030561
    91  H    0.019868
    92  H    0.026930
    93  H    0.036098
    94  H    0.039417
    95  H    0.052093
    96  H    0.056002
    97  H    0.031024
    98  H    0.089776
    99  H    0.041428
   100  H    0.052272
   101  H    0.089865
   102  H    0.063999
   103  H    0.055542
   104  H    0.026512
   105  H    0.036999
   106  H    0.041384
   107  H    0.041151
   108  H    0.044856
   109  H    0.022027
   110  H    0.025794
   111  H    0.019155
   112  H    0.015015
   113  H    0.014158
   114  H    0.008830
   115  H    0.021376
   116  H    0.035338
   117  H    0.022708
   118  H    0.006996
   119  H    0.017144
   120  H    0.001835
   121  H    0.019897
   122  H   -0.005328
   123  H    0.017138
   124  H    0.020983
   125  H    0.030397
   126  H    0.024713
   127  H    0.033836
   128  H    0.014189
   129  H    0.012982
   130  H    0.012910
   131  H    0.014681
   132  H    0.018842
   133  H   -0.003703
   134  H    0.021887
   135  H    0.030492
   136  H    0.032216
   137  H    0.027127
   138  H    0.039562
   139  H    0.039815
   140  H    0.018749
 Sum of Mulliken charges =  -0.00000

 Dipole moment (field-independent basis, Debye):
    X=             -3.0595    Y=              7.0115    Z=             -1.1274  Tot=              7.7326
 Quadrupole moment (field-independent basis, Debye-Ang):
   XX=           -366.4070   YY=           -420.5536   ZZ=           -405.4447
   XY=             12.8360   XZ=             16.7343   YZ=             -3.6258

 Normal termination of Gaussian 16 at Thu May  5 15:12:59 2022.
