 Gaussian 16, Revision A.03,
 Gaussian 16:  ES64L-G16RevA.03 25-Dec-2016

 --------------------
 #p ZINDO=(nstates=5)
 --------------------

 ----------------------------
 step_901_chromophore_7 ZINDO
 ----------------------------
 Symbolic Z-matrix:
 Charge =  0 Multiplicity = 1

                         Standard orientation:
 ---------------------------------------------------------------------
 Center     Atomic      Atomic             Coordinates (Angstroms)
 Number     Number       Type             X           Y           Z
 ---------------------------------------------------------------------
      1         12           0        5.880488    0.533929    0.223681
      2          6           0        3.429036   -2.006353   -0.067563
      3          6           0        3.557164    2.712004   -0.846817
      4          6           0        8.315981    2.869496    0.172009
      5          6           0        8.342278   -2.036852    0.777152
      6          7           0        3.722349    0.349924   -0.568270
      7          6           0        2.886374   -0.775036   -0.403370
      8          6           0        1.464885   -0.437576   -0.706658
      9          6           0        1.496111    1.144597   -0.982179
     10          6           0        3.026603    1.414488   -0.828275
     11          6           0        0.772331    1.687659   -2.282639
     12          6           0        0.548947   -0.856189    0.511609
     13          6           0       -0.914940   -0.408388    0.586873
     14          6           0       -1.923447   -1.580252    0.790162
     15          8           0       -1.894142   -2.462469    1.653131
     16          8           0       -2.734927   -1.652141   -0.246811
     17          7           0        5.894963    2.519132   -0.252279
     18          6           0        4.880476    3.274291   -0.750356
     19          6           0        5.229144    4.677202   -1.003835
     20          6           0        6.640236    4.757203   -0.689832
     21          6           0        6.991051    3.356513   -0.128384
     22          6           0        4.283134    5.674357   -1.612155
     23          6           0        7.578694    5.937525   -0.785773
     24          8           0        8.766452    5.976957   -0.454761
     25          6           0        6.971457    7.239290   -1.167714
     26          7           0        7.980650    0.479223    0.560289
     27          6           0        8.720302    1.565218    0.581003
     28          6           0       10.204583    1.195927    0.862612
     29          6           0       10.155362   -0.325784    1.179997
     30          6           0        8.734328   -0.664786    0.762102
     31          6           0       11.057019    1.503663   -0.321806
     32          6           0       10.330078   -0.512877    2.792259
     33          6           0       10.731844   -1.886287    3.241569
     34          7           0        5.935553   -1.608583    0.420463
     35          6           0        6.988994   -2.503638    0.596243
     36          6           0        6.508641   -3.833796    0.543912
     37          6           0        5.079241   -3.730095    0.362902
     38          6           0        4.807818   -2.352902    0.274732
     39          6           0        7.395612   -5.028241    0.705787
     40          6           0        3.816335   -4.438166    0.391927
     41          8           0        3.433376   -5.592142    0.573315
     42          6           0        2.695412   -3.339033    0.183251
     43          6           0        1.959983   -3.872507   -0.992393
     44          8           0        2.379866   -4.034531   -2.114932
     45          8           0        0.670747   -4.117420   -0.616843
     46          6           0       -0.205807   -4.481782   -1.755471
     47          6           0       -3.699521   -2.706001   -0.362804
     48          6           0       -5.010191   -2.162132   -0.823639
     49          6           0       -6.259188   -2.700127   -0.783597
     50          6           0       -6.534072   -4.119053   -0.126047
     51          6           0       -7.528410   -1.986096   -1.297279
     52          6           0       -7.459171   -0.871681   -2.380190
     53          6           0       -8.162439    0.460697   -1.959988
     54          6           0       -9.545402    0.580085   -2.522681
     55          6           0       -9.505268    1.082299   -4.002621
     56          6           0      -10.565307    1.370005   -1.638934
     57          6           0      -11.266665    0.514189   -0.655637
     58          6           0      -12.733756    0.425541   -0.966413
     59          6           0      -13.527099    0.063490    0.323475
     60          6           0      -14.790630   -0.714196   -0.004089
     61          6           0      -13.971774    1.407045    1.051758
     62          6           0      -13.615910    1.426529    2.521266
     63          6           0      -12.919652    2.715308    3.037836
     64          6           0      -11.480743    2.626058    3.603791
     65          6           0      -11.327685    3.623453    4.778745
     66          6           0      -10.318283    2.957438    2.581164
     67          1           0        2.788234    3.469636   -1.011786
     68          1           0        9.110978    3.618169    0.180468
     69          1           0        9.178277   -2.719198    0.940187
     70          1           0        1.086242   -0.804230   -1.660821
     71          1           0        0.959606    1.499818   -0.102846
     72          1           0        0.192500    0.979070   -2.875217
     73          1           0        1.525699    2.150395   -2.919722
     74          1           0        0.052629    2.433131   -1.944624
     75          1           0        1.162883   -0.593046    1.372196
     76          1           0        0.588420   -1.945525    0.507240
     77          1           0       -1.201356    0.164359   -0.295245
     78          1           0       -0.893326    0.338792    1.379136
     79          1           0        4.050177    6.594709   -1.076465
     80          1           0        3.314661    5.199566   -1.768113
     81          1           0        4.517376    5.928430   -2.645030
     82          1           0        7.681717    8.057992   -1.046055
     83          1           0        6.062465    7.488627   -0.621196
     84          1           0        6.833038    7.139492   -2.243741
     85          1           0       10.518022    1.828127    1.693123
     86          1           0       10.758535   -1.025856    0.601922
     87          1           0       10.449269    1.842668   -1.160020
     88          1           0       11.554045    0.604948   -0.687573
     89          1           0       11.827130    2.246640   -0.110679
     90          1           0        9.538804   -0.110513    3.425584
     91          1           0       11.098305    0.225573    3.019290
     92          1           0       11.341665   -2.403944    2.501363
     93          1           0        9.849761   -2.510278    3.378880
     94          1           0       11.239102   -1.936287    4.205477
     95          1           0        8.000987   -5.315354   -0.153543
     96          1           0        6.782185   -5.878142    1.007230
     97          1           0        8.084692   -4.750192    1.502812
     98          1           0        2.151947   -3.383571    1.128101
     99          1           0       -0.774680   -3.563677   -1.903874
    100          1           0       -0.924876   -5.155987   -1.290591
    101          1           0        0.284887   -4.919873   -2.625153
    102          1           0       -4.005476   -3.155223    0.580747
    103          1           0       -3.341723   -3.487917   -1.033300
    104          1           0       -4.816757   -1.190866   -1.279812
    105          1           0       -7.038302   -4.706703   -0.892036
    106          1           0       -7.298450   -4.207222    0.647165
    107          1           0       -5.633982   -4.587575    0.272445
    108          1           0       -8.046964   -1.624937   -0.409728
    109          1           0       -8.172965   -2.729348   -1.767242
    110          1           0       -7.884596   -1.276035   -3.298629
    111          1           0       -6.429934   -0.651922   -2.662482
    112          1           0       -7.531334    1.298246   -2.256439
    113          1           0       -8.340845    0.580169   -0.890619
    114          1           0       -9.897604   -0.450378   -2.568893
    115          1           0       -8.538086    0.918186   -4.476801
    116          1           0       -9.830833    2.116414   -4.107974
    117          1           0      -10.182868    0.443785   -4.569165
    118          1           0      -11.249284    1.821402   -2.357168
    119          1           0      -10.082754    2.226114   -1.166789
    120          1           0      -11.193308    0.984446    0.324671
    121          1           0      -10.828561   -0.470426   -0.494189
    122          1           0      -13.022303   -0.410263   -1.603198
    123          1           0      -13.132910    1.265292   -1.533562
    124          1           0      -13.012166   -0.645838    0.971837
    125          1           0      -15.388643   -0.148875   -0.717999
    126          1           0      -15.330632   -0.769607    0.941660
    127          1           0      -14.497247   -1.716740   -0.316084
    128          1           0      -15.056851    1.491027    0.982258
    129          1           0      -13.610930    2.353653    0.648073
    130          1           0      -13.064801    0.552815    2.871091
    131          1           0      -14.484347    1.458323    3.178351
    132          1           0      -13.623294    3.238579    3.685655
    133          1           0      -12.871074    3.365628    2.164987
    134          1           0      -11.433984    1.628139    4.038267
    135          1           0      -11.663927    3.113429    5.682098
    136          1           0      -11.932313    4.486460    4.500013
    137          1           0      -10.310188    3.962646    4.973652
    138          1           0       -9.644872    2.101526    2.526263
    139          1           0       -9.824535    3.912361    2.760339
    140          1           0      -10.816337    2.995263    1.611423
 ---------------------------------------------------------------------

 SCF Done:  E(RZINDO/S) =  -474.223697805     A.U. after   19 cycles

 Excitation energies and oscillator strengths:

 Excited State   1:      Singlet-A      1.3563 eV  914.16 nm  f=0.5122  <S**2>=0.000
     175 ->178         0.13260
     176 ->177         0.67379
 This state for optimization and/or second-order correction.
 Total Energy, E(CIS/TDA) =  -474.173855952
 Copying the excited state density for this state as the 1-particle RhoCI density.

 Excited State   2:      Singlet-A      1.9172 eV  646.70 nm  f=0.1176  <S**2>=0.000
     175 ->177         0.58020
     176 ->178        -0.32850
     176 ->179         0.14678

 Excited State   3:      Singlet-A      2.8605 eV  433.44 nm  f=0.0140  <S**2>=0.000
     166 ->177         0.19258
     166 ->178        -0.16605
     166 ->179        -0.20915
     166 ->180         0.10338
     168 ->177         0.28288
     168 ->178        -0.22902
     168 ->179        -0.28578
     168 ->180         0.13958
     168 ->184        -0.11919
     168 ->188         0.10636
     169 ->177         0.13199

 Excited State   4:      Singlet-A      2.9736 eV  416.95 nm  f=0.9389  <S**2>=0.000
     172 ->177        -0.10417
     175 ->177         0.32363
     176 ->178         0.57191

 Excited State   5:      Singlet-A      3.0721 eV  403.59 nm  f=0.0069  <S**2>=0.000
     171 ->177         0.25499
     171 ->179         0.27475
     171 ->180         0.36664
     171 ->181        -0.17938
     171 ->182        -0.14423
     171 ->184         0.13710
     171 ->185        -0.12948
     171 ->188         0.17869
     171 ->189         0.15290
     171 ->205        -0.10167

 The electronic state is 1-A.
 Alpha  occ. eigenvalues --   -1.82135  -1.81053  -1.79300  -1.75630  -1.72666
 Alpha  occ. eigenvalues --   -1.70415  -1.67075  -1.61241  -1.60056  -1.57398
 Alpha  occ. eigenvalues --   -1.54754  -1.50876  -1.47775  -1.46064  -1.45409
 Alpha  occ. eigenvalues --   -1.43751  -1.42790  -1.40120  -1.40102  -1.39486
 Alpha  occ. eigenvalues --   -1.35118  -1.33957  -1.32382  -1.32021  -1.29473
 Alpha  occ. eigenvalues --   -1.28452  -1.24668  -1.23231  -1.21896  -1.18645
 Alpha  occ. eigenvalues --   -1.16547  -1.15121  -1.14929  -1.14088  -1.12301
 Alpha  occ. eigenvalues --   -1.12088  -1.11992  -1.10014  -1.04140  -1.03542
 Alpha  occ. eigenvalues --   -1.02708  -1.01262  -0.98302  -0.97894  -0.97020
 Alpha  occ. eigenvalues --   -0.96528  -0.96211  -0.93774  -0.93132  -0.92608
 Alpha  occ. eigenvalues --   -0.91598  -0.90643  -0.89273  -0.88168  -0.86691
 Alpha  occ. eigenvalues --   -0.86488  -0.85640  -0.82961  -0.82316  -0.80326
 Alpha  occ. eigenvalues --   -0.79252  -0.78400  -0.77595  -0.77078  -0.76039
 Alpha  occ. eigenvalues --   -0.75917  -0.75201  -0.74935  -0.74148  -0.73742
 Alpha  occ. eigenvalues --   -0.72698  -0.72569  -0.71274  -0.71147  -0.70454
 Alpha  occ. eigenvalues --   -0.70223  -0.69614  -0.68522  -0.67966  -0.67649
 Alpha  occ. eigenvalues --   -0.67507  -0.67344  -0.66911  -0.66263  -0.65854
 Alpha  occ. eigenvalues --   -0.65500  -0.64747  -0.64141  -0.64031  -0.63736
 Alpha  occ. eigenvalues --   -0.63087  -0.62648  -0.62394  -0.62326  -0.61797
 Alpha  occ. eigenvalues --   -0.61178  -0.60982  -0.60762  -0.60383  -0.60147
 Alpha  occ. eigenvalues --   -0.59784  -0.59286  -0.58985  -0.58387  -0.58285
 Alpha  occ. eigenvalues --   -0.57885  -0.57619  -0.57009  -0.56918  -0.56690
 Alpha  occ. eigenvalues --   -0.56267  -0.55956  -0.55836  -0.55384  -0.54736
 Alpha  occ. eigenvalues --   -0.54427  -0.53878  -0.53498  -0.53308  -0.53165
 Alpha  occ. eigenvalues --   -0.52443  -0.52285  -0.51804  -0.51536  -0.51354
 Alpha  occ. eigenvalues --   -0.51042  -0.50805  -0.50611  -0.50468  -0.50370
 Alpha  occ. eigenvalues --   -0.49951  -0.49836  -0.49585  -0.49340  -0.48825
 Alpha  occ. eigenvalues --   -0.48751  -0.48628  -0.48536  -0.48023  -0.47772
 Alpha  occ. eigenvalues --   -0.47606  -0.47030  -0.46824  -0.46308  -0.46280
 Alpha  occ. eigenvalues --   -0.46175  -0.46047  -0.45695  -0.45469  -0.45458
 Alpha  occ. eigenvalues --   -0.45225  -0.44498  -0.44492  -0.43900  -0.43888
 Alpha  occ. eigenvalues --   -0.43436  -0.43112  -0.42509  -0.42498  -0.42165
 Alpha  occ. eigenvalues --   -0.41413  -0.41138  -0.40182  -0.38711  -0.38350
 Alpha  occ. eigenvalues --   -0.37280  -0.37044  -0.36699  -0.35074  -0.34310
 Alpha  occ. eigenvalues --   -0.33212  -0.32490  -0.32287  -0.30964  -0.26758
 Alpha  occ. eigenvalues --   -0.22403
 Alpha virt. eigenvalues --   -0.08779  -0.02185  -0.01023   0.01388   0.01717
 Alpha virt. eigenvalues --    0.01966   0.02760   0.04061   0.04562   0.04622
 Alpha virt. eigenvalues --    0.05324   0.06345   0.06567   0.07403   0.07595

 Mulliken charges:
               1
     1  Mg   0.435930
     2  C   -0.024404
     3  C   -0.111735
     4  C   -0.077733
     5  C   -0.062763
     6  N   -0.278433
     7  C    0.087109
     8  C    0.000645
     9  C   -0.014978
    10  C    0.194063
    11  C   -0.049456
    12  C   -0.029028
    13  C    0.008687
    14  C    0.472800
    15  O   -0.527172
    16  O   -0.252700
    17  N   -0.321887
    18  C    0.155351
    19  C    0.034107
    20  C   -0.035350
    21  C    0.135974
    22  C   -0.038142
    23  C    0.339137
    24  O   -0.514433
    25  C   -0.029238
    26  N   -0.250704
    27  C    0.184515
    28  C    0.014824
    29  C   -0.005203
    30  C    0.066706
    31  C   -0.046089
    32  C   -0.028265
    33  C   -0.051082
    34  N   -0.329545
    35  C    0.055953
    36  C    0.004344
    37  C   -0.065626
    38  C    0.099704
    39  C   -0.039775
    40  C    0.334165
    41  O   -0.536395
    42  C    0.045101
    43  C    0.500999
    44  O   -0.531448
    45  O   -0.271029
    46  C    0.068969
    47  C    0.109340
    48  C   -0.077151
    49  C   -0.021877
    50  C   -0.054941
    51  C   -0.019499
    52  C   -0.033411
    53  C   -0.027812
    54  C   -0.015041
    55  C   -0.061826
    56  C   -0.029269
    57  C   -0.021929
    58  C   -0.033837
    59  C   -0.020433
    60  C   -0.059275
    61  C   -0.033708
    62  C   -0.041329
    63  C   -0.040906
    64  C   -0.015001
    65  C   -0.060263
    66  C   -0.058593
    67  H    0.009736
    68  H    0.045025
    69  H    0.036592
    70  H    0.040036
    71  H    0.029840
    72  H    0.031370
    73  H    0.025366
    74  H    0.016724
    75  H    0.027366
    76  H    0.032825
    77  H    0.029532
    78  H    0.039693
    79  H    0.039402
    80  H    0.018980
    81  H    0.034753
    82  H    0.035661
    83  H    0.038279
    84  H    0.038634
    85  H    0.034619
    86  H    0.046075
    87  H    0.023398
    88  H    0.017466
    89  H    0.022070
    90  H    0.029738
    91  H    0.005222
    92  H    0.018068
    93  H    0.017490
    94  H    0.018693
    95  H    0.032906
    96  H    0.028956
    97  H    0.019795
    98  H    0.064008
    99  H    0.030747
   100  H    0.028841
   101  H    0.068767
   102  H    0.058090
   103  H    0.051476
   104  H    0.025584
   105  H    0.023836
   106  H    0.027847
   107  H    0.029438
   108  H    0.030362
   109  H    0.018963
   110  H    0.020569
   111  H    0.016814
   112  H    0.014626
   113  H    0.015719
   114  H    0.015037
   115  H    0.017757
   116  H    0.023472
   117  H    0.010805
   118  H    0.014473
   119  H    0.015824
   120  H    0.012233
   121  H    0.024265
   122  H    0.008539
   123  H    0.027744
   124  H    0.030011
   125  H    0.022705
   126  H    0.011655
   127  H    0.017533
   128  H    0.015635
   129  H    0.024706
   130  H    0.019469
   131  H    0.011147
   132  H    0.018102
   133  H    0.009018
   134  H    0.022071
   135  H    0.014686
   136  H    0.021410
   137  H    0.015707
   138  H    0.021129
   139  H    0.031379
   140  H    0.013781
 Sum of Mulliken charges =  -0.00000

 Dipole moment (field-independent basis, Debye):
    X=             -4.0792    Y=             12.4982    Z=             -1.7097  Tot=             13.2578
 N-N= 4.269698324187D+03 E-N= 0.000000000000D+00  KE=-9.213671987187D+03
 Leave Link  601 at Thu May  5 15:34:07 2022, MaxMem=  6710886400 cpu:               0.8 elap:               0.0
 (Enter /sw/apps/gaussian-16.0/g16/l9999.exe)
 1\1\GINC-BP1-COMPUTE196\SP\RZINDO CIS\STO-3G\C55H74Mg1N4O6\OF15641\05-
 May-2022\0\\#p ZINDO=(nstates=5)\\step_901_chromophore_7 ZINDO\\0,1\Mg
 ,0,25.741,0.104,29.485\C,0,27.621,-0.284,32.462\C,0,22.988,0.266,31.40
 4\C,0,23.94,0.12,26.631\C,0,28.718,-0.681,27.615\N,0,25.309,-0.168,31.
 734\C,0,26.276,-0.126,32.761\C,0,25.633,0.025,34.099\C,0,24.073,0.199,
 33.758\C,0,24.119,0.051,32.204\C,0,23.033,-0.688,34.559\C,0,26.264,1.2
 62,34.854\C,0,25.632,1.806,36.14\C,0,26.627,1.912,37.336\O,0,27.731,2.

 Normal termination of Gaussian 16 at Thu May  5 15:34:07 2022.
