 Gaussian 16, Revision A.03,
 Gaussian 16:  ES64L-G16RevA.03 25-Dec-2016

 ------------------------------
 #p blyp/Def2SVP td=(nstates=5)
 ------------------------------

 --------------------------------------------------
 step_251_chromophore_15 TDDFT with blyp functional
 --------------------------------------------------
 Symbolic Z-matrix:
 Charge =  0 Multiplicity = 1

                         Standard orientation:
 ---------------------------------------------------------------------
 Center     Atomic      Atomic             Coordinates (Angstroms)
 Number     Number       Type             X           Y           Z
 ---------------------------------------------------------------------
      1         12           0       -4.678869    0.962823   -0.198214
      2          6           0       -4.140775   -2.482547    0.397003
      3          6           0       -1.417031    1.328318   -0.201754
      4          6           0       -5.287486    4.173388    0.305656
      5          6           0       -8.088298    0.307853    0.560192
      6          7           0       -3.002057   -0.556528   -0.091668
      7          6           0       -2.982658   -1.831073    0.054793
      8          6           0       -1.572861   -2.394792   -0.217577
      9          6           0       -0.615861   -1.128123    0.067434
     10          6           0       -1.743742   -0.016244   -0.001764
     11          6           0        0.169085   -1.129381    1.438581
     12          6           0       -1.424481   -2.845479   -1.763459
     13          6           0       -0.510220   -4.051818   -2.153335
     14          6           0        0.719521   -4.324594   -1.210900
     15          8           0        0.656887   -4.764369   -0.043672
     16          8           0        1.881087   -4.036758   -1.886884
     17          7           0       -3.522524    2.567709   -0.186363
     18          6           0       -2.140096    2.490411   -0.264251
     19          6           0       -1.588334    3.890988   -0.250333
     20          6           0       -2.769773    4.736335   -0.134333
     21          6           0       -3.969209    3.907562    0.013767
     22          6           0       -0.093997    4.148432   -0.296083
     23          6           0       -2.811862    6.248458   -0.155833
     24          8           0       -3.838617    6.926318   -0.010633
     25          6           0       -1.559655    6.988001   -0.401873
     26          7           0       -6.525566    2.130148    0.269983
     27          6           0       -6.437331    3.433907    0.461857
     28          6           0       -7.891499    4.084935    0.465284
     29          6           0       -8.799977    2.743469    0.575849
     30          6           0       -7.743214    1.652915    0.422188
     31          6           0       -8.107728    5.147278    1.593229
     32          6           0       -9.968862    2.561383   -0.447187
     33          6           0      -11.372429    2.642709    0.095784
     34          7           0       -5.975811   -0.757528    0.162168
     35          6           0       -7.325819   -0.810049    0.446966
     36          6           0       -7.699601   -2.124520    0.765754
     37          6           0       -6.467469   -2.804698    0.797367
     38          6           0       -5.430307   -1.965818    0.464680
     39          6           0       -9.016504   -2.631177    1.079227
     40          6           0       -5.952532   -4.107307    0.971218
     41          8           0       -6.439683   -5.256420    1.151230
     42          6           0       -4.372310   -3.893503    0.985804
     43          6           0       -3.698059   -4.982540    0.234986
     44          8           0       -3.797629   -5.249313   -0.960858
     45          8           0       -2.795305   -5.621555    1.142334
     46          6           0       -2.012747   -6.750761    0.623800
     47          6           0        3.169392   -4.224870   -1.294666
     48          6           0        4.209405   -3.458714   -1.957398
     49          6           0        5.366095   -2.927943   -1.508508
     50          6           0        5.953136   -3.342633   -0.119272
     51          6           0        6.204623   -1.871260   -2.311850
     52          6           0        5.673759   -0.423993   -2.068988
     53          6           0        6.271231    0.678260   -3.050953
     54          6           0        7.300119    1.727256   -2.493808
     55          6           0        6.666981    3.113337   -2.597645
     56          6           0        8.658151    1.752370   -3.223932
     57          6           0        9.810036    2.334312   -2.489513
     58          6           0       10.659849    1.315400   -1.728149
     59          6           0       10.854422    1.797589   -0.285593
     60          6           0       11.581198    3.222500   -0.192651
     61          6           0       11.715893    0.690379    0.458639
     62          6           0       11.015881    0.215328    1.786548
     63          6           0       11.695644    0.821871    3.038439
     64          6           0       11.902122   -0.038498    4.311151
     65          6           0       10.764856    0.164258    5.342374
     66          6           0       13.197359    0.427551    5.027733
     67          1           0       -0.333971    1.380207   -0.334406
     68          1           0       -5.478827    5.242952    0.408540
     69          1           0       -9.150848    0.105274    0.714249
     70          1           0       -1.335626   -3.068158    0.605662
     71          1           0        0.184892   -1.134847   -0.671263
     72          1           0       -0.208475   -1.888366    2.123438
     73          1           0        0.043018   -0.188796    1.974492
     74          1           0        1.208765   -1.333337    1.182758
     75          1           0       -1.141056   -1.998998   -2.389147
     76          1           0       -2.422725   -3.056973   -2.147222
     77          1           0       -0.085346   -3.974811   -3.154676
     78          1           0       -1.091838   -4.954843   -1.963832
     79          1           0        0.164730    4.944825   -0.994805
     80          1           0        0.486309    3.263052   -0.555884
     81          1           0        0.274363    4.306724    0.717202
     82          1           0       -0.804614    6.742972    0.345638
     83          1           0       -1.755162    8.060266   -0.387184
     84          1           0       -1.101037    6.827452   -1.377577
     85          1           0       -8.150291    4.540129   -0.490642
     86          1           0       -9.136395    2.558584    1.597081
     87          1           0       -7.240348    5.182537    2.252647
     88          1           0       -9.061028    4.813049    2.003132
     89          1           0       -8.338655    6.088446    1.095934
     90          1           0       -9.860547    1.569986   -0.887630
     91          1           0       -9.855392    3.281017   -1.258206
     92          1           0      -11.223682    2.988513    1.117860
     93          1           0      -11.770778    1.628278    0.136942
     94          1           0      -11.996854    3.368850   -0.423236
     95          1           0       -9.675992   -2.306323    0.274904
     96          1           0       -9.528421   -2.149089    1.912125
     97          1           0       -8.990593   -3.720381    1.116750
     98          1           0       -4.040822   -3.894796    2.024666
     99          1           0       -1.429296   -7.213893    1.419965
    100          1           0       -1.236325   -6.358883   -0.033503
    101          1           0       -2.692430   -7.506562    0.231649
    102          1           0        3.465615   -5.273303   -1.273869
    103          1           0        3.038977   -3.873112   -0.270979
    104          1           0        3.929313   -3.138170   -2.960773
    105          1           0        5.313660   -3.991877    0.478000
    106          1           0        6.033246   -2.383046    0.392060
    107          1           0        6.850412   -3.909433   -0.370995
    108          1           0        6.183907   -2.157849   -3.362640
    109          1           0        7.267389   -2.028383   -2.126693
    110          1           0        6.119773   -0.223696   -1.094902
    111          1           0        4.601009   -0.239518   -2.025193
    112          1           0        5.385631    1.176660   -3.445870
    113          1           0        6.646021    0.156697   -3.932360
    114          1           0        7.634878    1.417799   -1.504241
    115          1           0        7.394707    3.884661   -2.343566
    116          1           0        5.767991    3.287242   -2.005513
    117          1           0        6.363993    3.247674   -3.636287
    118          1           0        8.554186    2.301576   -4.159428
    119          1           0        8.896684    0.785049   -3.666513
    120          1           0        9.469914    3.017638   -1.710615
    121          1           0       10.519073    2.842974   -3.142179
    122          1           0       11.643545    1.154726   -2.168324
    123          1           0       10.153421    0.350508   -1.711403
    124          1           0        9.875920    1.945089    0.171088
    125          1           0       10.700771    3.865967   -0.205765
    126          1           0       12.296974    3.363805   -1.001832
    127          1           0       12.081252    3.495071    0.736569
    128          1           0       12.702830    1.132944    0.596730
    129          1           0       11.825404   -0.234518   -0.105887
    130          1           0       10.992703   -0.871152    1.872349
    131          1           0        9.997417    0.604388    1.771589
    132          1           0       11.294171    1.781268    3.364340
    133          1           0       12.721373    1.097289    2.792166
    134          1           0       11.918758   -1.084361    4.004638
    135          1           0       11.104870    0.075081    6.373903
    136          1           0        9.987105   -0.591188    5.230121
    137          1           0       10.242937    1.106868    5.174988
    138          1           0       13.121592    0.038404    6.043698
    139          1           0       13.430128    1.490089    4.959247
    140          1           0       13.965771   -0.094127    4.457338
 ---------------------------------------------------------------------

 SCF Done:  E(RB-LYP) =  -3007.35751327     A.U. after   21 cycles

 Excitation energies and oscillator strengths:

 Excited State   1:      Singlet-A      1.7843 eV  694.88 nm  f=0.0235  <S**2>=0.000
     244 -> 247       -0.45045
     245 -> 247        0.50303
     246 -> 247        0.17337
 This state for optimization and/or second-order correction.
 Total Energy, E(TD-HF/TD-DFT) =  -3007.29194321
 Copying the excited state density for this state as the 1-particle RhoCI density.

 Excited State   2:      Singlet-A      1.8833 eV  658.33 nm  f=0.2751  <S**2>=0.000
     244 -> 247        0.10830
     245 -> 247       -0.13589
     245 -> 248       -0.21256
     246 -> 247        0.65138
     246 <- 247       -0.12459

 Excited State   3:      Singlet-A      1.9943 eV  621.70 nm  f=0.0044  <S**2>=0.000
     243 -> 247        0.65358
     244 -> 247       -0.21709
     245 -> 247       -0.13903

 Excited State   4:      Singlet-A      2.0464 eV  605.87 nm  f=0.0352  <S**2>=0.000
     243 -> 247        0.26557
     244 -> 247        0.46937
     245 -> 247        0.38254
     246 -> 248        0.21269

 Excited State   5:      Singlet-A      2.4741 eV  501.13 nm  f=0.0034  <S**2>=0.000
     241 -> 247       -0.27182
     242 -> 247        0.62430
     246 -> 248       -0.10062

 The electronic state is 1-A.
 Alpha  occ. eigenvalues --  -46.27713 -18.83058 -18.80269 -18.77851 -18.76572
 Alpha  occ. eigenvalues --  -18.75635 -18.75173 -14.03251 -14.02752 -14.01365
 Alpha  occ. eigenvalues --  -14.00169 -10.05266 -10.03159  -9.99795  -9.98896
 Alpha  occ. eigenvalues --   -9.98417  -9.96836  -9.96410  -9.96207  -9.96202
 Alpha  occ. eigenvalues --   -9.96113  -9.95935  -9.95845  -9.95339  -9.94456
 Alpha  occ. eigenvalues --   -9.94394  -9.94318  -9.94182  -9.94128  -9.94035
 Alpha  occ. eigenvalues --   -9.94012  -9.93994  -9.93851  -9.93774  -9.93573
 Alpha  occ. eigenvalues --   -9.93386  -9.93259  -9.93170  -9.92949  -9.92927
 Alpha  occ. eigenvalues --   -9.92925  -9.92911  -9.92826  -9.92467  -9.92466
 Alpha  occ. eigenvalues --   -9.92367  -9.92182  -9.92127  -9.92064  -9.92051
 Alpha  occ. eigenvalues --   -9.91950  -9.91860  -9.91852  -9.91752  -9.91707
 Alpha  occ. eigenvalues --   -9.91583  -9.91569  -9.91468  -9.91171  -9.91094
 Alpha  occ. eigenvalues --   -9.90990  -9.90979  -9.90877  -9.90753  -9.90532
 Alpha  occ. eigenvalues --   -9.90363  -2.92267  -1.72693  -1.72180  -1.71956
 Alpha  occ. eigenvalues --   -0.98370  -0.94807  -0.90905  -0.90168  -0.88828
 Alpha  occ. eigenvalues --   -0.88213  -0.87884  -0.87368  -0.85809  -0.83848
 Alpha  occ. eigenvalues --   -0.75663  -0.74005  -0.73354  -0.72647  -0.72190
 Alpha  occ. eigenvalues --   -0.71876  -0.71546  -0.71131  -0.70992  -0.70876
 Alpha  occ. eigenvalues --   -0.70118  -0.69454  -0.68295  -0.67654  -0.67451
 Alpha  occ. eigenvalues --   -0.66770  -0.66336  -0.65505  -0.65313  -0.64446
 Alpha  occ. eigenvalues --   -0.64254  -0.63109  -0.62394  -0.61967  -0.60685
 Alpha  occ. eigenvalues --   -0.60478  -0.60055  -0.59693  -0.59545  -0.59052
 Alpha  occ. eigenvalues --   -0.58807  -0.58051  -0.57122  -0.55765  -0.54811
 Alpha  occ. eigenvalues --   -0.54015  -0.53968  -0.52892  -0.52801  -0.51819
 Alpha  occ. eigenvalues --   -0.51569  -0.51465  -0.51310  -0.50720  -0.50431
 Alpha  occ. eigenvalues --   -0.49865  -0.49668  -0.49060  -0.47103  -0.46785
 Alpha  occ. eigenvalues --   -0.46754  -0.46428  -0.45683  -0.45096  -0.44224
 Alpha  occ. eigenvalues --   -0.43956  -0.43596  -0.43257  -0.42477  -0.42369
 Alpha  occ. eigenvalues --   -0.42227  -0.41960  -0.41674  -0.41096  -0.40996
 Alpha  occ. eigenvalues --   -0.40972  -0.40623  -0.40511  -0.40360  -0.40183
 Alpha  occ. eigenvalues --   -0.39941  -0.39777  -0.39576  -0.39462  -0.39256
 Alpha  occ. eigenvalues --   -0.39097  -0.38880  -0.38767  -0.38618  -0.38362
 Alpha  occ. eigenvalues --   -0.38285  -0.38119  -0.38000  -0.37684  -0.37391
 Alpha  occ. eigenvalues --   -0.37118  -0.36993  -0.36820  -0.36769  -0.36448
 Alpha  occ. eigenvalues --   -0.36198  -0.36089  -0.35899  -0.35833  -0.35798
 Alpha  occ. eigenvalues --   -0.35599  -0.35591  -0.35411  -0.35156  -0.35059
 Alpha  occ. eigenvalues --   -0.34747  -0.34494  -0.34418  -0.34236  -0.34024
 Alpha  occ. eigenvalues --   -0.33936  -0.33639  -0.33371  -0.33327  -0.33255
 Alpha  occ. eigenvalues --   -0.32974  -0.32939  -0.32870  -0.32321  -0.32116
 Alpha  occ. eigenvalues --   -0.32038  -0.31929  -0.31779  -0.31559  -0.31343
 Alpha  occ. eigenvalues --   -0.31277  -0.31090  -0.30897  -0.30527  -0.30333
 Alpha  occ. eigenvalues --   -0.30109  -0.30047  -0.29895  -0.29766  -0.29640
 Alpha  occ. eigenvalues --   -0.29582  -0.29281  -0.29188  -0.29032  -0.28957
 Alpha  occ. eigenvalues --   -0.28781  -0.28701  -0.28252  -0.27814  -0.27701
 Alpha  occ. eigenvalues --   -0.27516  -0.27451  -0.27093  -0.26995  -0.26793
 Alpha  occ. eigenvalues --   -0.26614  -0.26309  -0.26157  -0.26066  -0.25936
 Alpha  occ. eigenvalues --   -0.25480  -0.25194  -0.24278  -0.23665  -0.23200
 Alpha  occ. eigenvalues --   -0.22852  -0.22587  -0.22270  -0.21311  -0.20879
 Alpha  occ. eigenvalues --   -0.20627  -0.19976  -0.18800  -0.18323  -0.17171
 Alpha  occ. eigenvalues --   -0.16229
 Alpha virt. eigenvalues --   -0.11531  -0.07506  -0.06520  -0.04571  -0.03999
 Alpha virt. eigenvalues --   -0.02803  -0.02568  -0.02089  -0.01507   0.00351
 Alpha virt. eigenvalues --    0.01053   0.01421   0.01802   0.02415   0.02579

 Mulliken charges:
               1
     1  Mg   0.684729
     2  C    0.052266
     3  C   -0.056486
     4  C   -0.015900
     5  C   -0.087851
     6  N   -0.155342
     7  C   -0.165377
     8  C    0.062981
     9  C   -0.072719
    10  C    0.011491
    11  C    0.123555
    12  C    0.111864
    13  C    0.166716
    14  C    0.076537
    15  O   -0.223880
    16  O   -0.261841
    17  N   -0.399574
    18  C    0.200046
    19  C   -0.134146
    20  C    0.049358
    21  C    0.128265
    22  C    0.173335
    23  C   -0.076513
    24  O   -0.170281
    25  C    0.119155
    26  N   -0.137102
    27  C   -0.007247
    28  C   -0.027723
    29  C    0.029888
    30  C   -0.032637
    31  C    0.150046
    32  C    0.084158
    33  C    0.082242
    34  N   -0.246022
    35  C    0.134182
    36  C   -0.156452
    37  C    0.113452
    38  C    0.067025
    39  C    0.204252
    40  C   -0.042906
    41  O   -0.174730
    42  C    0.048300
    43  C    0.137249
    44  O   -0.187884
    45  O   -0.311723
    46  C    0.223440
    47  C    0.341712
    48  C   -0.098565
    49  C   -0.190092
    50  C    0.126378
    51  C    0.118023
    52  C    0.070763
    53  C    0.107032
    54  C   -0.024884
    55  C    0.110935
    56  C    0.101955
    57  C    0.107936
    58  C    0.083656
    59  C   -0.128197
    60  C    0.094119
    61  C    0.122631
    62  C    0.108063
    63  C    0.069679
    64  C   -0.099441
    65  C    0.106709
    66  C    0.100213
    67  H   -0.065716
    68  H   -0.047385
    69  H   -0.075355
    70  H   -0.014886
    71  H   -0.017807
    72  H   -0.001886
    73  H   -0.010025
    74  H   -0.002115
    75  H   -0.020868
    76  H    0.000656
    77  H   -0.002107
    78  H    0.012452
    79  H    0.008720
    80  H   -0.022506
    81  H    0.008937
    82  H    0.004711
    83  H   -0.012606
    84  H    0.010195
    85  H   -0.011515
    86  H   -0.025721
    87  H    0.015922
    88  H   -0.016368
    89  H   -0.009257
    90  H   -0.020406
    91  H   -0.030279
    92  H   -0.019023
    93  H   -0.003216
    94  H   -0.001187
    95  H   -0.019415
    96  H   -0.006646
    97  H    0.017947
    98  H    0.008580
    99  H   -0.000960
   100  H    0.012465
   101  H    0.015799
   102  H    0.004582
   103  H   -0.003325
   104  H   -0.042094
   105  H   -0.013632
   106  H    0.005398
   107  H    0.015056
   108  H   -0.027592
   109  H   -0.030752
   110  H   -0.026064
   111  H   -0.016116
   112  H   -0.043964
   113  H   -0.040306
   114  H   -0.037765
   115  H   -0.018558
   116  H   -0.017928
   117  H   -0.014812
   118  H   -0.060642
   119  H   -0.048932
   120  H   -0.031189
   121  H   -0.035762
   122  H   -0.032264
   123  H   -0.034144
   124  H   -0.030809
   125  H   -0.014888
   126  H   -0.007693
   127  H   -0.011245
   128  H   -0.027188
   129  H   -0.038186
   130  H   -0.032854
   131  H   -0.030959
   132  H   -0.038556
   133  H   -0.048758
   134  H   -0.035654
   135  H   -0.020083
   136  H   -0.029876
   137  H   -0.023417
   138  H   -0.014023
   139  H   -0.003329
   140  H   -0.019623
 Sum of Mulliken charges =  -0.00000

 Dipole moment (field-independent basis, Debye):
    X=              4.9239    Y=              3.6088    Z=             -1.6853  Tot=              6.3331
 Quadrupole moment (field-independent basis, Debye-Ang):
   XX=           -378.4495   YY=           -449.9879   ZZ=           -406.8703
   XY=            -29.9659   XZ=             -4.6150   YZ=              1.4121

 Normal termination of Gaussian 16 at Fri Apr 29 10:31:37 2022.
