 Gaussian 16, Revision A.03,
 Gaussian 16:  ES64L-G16RevA.03 25-Dec-2016

 -----------------------------------
 #p cam-b3lyp/Def2SVP td=(nstates=5)
 -----------------------------------

 -------------------------------------------------------
 step_251_chromophore_15 TDDFT with cam-b3lyp functional
 -------------------------------------------------------
 Symbolic Z-matrix:
 Charge =  0 Multiplicity = 1

                         Standard orientation:
 ---------------------------------------------------------------------
 Center     Atomic      Atomic             Coordinates (Angstroms)
 Number     Number       Type             X           Y           Z
 ---------------------------------------------------------------------
      1         12           0       -4.678869    0.962823   -0.198214
      2          6           0       -4.140775   -2.482547    0.397003
      3          6           0       -1.417031    1.328318   -0.201754
      4          6           0       -5.287486    4.173388    0.305656
      5          6           0       -8.088298    0.307853    0.560192
      6          7           0       -3.002057   -0.556528   -0.091668
      7          6           0       -2.982658   -1.831073    0.054793
      8          6           0       -1.572861   -2.394792   -0.217577
      9          6           0       -0.615861   -1.128123    0.067434
     10          6           0       -1.743742   -0.016244   -0.001764
     11          6           0        0.169085   -1.129381    1.438581
     12          6           0       -1.424481   -2.845479   -1.763459
     13          6           0       -0.510220   -4.051818   -2.153335
     14          6           0        0.719521   -4.324594   -1.210900
     15          8           0        0.656887   -4.764369   -0.043672
     16          8           0        1.881087   -4.036758   -1.886884
     17          7           0       -3.522524    2.567709   -0.186363
     18          6           0       -2.140096    2.490411   -0.264251
     19          6           0       -1.588334    3.890988   -0.250333
     20          6           0       -2.769773    4.736335   -0.134333
     21          6           0       -3.969209    3.907562    0.013767
     22          6           0       -0.093997    4.148432   -0.296083
     23          6           0       -2.811862    6.248458   -0.155833
     24          8           0       -3.838617    6.926318   -0.010633
     25          6           0       -1.559655    6.988001   -0.401873
     26          7           0       -6.525566    2.130148    0.269983
     27          6           0       -6.437331    3.433907    0.461857
     28          6           0       -7.891499    4.084935    0.465284
     29          6           0       -8.799977    2.743469    0.575849
     30          6           0       -7.743214    1.652915    0.422188
     31          6           0       -8.107728    5.147278    1.593229
     32          6           0       -9.968862    2.561383   -0.447187
     33          6           0      -11.372429    2.642709    0.095784
     34          7           0       -5.975811   -0.757528    0.162168
     35          6           0       -7.325819   -0.810049    0.446966
     36          6           0       -7.699601   -2.124520    0.765754
     37          6           0       -6.467469   -2.804698    0.797367
     38          6           0       -5.430307   -1.965818    0.464680
     39          6           0       -9.016504   -2.631177    1.079227
     40          6           0       -5.952532   -4.107307    0.971218
     41          8           0       -6.439683   -5.256420    1.151230
     42          6           0       -4.372310   -3.893503    0.985804
     43          6           0       -3.698059   -4.982540    0.234986
     44          8           0       -3.797629   -5.249313   -0.960858
     45          8           0       -2.795305   -5.621555    1.142334
     46          6           0       -2.012747   -6.750761    0.623800
     47          6           0        3.169392   -4.224870   -1.294666
     48          6           0        4.209405   -3.458714   -1.957398
     49          6           0        5.366095   -2.927943   -1.508508
     50          6           0        5.953136   -3.342633   -0.119272
     51          6           0        6.204623   -1.871260   -2.311850
     52          6           0        5.673759   -0.423993   -2.068988
     53          6           0        6.271231    0.678260   -3.050953
     54          6           0        7.300119    1.727256   -2.493808
     55          6           0        6.666981    3.113337   -2.597645
     56          6           0        8.658151    1.752370   -3.223932
     57          6           0        9.810036    2.334312   -2.489513
     58          6           0       10.659849    1.315400   -1.728149
     59          6           0       10.854422    1.797589   -0.285593
     60          6           0       11.581198    3.222500   -0.192651
     61          6           0       11.715893    0.690379    0.458639
     62          6           0       11.015881    0.215328    1.786548
     63          6           0       11.695644    0.821871    3.038439
     64          6           0       11.902122   -0.038498    4.311151
     65          6           0       10.764856    0.164258    5.342374
     66          6           0       13.197359    0.427551    5.027733
     67          1           0       -0.333971    1.380207   -0.334406
     68          1           0       -5.478827    5.242952    0.408540
     69          1           0       -9.150848    0.105274    0.714249
     70          1           0       -1.335626   -3.068158    0.605662
     71          1           0        0.184892   -1.134847   -0.671263
     72          1           0       -0.208475   -1.888366    2.123438
     73          1           0        0.043018   -0.188796    1.974492
     74          1           0        1.208765   -1.333337    1.182758
     75          1           0       -1.141056   -1.998998   -2.389147
     76          1           0       -2.422725   -3.056973   -2.147222
     77          1           0       -0.085346   -3.974811   -3.154676
     78          1           0       -1.091838   -4.954843   -1.963832
     79          1           0        0.164730    4.944825   -0.994805
     80          1           0        0.486309    3.263052   -0.555884
     81          1           0        0.274363    4.306724    0.717202
     82          1           0       -0.804614    6.742972    0.345638
     83          1           0       -1.755162    8.060266   -0.387184
     84          1           0       -1.101037    6.827452   -1.377577
     85          1           0       -8.150291    4.540129   -0.490642
     86          1           0       -9.136395    2.558584    1.597081
     87          1           0       -7.240348    5.182537    2.252647
     88          1           0       -9.061028    4.813049    2.003132
     89          1           0       -8.338655    6.088446    1.095934
     90          1           0       -9.860547    1.569986   -0.887630
     91          1           0       -9.855392    3.281017   -1.258206
     92          1           0      -11.223682    2.988513    1.117860
     93          1           0      -11.770778    1.628278    0.136942
     94          1           0      -11.996854    3.368850   -0.423236
     95          1           0       -9.675992   -2.306323    0.274904
     96          1           0       -9.528421   -2.149089    1.912125
     97          1           0       -8.990593   -3.720381    1.116750
     98          1           0       -4.040822   -3.894796    2.024666
     99          1           0       -1.429296   -7.213893    1.419965
    100          1           0       -1.236325   -6.358883   -0.033503
    101          1           0       -2.692430   -7.506562    0.231649
    102          1           0        3.465615   -5.273303   -1.273869
    103          1           0        3.038977   -3.873112   -0.270979
    104          1           0        3.929313   -3.138170   -2.960773
    105          1           0        5.313660   -3.991877    0.478000
    106          1           0        6.033246   -2.383046    0.392060
    107          1           0        6.850412   -3.909433   -0.370995
    108          1           0        6.183907   -2.157849   -3.362640
    109          1           0        7.267389   -2.028383   -2.126693
    110          1           0        6.119773   -0.223696   -1.094902
    111          1           0        4.601009   -0.239518   -2.025193
    112          1           0        5.385631    1.176660   -3.445870
    113          1           0        6.646021    0.156697   -3.932360
    114          1           0        7.634878    1.417799   -1.504241
    115          1           0        7.394707    3.884661   -2.343566
    116          1           0        5.767991    3.287242   -2.005513
    117          1           0        6.363993    3.247674   -3.636287
    118          1           0        8.554186    2.301576   -4.159428
    119          1           0        8.896684    0.785049   -3.666513
    120          1           0        9.469914    3.017638   -1.710615
    121          1           0       10.519073    2.842974   -3.142179
    122          1           0       11.643545    1.154726   -2.168324
    123          1           0       10.153421    0.350508   -1.711403
    124          1           0        9.875920    1.945089    0.171088
    125          1           0       10.700771    3.865967   -0.205765
    126          1           0       12.296974    3.363805   -1.001832
    127          1           0       12.081252    3.495071    0.736569
    128          1           0       12.702830    1.132944    0.596730
    129          1           0       11.825404   -0.234518   -0.105887
    130          1           0       10.992703   -0.871152    1.872349
    131          1           0        9.997417    0.604388    1.771589
    132          1           0       11.294171    1.781268    3.364340
    133          1           0       12.721373    1.097289    2.792166
    134          1           0       11.918758   -1.084361    4.004638
    135          1           0       11.104870    0.075081    6.373903
    136          1           0        9.987105   -0.591188    5.230121
    137          1           0       10.242937    1.106868    5.174988
    138          1           0       13.121592    0.038404    6.043698
    139          1           0       13.430128    1.490089    4.959247
    140          1           0       13.965771   -0.094127    4.457338
 ---------------------------------------------------------------------

 SCF Done:  E(RCAM-B3LYP) =  -3007.14467770     A.U. after   19 cycles

 Excitation energies and oscillator strengths:

 Excited State   1:      Singlet-A      1.7995 eV  689.00 nm  f=0.3583  <S**2>=0.000
     245 -> 248       -0.21225
     246 -> 247        0.67488
     245 <- 248       -0.10944
 This state for optimization and/or second-order correction.
 Total Energy, E(TD-HF/TD-DFT) =  -3007.07854805
 Copying the excited state density for this state as the 1-particle RhoCI density.

 Excited State   2:      Singlet-A      2.2223 eV  557.91 nm  f=0.0836  <S**2>=0.000
     245 -> 247        0.62940
     246 -> 248        0.30751

 Excited State   3:      Singlet-A      3.2885 eV  377.03 nm  f=0.0388  <S**2>=0.000
     243 -> 247       -0.19134
     244 -> 247        0.58458
     246 -> 248       -0.28145

 Excited State   4:      Singlet-A      3.3460 eV  370.54 nm  f=0.0427  <S**2>=0.000
     241 -> 247       -0.24733
     241 -> 249        0.11111
     243 -> 247        0.42884
     243 -> 249       -0.20485
     243 -> 250        0.11223
     243 -> 251       -0.15067
     244 -> 247        0.30347
     246 -> 248        0.12537

 Excited State   5:      Singlet-A      3.4905 eV  355.20 nm  f=0.4863  <S**2>=0.000
     241 -> 247       -0.17554
     243 -> 247       -0.31874
     244 -> 247        0.16709
     245 -> 247       -0.24953
     246 -> 248        0.50894

 The electronic state is 1-A.
 Alpha  occ. eigenvalues --  -46.89294 -19.25912 -19.23138 -19.20805 -19.19711
 Alpha  occ. eigenvalues --  -19.18938 -19.18253 -14.42055 -14.41623 -14.39883
 Alpha  occ. eigenvalues --  -14.38451 -10.40684 -10.38761 -10.35068 -10.34265
 Alpha  occ. eigenvalues --  -10.32378 -10.31421 -10.30866 -10.30649 -10.30600
 Alpha  occ. eigenvalues --  -10.30519 -10.30224 -10.30161 -10.29774 -10.28580
 Alpha  occ. eigenvalues --  -10.28474 -10.28456 -10.28309 -10.28255 -10.28230
 Alpha  occ. eigenvalues --  -10.28156 -10.28073 -10.27988 -10.27977 -10.27521
 Alpha  occ. eigenvalues --  -10.27514 -10.27392 -10.27352 -10.27203 -10.26893
 Alpha  occ. eigenvalues --  -10.26687 -10.26672 -10.26623 -10.26289 -10.26284
 Alpha  occ. eigenvalues --  -10.26165 -10.26087 -10.25929 -10.25817 -10.25808
 Alpha  occ. eigenvalues --  -10.25801 -10.25798 -10.25744 -10.25669 -10.25348
 Alpha  occ. eigenvalues --  -10.25277 -10.25200 -10.25134 -10.24908 -10.24763
 Alpha  occ. eigenvalues --  -10.24649 -10.24627 -10.24507 -10.24480 -10.24446
 Alpha  occ. eigenvalues --  -10.23972  -3.17748  -1.92652  -1.92215  -1.92034
 Alpha  occ. eigenvalues --   -1.16756  -1.13306  -1.09364  -1.08030  -1.07040
 Alpha  occ. eigenvalues --   -1.06076  -1.05675  -1.05116  -1.03369  -1.01376
 Alpha  occ. eigenvalues --   -0.92774  -0.90887  -0.90161  -0.89397  -0.88916
 Alpha  occ. eigenvalues --   -0.88529  -0.88228  -0.87742  -0.87605  -0.87418
 Alpha  occ. eigenvalues --   -0.86847  -0.85758  -0.84610  -0.83850  -0.83613
 Alpha  occ. eigenvalues --   -0.82873  -0.82525  -0.81551  -0.81253  -0.80255
 Alpha  occ. eigenvalues --   -0.80051  -0.78916  -0.78038  -0.77487  -0.76039
 Alpha  occ. eigenvalues --   -0.75804  -0.75380  -0.75039  -0.74825  -0.74277
 Alpha  occ. eigenvalues --   -0.73862  -0.73071  -0.72051  -0.70563  -0.69485
 Alpha  occ. eigenvalues --   -0.68677  -0.68520  -0.67430  -0.67226  -0.65953
 Alpha  occ. eigenvalues --   -0.65692  -0.65646  -0.65506  -0.64523  -0.64403
 Alpha  occ. eigenvalues --   -0.63853  -0.63658  -0.63022  -0.60803  -0.60467
 Alpha  occ. eigenvalues --   -0.60244  -0.59952  -0.59241  -0.58360  -0.57615
 Alpha  occ. eigenvalues --   -0.57157  -0.56860  -0.56707  -0.55931  -0.55616
 Alpha  occ. eigenvalues --   -0.55155  -0.55094  -0.54553  -0.54070  -0.53777
 Alpha  occ. eigenvalues --   -0.53694  -0.53338  -0.53140  -0.53004  -0.52794
 Alpha  occ. eigenvalues --   -0.52664  -0.52597  -0.52390  -0.52150  -0.52045
 Alpha  occ. eigenvalues --   -0.51808  -0.51409  -0.51237  -0.51016  -0.50776
 Alpha  occ. eigenvalues --   -0.50702  -0.50515  -0.50353  -0.50156  -0.49771
 Alpha  occ. eigenvalues --   -0.49663  -0.49290  -0.49098  -0.48924  -0.48823
 Alpha  occ. eigenvalues --   -0.48487  -0.48469  -0.48272  -0.48000  -0.47860
 Alpha  occ. eigenvalues --   -0.47834  -0.47602  -0.47493  -0.47248  -0.47011
 Alpha  occ. eigenvalues --   -0.46819  -0.46697  -0.46342  -0.46153  -0.45853
 Alpha  occ. eigenvalues --   -0.45606  -0.45328  -0.45238  -0.45015  -0.44901
 Alpha  occ. eigenvalues --   -0.44787  -0.44472  -0.44414  -0.43847  -0.43737
 Alpha  occ. eigenvalues --   -0.43702  -0.43565  -0.43354  -0.43211  -0.42967
 Alpha  occ. eigenvalues --   -0.42849  -0.42537  -0.42394  -0.42018  -0.41763
 Alpha  occ. eigenvalues --   -0.41570  -0.41248  -0.41192  -0.40985  -0.40867
 Alpha  occ. eigenvalues --   -0.40718  -0.40668  -0.40358  -0.40286  -0.40154
 Alpha  occ. eigenvalues --   -0.40117  -0.39720  -0.39639  -0.39193  -0.38570
 Alpha  occ. eigenvalues --   -0.38475  -0.38239  -0.38144  -0.37752  -0.37540
 Alpha  occ. eigenvalues --   -0.37458  -0.37274  -0.37253  -0.36893  -0.36587
 Alpha  occ. eigenvalues --   -0.36336  -0.35847  -0.35233  -0.34398  -0.34209
 Alpha  occ. eigenvalues --   -0.33611  -0.33547  -0.33346  -0.31672  -0.31232
 Alpha  occ. eigenvalues --   -0.30373  -0.30296  -0.30080  -0.29164  -0.24044
 Alpha  occ. eigenvalues --   -0.21573
 Alpha virt. eigenvalues --   -0.08505  -0.02556  -0.00141   0.02341   0.02408
 Alpha virt. eigenvalues --    0.03850   0.05033   0.05493   0.05616   0.06142
 Alpha virt. eigenvalues --    0.07626   0.07998   0.08360   0.08686   0.09026

 Mulliken charges:
               1
     1  Mg   0.815123
     2  C    0.015613
     3  C   -0.078615
     4  C   -0.039743
     5  C   -0.091858
     6  N   -0.224252
     7  C   -0.114314
     8  C    0.002276
     9  C   -0.112358
    10  C    0.025911
    11  C    0.070227
    12  C    0.062012
    13  C    0.104046
    14  C    0.153672
    15  O   -0.265758
    16  O   -0.328549
    17  N   -0.489077
    18  C    0.213479
    19  C   -0.139882
    20  C   -0.019859
    21  C    0.151295
    22  C    0.116143
    23  C    0.006815
    24  O   -0.211406
    25  C    0.033288
    26  N   -0.209901
    27  C    0.015513
    28  C   -0.071785
    29  C   -0.031139
    30  C   -0.009289
    31  C    0.089699
    32  C    0.026664
    33  C    0.020985
    34  N   -0.334643
    35  C    0.141091
    36  C   -0.143627
    37  C    0.022378
    38  C    0.105272
    39  C    0.141378
    40  C    0.059347
    41  O   -0.215509
    42  C   -0.025880
    43  C    0.225873
    44  O   -0.223828
    45  O   -0.376452
    46  C    0.188222
    47  C    0.309840
    48  C   -0.119795
    49  C   -0.214736
    50  C    0.068693
    51  C    0.064957
    52  C    0.019493
    53  C    0.051971
    54  C   -0.082691
    55  C    0.053143
    56  C    0.045522
    57  C    0.049264
    58  C    0.036322
    59  C   -0.178134
    60  C    0.035652
    61  C    0.064936
    62  C    0.050957
    63  C    0.020693
    64  C   -0.157813
    65  C    0.047405
    66  C    0.037343
    67  H   -0.031994
    68  H   -0.007518
    69  H   -0.040014
    70  H    0.021750
    71  H    0.014890
    72  H    0.022720
    73  H    0.015697
    74  H    0.019787
    75  H    0.008706
    76  H    0.033580
    77  H    0.032795
    78  H    0.041026
    79  H    0.033617
    80  H    0.006774
    81  H    0.036841
    82  H    0.032310
    83  H    0.023971
    84  H    0.038235
    85  H    0.021342
    86  H    0.009454
    87  H    0.040269
    88  H    0.007071
    89  H    0.015944
    90  H    0.010539
    91  H   -0.000481
    92  H    0.002896
    93  H    0.018937
    94  H    0.023414
    95  H    0.006930
    96  H    0.021628
    97  H    0.047228
    98  H    0.052982
    99  H    0.023742
   100  H    0.029272
   101  H    0.038555
   102  H    0.031460
   103  H    0.024486
   104  H   -0.006733
   105  H    0.010925
   106  H    0.026532
   107  H    0.037610
   108  H    0.001756
   109  H   -0.001487
   110  H   -0.000573
   111  H    0.012237
   112  H   -0.012968
   113  H   -0.011038
   114  H   -0.010345
   115  H    0.005694
   116  H    0.007098
   117  H    0.008381
   118  H   -0.028832
   119  H   -0.017948
   120  H   -0.006609
   121  H   -0.004117
   122  H   -0.003289
   123  H   -0.006766
   124  H   -0.002268
   125  H    0.007728
   126  H    0.015752
   127  H    0.013079
   128  H    0.001110
   129  H   -0.007249
   130  H   -0.003909
   131  H   -0.003150
   132  H   -0.011810
   133  H   -0.020195
   134  H   -0.004368
   135  H    0.004042
   136  H   -0.004621
   137  H    0.000347
   138  H    0.009862
   139  H    0.020300
   140  H    0.005358
 Sum of Mulliken charges =  -0.00000

 Dipole moment (field-independent basis, Debye):
    X=              5.3034    Y=              4.1336    Z=             -1.7850  Tot=              6.9570
 Quadrupole moment (field-independent basis, Debye-Ang):
   XX=           -377.9808   YY=           -447.6296   ZZ=           -406.7502
   XY=            -31.0833   XZ=             -4.8443   YZ=              1.3450

 Normal termination of Gaussian 16 at Fri Apr 29 09:30:53 2022.
