 Gaussian 16, Revision A.03,
 Gaussian 16:  ES64L-G16RevA.03 25-Dec-2016

 ---------------------------------
 #p PBE1PBE/Def2SVP td=(nstates=5)
 ---------------------------------

 -----------------------------------------------------
 step_251_chromophore_15 TDDFT with PBE1PBE functional
 -----------------------------------------------------
 Symbolic Z-matrix:
 Charge =  0 Multiplicity = 1

                         Standard orientation:
 ---------------------------------------------------------------------
 Center     Atomic      Atomic             Coordinates (Angstroms)
 Number     Number       Type             X           Y           Z
 ---------------------------------------------------------------------
      1         12           0       -4.678869    0.962823   -0.198214
      2          6           0       -4.140775   -2.482547    0.397003
      3          6           0       -1.417031    1.328318   -0.201754
      4          6           0       -5.287486    4.173388    0.305656
      5          6           0       -8.088298    0.307853    0.560192
      6          7           0       -3.002057   -0.556528   -0.091668
      7          6           0       -2.982658   -1.831073    0.054793
      8          6           0       -1.572861   -2.394792   -0.217577
      9          6           0       -0.615861   -1.128123    0.067434
     10          6           0       -1.743742   -0.016244   -0.001764
     11          6           0        0.169085   -1.129381    1.438581
     12          6           0       -1.424481   -2.845479   -1.763459
     13          6           0       -0.510220   -4.051818   -2.153335
     14          6           0        0.719521   -4.324594   -1.210900
     15          8           0        0.656887   -4.764369   -0.043672
     16          8           0        1.881087   -4.036758   -1.886884
     17          7           0       -3.522524    2.567709   -0.186363
     18          6           0       -2.140096    2.490411   -0.264251
     19          6           0       -1.588334    3.890988   -0.250333
     20          6           0       -2.769773    4.736335   -0.134333
     21          6           0       -3.969209    3.907562    0.013767
     22          6           0       -0.093997    4.148432   -0.296083
     23          6           0       -2.811862    6.248458   -0.155833
     24          8           0       -3.838617    6.926318   -0.010633
     25          6           0       -1.559655    6.988001   -0.401873
     26          7           0       -6.525566    2.130148    0.269983
     27          6           0       -6.437331    3.433907    0.461857
     28          6           0       -7.891499    4.084935    0.465284
     29          6           0       -8.799977    2.743469    0.575849
     30          6           0       -7.743214    1.652915    0.422188
     31          6           0       -8.107728    5.147278    1.593229
     32          6           0       -9.968862    2.561383   -0.447187
     33          6           0      -11.372429    2.642709    0.095784
     34          7           0       -5.975811   -0.757528    0.162168
     35          6           0       -7.325819   -0.810049    0.446966
     36          6           0       -7.699601   -2.124520    0.765754
     37          6           0       -6.467469   -2.804698    0.797367
     38          6           0       -5.430307   -1.965818    0.464680
     39          6           0       -9.016504   -2.631177    1.079227
     40          6           0       -5.952532   -4.107307    0.971218
     41          8           0       -6.439683   -5.256420    1.151230
     42          6           0       -4.372310   -3.893503    0.985804
     43          6           0       -3.698059   -4.982540    0.234986
     44          8           0       -3.797629   -5.249313   -0.960858
     45          8           0       -2.795305   -5.621555    1.142334
     46          6           0       -2.012747   -6.750761    0.623800
     47          6           0        3.169392   -4.224870   -1.294666
     48          6           0        4.209405   -3.458714   -1.957398
     49          6           0        5.366095   -2.927943   -1.508508
     50          6           0        5.953136   -3.342633   -0.119272
     51          6           0        6.204623   -1.871260   -2.311850
     52          6           0        5.673759   -0.423993   -2.068988
     53          6           0        6.271231    0.678260   -3.050953
     54          6           0        7.300119    1.727256   -2.493808
     55          6           0        6.666981    3.113337   -2.597645
     56          6           0        8.658151    1.752370   -3.223932
     57          6           0        9.810036    2.334312   -2.489513
     58          6           0       10.659849    1.315400   -1.728149
     59          6           0       10.854422    1.797589   -0.285593
     60          6           0       11.581198    3.222500   -0.192651
     61          6           0       11.715893    0.690379    0.458639
     62          6           0       11.015881    0.215328    1.786548
     63          6           0       11.695644    0.821871    3.038439
     64          6           0       11.902122   -0.038498    4.311151
     65          6           0       10.764856    0.164258    5.342374
     66          6           0       13.197359    0.427551    5.027733
     67          1           0       -0.333971    1.380207   -0.334406
     68          1           0       -5.478827    5.242952    0.408540
     69          1           0       -9.150848    0.105274    0.714249
     70          1           0       -1.335626   -3.068158    0.605662
     71          1           0        0.184892   -1.134847   -0.671263
     72          1           0       -0.208475   -1.888366    2.123438
     73          1           0        0.043018   -0.188796    1.974492
     74          1           0        1.208765   -1.333337    1.182758
     75          1           0       -1.141056   -1.998998   -2.389147
     76          1           0       -2.422725   -3.056973   -2.147222
     77          1           0       -0.085346   -3.974811   -3.154676
     78          1           0       -1.091838   -4.954843   -1.963832
     79          1           0        0.164730    4.944825   -0.994805
     80          1           0        0.486309    3.263052   -0.555884
     81          1           0        0.274363    4.306724    0.717202
     82          1           0       -0.804614    6.742972    0.345638
     83          1           0       -1.755162    8.060266   -0.387184
     84          1           0       -1.101037    6.827452   -1.377577
     85          1           0       -8.150291    4.540129   -0.490642
     86          1           0       -9.136395    2.558584    1.597081
     87          1           0       -7.240348    5.182537    2.252647
     88          1           0       -9.061028    4.813049    2.003132
     89          1           0       -8.338655    6.088446    1.095934
     90          1           0       -9.860547    1.569986   -0.887630
     91          1           0       -9.855392    3.281017   -1.258206
     92          1           0      -11.223682    2.988513    1.117860
     93          1           0      -11.770778    1.628278    0.136942
     94          1           0      -11.996854    3.368850   -0.423236
     95          1           0       -9.675992   -2.306323    0.274904
     96          1           0       -9.528421   -2.149089    1.912125
     97          1           0       -8.990593   -3.720381    1.116750
     98          1           0       -4.040822   -3.894796    2.024666
     99          1           0       -1.429296   -7.213893    1.419965
    100          1           0       -1.236325   -6.358883   -0.033503
    101          1           0       -2.692430   -7.506562    0.231649
    102          1           0        3.465615   -5.273303   -1.273869
    103          1           0        3.038977   -3.873112   -0.270979
    104          1           0        3.929313   -3.138170   -2.960773
    105          1           0        5.313660   -3.991877    0.478000
    106          1           0        6.033246   -2.383046    0.392060
    107          1           0        6.850412   -3.909433   -0.370995
    108          1           0        6.183907   -2.157849   -3.362640
    109          1           0        7.267389   -2.028383   -2.126693
    110          1           0        6.119773   -0.223696   -1.094902
    111          1           0        4.601009   -0.239518   -2.025193
    112          1           0        5.385631    1.176660   -3.445870
    113          1           0        6.646021    0.156697   -3.932360
    114          1           0        7.634878    1.417799   -1.504241
    115          1           0        7.394707    3.884661   -2.343566
    116          1           0        5.767991    3.287242   -2.005513
    117          1           0        6.363993    3.247674   -3.636287
    118          1           0        8.554186    2.301576   -4.159428
    119          1           0        8.896684    0.785049   -3.666513
    120          1           0        9.469914    3.017638   -1.710615
    121          1           0       10.519073    2.842974   -3.142179
    122          1           0       11.643545    1.154726   -2.168324
    123          1           0       10.153421    0.350508   -1.711403
    124          1           0        9.875920    1.945089    0.171088
    125          1           0       10.700771    3.865967   -0.205765
    126          1           0       12.296974    3.363805   -1.001832
    127          1           0       12.081252    3.495071    0.736569
    128          1           0       12.702830    1.132944    0.596730
    129          1           0       11.825404   -0.234518   -0.105887
    130          1           0       10.992703   -0.871152    1.872349
    131          1           0        9.997417    0.604388    1.771589
    132          1           0       11.294171    1.781268    3.364340
    133          1           0       12.721373    1.097289    2.792166
    134          1           0       11.918758   -1.084361    4.004638
    135          1           0       11.104870    0.075081    6.373903
    136          1           0        9.987105   -0.591188    5.230121
    137          1           0       10.242937    1.106868    5.174988
    138          1           0       13.121592    0.038404    6.043698
    139          1           0       13.430128    1.490089    4.959247
    140          1           0       13.965771   -0.094127    4.457338
 ---------------------------------------------------------------------

 SCF Done:  E(RPBE1PBE) =  -3005.33226298     A.U. after   16 cycles

 Excitation energies and oscillator strengths:

 Excited State   1:      Singlet-A      1.9485 eV  636.31 nm  f=0.3459  <S**2>=0.000
     245 -> 248       -0.20403
     246 -> 247        0.68083
 This state for optimization and/or second-order correction.
 Total Energy, E(TD-HF/TD-DFT) =  -3005.26065762
 Copying the excited state density for this state as the 1-particle RhoCI density.

 Excited State   2:      Singlet-A      2.2100 eV  561.02 nm  f=0.0868  <S**2>=0.000
     245 -> 247        0.64660
     246 -> 248        0.26471

 Excited State   3:      Singlet-A      2.8663 eV  432.55 nm  f=0.0039  <S**2>=0.000
     243 -> 247        0.64010
     243 -> 249       -0.14596
     243 -> 250        0.11799
     244 -> 247        0.16471
     246 -> 248        0.12192

 Excited State   4:      Singlet-A      2.9901 eV  414.65 nm  f=0.0006  <S**2>=0.000
     243 -> 247       -0.15524
     244 -> 247        0.66747
     246 -> 248       -0.13016

 Excited State   5:      Singlet-A      3.1522 eV  393.33 nm  f=0.0012  <S**2>=0.000
     240 -> 247        0.46062
     240 -> 249        0.15583
     241 -> 247        0.47002
     241 -> 249        0.12800

 The electronic state is 1-A.
 Alpha  occ. eigenvalues --  -46.92681 -19.26613 -19.23822 -19.21093 -19.19900
 Alpha  occ. eigenvalues --  -19.19112 -19.18551 -14.41548 -14.41042 -14.39564
 Alpha  occ. eigenvalues --  -14.38170 -10.37755 -10.35762 -10.32139 -10.31432
 Alpha  occ. eigenvalues --  -10.29734 -10.29136 -10.28561 -10.28298 -10.28279
 Alpha  occ. eigenvalues --  -10.28238 -10.27969 -10.27836 -10.27009 -10.26405
 Alpha  occ. eigenvalues --  -10.26305 -10.26177 -10.26072 -10.25983 -10.25927
 Alpha  occ. eigenvalues --  -10.25783 -10.25676 -10.25638 -10.25401 -10.25394
 Alpha  occ. eigenvalues --  -10.25249 -10.25153 -10.24970 -10.24768 -10.24530
 Alpha  occ. eigenvalues --  -10.24366 -10.24264 -10.24031 -10.24020 -10.23857
 Alpha  occ. eigenvalues --  -10.23814 -10.23549 -10.23523 -10.23414 -10.23337
 Alpha  occ. eigenvalues --  -10.23332 -10.23231 -10.23224 -10.23029 -10.22823
 Alpha  occ. eigenvalues --  -10.22781 -10.22592 -10.22570 -10.22504 -10.22313
 Alpha  occ. eigenvalues --  -10.22237 -10.22200 -10.22156 -10.22001 -10.21894
 Alpha  occ. eigenvalues --  -10.21360  -3.14719  -1.87562  -1.87101  -1.86928
 Alpha  occ. eigenvalues --   -1.11584  -1.08019  -1.04033  -1.02870  -1.01775
 Alpha  occ. eigenvalues --   -1.00900  -1.00319  -0.99753  -0.98095  -0.95987
 Alpha  occ. eigenvalues --   -0.87175  -0.84978  -0.84313  -0.83722  -0.83013
 Alpha  occ. eigenvalues --   -0.82842  -0.82421  -0.81960  -0.81815  -0.81763
 Alpha  occ. eigenvalues --   -0.81045  -0.79972  -0.78823  -0.78140  -0.77864
 Alpha  occ. eigenvalues --   -0.77110  -0.76755  -0.75763  -0.75484  -0.74600
 Alpha  occ. eigenvalues --   -0.74213  -0.73216  -0.72293  -0.71819  -0.70264
 Alpha  occ. eigenvalues --   -0.70104  -0.69503  -0.69155  -0.69119  -0.68459
 Alpha  occ. eigenvalues --   -0.68196  -0.67522  -0.66522  -0.64849  -0.63713
 Alpha  occ. eigenvalues --   -0.63164  -0.62866  -0.61845  -0.61472  -0.60485
 Alpha  occ. eigenvalues --   -0.60071  -0.59963  -0.59873  -0.59039  -0.58934
 Alpha  occ. eigenvalues --   -0.58026  -0.57822  -0.57171  -0.55358  -0.54989
 Alpha  occ. eigenvalues --   -0.54689  -0.54530  -0.53831  -0.53037  -0.52189
 Alpha  occ. eigenvalues --   -0.51732  -0.51222  -0.51122  -0.50508  -0.50202
 Alpha  occ. eigenvalues --   -0.49694  -0.49514  -0.48985  -0.48481  -0.48435
 Alpha  occ. eigenvalues --   -0.48191  -0.47860  -0.47573  -0.47498  -0.47284
 Alpha  occ. eigenvalues --   -0.47128  -0.47062  -0.46839  -0.46724  -0.46528
 Alpha  occ. eigenvalues --   -0.46296  -0.46000  -0.45812  -0.45542  -0.45336
 Alpha  occ. eigenvalues --   -0.45294  -0.45027  -0.44893  -0.44760  -0.44357
 Alpha  occ. eigenvalues --   -0.44240  -0.43962  -0.43659  -0.43526  -0.43456
 Alpha  occ. eigenvalues --   -0.43104  -0.43060  -0.42890  -0.42622  -0.42469
 Alpha  occ. eigenvalues --   -0.42378  -0.42285  -0.42130  -0.41936  -0.41689
 Alpha  occ. eigenvalues --   -0.41484  -0.41413  -0.41056  -0.40912  -0.40637
 Alpha  occ. eigenvalues --   -0.40194  -0.40086  -0.39916  -0.39773  -0.39601
 Alpha  occ. eigenvalues --   -0.39549  -0.39160  -0.39079  -0.38652  -0.38590
 Alpha  occ. eigenvalues --   -0.38450  -0.38352  -0.38137  -0.37972  -0.37743
 Alpha  occ. eigenvalues --   -0.37644  -0.37389  -0.37158  -0.36754  -0.36579
 Alpha  occ. eigenvalues --   -0.36358  -0.36046  -0.35956  -0.35798  -0.35652
 Alpha  occ. eigenvalues --   -0.35568  -0.35535  -0.35199  -0.35126  -0.35049
 Alpha  occ. eigenvalues --   -0.34899  -0.34520  -0.34480  -0.33983  -0.33456
 Alpha  occ. eigenvalues --   -0.33326  -0.33121  -0.33047  -0.32653  -0.32540
 Alpha  occ. eigenvalues --   -0.32459  -0.32283  -0.32124  -0.31765  -0.31534
 Alpha  occ. eigenvalues --   -0.31438  -0.30670  -0.30150  -0.29665  -0.29204
 Alpha  occ. eigenvalues --   -0.28815  -0.28539  -0.28340  -0.27273  -0.25965
 Alpha  occ. eigenvalues --   -0.25868  -0.25576  -0.25070  -0.24865  -0.20985
 Alpha  occ. eigenvalues --   -0.19202
 Alpha virt. eigenvalues --   -0.11055  -0.05964  -0.04317  -0.02012  -0.00841
 Alpha virt. eigenvalues --   -0.00366   0.00437   0.00945   0.01235   0.03128
 Alpha virt. eigenvalues --    0.03807   0.04214   0.04692   0.05327   0.05436

 Mulliken charges:
               1
     1  Mg   0.957279
     2  C   -0.000887
     3  C   -0.080207
     4  C   -0.050591
     5  C   -0.079653
     6  N   -0.321415
     7  C   -0.034300
     8  C   -0.074860
     9  C   -0.179163
    10  C    0.057715
    11  C    0.015748
    12  C    0.020784
    13  C    0.022293
    14  C    0.218785
    15  O   -0.297235
    16  O   -0.362782
    17  N   -0.602073
    18  C    0.237710
    19  C   -0.166216
    20  C   -0.073723
    21  C    0.187729
    22  C    0.056071
    23  C    0.061802
    24  O   -0.249955
    25  C   -0.038616
    26  N   -0.320331
    27  C    0.058009
    28  C   -0.141779
    29  C   -0.108126
    30  C    0.036819
    31  C    0.027254
    32  C   -0.030508
    33  C   -0.052762
    34  N   -0.457710
    35  C    0.164514
    36  C   -0.159602
    37  C   -0.034612
    38  C    0.161019
    39  C    0.085756
    40  C    0.152603
    41  O   -0.259327
    42  C   -0.133500
    43  C    0.316459
    44  O   -0.260199
    45  O   -0.407451
    46  C    0.129972
    47  C    0.272724
    48  C   -0.127115
    49  C   -0.261784
    50  C    0.004545
    51  C    0.004704
    52  C   -0.044988
    53  C    0.005208
    54  C   -0.179438
    55  C   -0.009123
    56  C   -0.004896
    57  C   -0.019061
    58  C   -0.010888
    59  C   -0.268281
    60  C   -0.022631
    61  C    0.011312
    62  C   -0.016649
    63  C   -0.025587
    64  C   -0.252506
    65  C   -0.009961
    66  C   -0.028985
    67  H    0.001593
    68  H    0.025386
    69  H   -0.008096
    70  H    0.060522
    71  H    0.049598
    72  H    0.049043
    73  H    0.043389
    74  H    0.046840
    75  H    0.040191
    76  H    0.065833
    77  H    0.063920
    78  H    0.075585
    79  H    0.060211
    80  H    0.034372
    81  H    0.064564
    82  H    0.059214
    83  H    0.051605
    84  H    0.064166
    85  H    0.057635
    86  H    0.046755
    87  H    0.066888
    88  H    0.036555
    89  H    0.044041
    90  H    0.044340
    91  H    0.032076
    92  H    0.031548
    93  H    0.046072
    94  H    0.050921
    95  H    0.035599
    96  H    0.049367
    97  H    0.074391
    98  H    0.090023
    99  H    0.046318
   100  H    0.055882
   101  H    0.060385
   102  H    0.058041
   103  H    0.050219
   104  H    0.024105
   105  H    0.037641
   106  H    0.054557
   107  H    0.065419
   108  H    0.033347
   109  H    0.029608
   110  H    0.033979
   111  H    0.042640
   112  H    0.019549
   113  H    0.020414
   114  H    0.030067
   115  H    0.034232
   116  H    0.036056
   117  H    0.036112
   118  H    0.004909
   119  H    0.014577
   120  H    0.027190
   121  H    0.029131
   122  H    0.029398
   123  H    0.026832
   124  H    0.035714
   125  H    0.034625
   126  H    0.042872
   127  H    0.041309
   128  H    0.032772
   129  H    0.024892
   130  H    0.027782
   131  H    0.030321
   132  H    0.019929
   133  H    0.013526
   134  H    0.032224
   135  H    0.030551
   136  H    0.023959
   137  H    0.027370
   138  H    0.037833
   139  H    0.047255
   140  H    0.034973
 Sum of Mulliken charges =  -0.00000

 Dipole moment (field-independent basis, Debye):
    X=              5.2330    Y=              4.0988    Z=             -1.8079  Tot=              6.8886
 Quadrupole moment (field-independent basis, Debye-Ang):
   XX=           -371.5849   YY=           -445.1948   ZZ=           -404.2263
   XY=            -31.4430   XZ=             -5.0433   YZ=              1.1840

 Normal termination of Gaussian 16 at Fri Apr 29 09:49:06 2022.
