 Gaussian 16, Revision A.03,
 Gaussian 16:  ES64L-G16RevA.03 25-Dec-2016

 --------------------------------
 #p wB97XD/Def2SVP td=(nstates=5)
 --------------------------------

 ----------------------------------------------------
 step_251_chromophore_15 TDDFT with wB97XD functional
 ----------------------------------------------------
 Symbolic Z-matrix:
 Charge =  0 Multiplicity = 1

                         Standard orientation:
 ---------------------------------------------------------------------
 Center     Atomic      Atomic             Coordinates (Angstroms)
 Number     Number       Type             X           Y           Z
 ---------------------------------------------------------------------
      1         12           0       -4.678869    0.962823   -0.198214
      2          6           0       -4.140775   -2.482547    0.397003
      3          6           0       -1.417031    1.328318   -0.201754
      4          6           0       -5.287486    4.173388    0.305656
      5          6           0       -8.088298    0.307853    0.560192
      6          7           0       -3.002057   -0.556528   -0.091668
      7          6           0       -2.982658   -1.831073    0.054793
      8          6           0       -1.572861   -2.394792   -0.217577
      9          6           0       -0.615861   -1.128123    0.067434
     10          6           0       -1.743742   -0.016244   -0.001764
     11          6           0        0.169085   -1.129381    1.438581
     12          6           0       -1.424481   -2.845479   -1.763459
     13          6           0       -0.510220   -4.051818   -2.153335
     14          6           0        0.719521   -4.324594   -1.210900
     15          8           0        0.656887   -4.764369   -0.043672
     16          8           0        1.881087   -4.036758   -1.886884
     17          7           0       -3.522524    2.567709   -0.186363
     18          6           0       -2.140096    2.490411   -0.264251
     19          6           0       -1.588334    3.890988   -0.250333
     20          6           0       -2.769773    4.736335   -0.134333
     21          6           0       -3.969209    3.907562    0.013767
     22          6           0       -0.093997    4.148432   -0.296083
     23          6           0       -2.811862    6.248458   -0.155833
     24          8           0       -3.838617    6.926318   -0.010633
     25          6           0       -1.559655    6.988001   -0.401873
     26          7           0       -6.525566    2.130148    0.269983
     27          6           0       -6.437331    3.433907    0.461857
     28          6           0       -7.891499    4.084935    0.465284
     29          6           0       -8.799977    2.743469    0.575849
     30          6           0       -7.743214    1.652915    0.422188
     31          6           0       -8.107728    5.147278    1.593229
     32          6           0       -9.968862    2.561383   -0.447187
     33          6           0      -11.372429    2.642709    0.095784
     34          7           0       -5.975811   -0.757528    0.162168
     35          6           0       -7.325819   -0.810049    0.446966
     36          6           0       -7.699601   -2.124520    0.765754
     37          6           0       -6.467469   -2.804698    0.797367
     38          6           0       -5.430307   -1.965818    0.464680
     39          6           0       -9.016504   -2.631177    1.079227
     40          6           0       -5.952532   -4.107307    0.971218
     41          8           0       -6.439683   -5.256420    1.151230
     42          6           0       -4.372310   -3.893503    0.985804
     43          6           0       -3.698059   -4.982540    0.234986
     44          8           0       -3.797629   -5.249313   -0.960858
     45          8           0       -2.795305   -5.621555    1.142334
     46          6           0       -2.012747   -6.750761    0.623800
     47          6           0        3.169392   -4.224870   -1.294666
     48          6           0        4.209405   -3.458714   -1.957398
     49          6           0        5.366095   -2.927943   -1.508508
     50          6           0        5.953136   -3.342633   -0.119272
     51          6           0        6.204623   -1.871260   -2.311850
     52          6           0        5.673759   -0.423993   -2.068988
     53          6           0        6.271231    0.678260   -3.050953
     54          6           0        7.300119    1.727256   -2.493808
     55          6           0        6.666981    3.113337   -2.597645
     56          6           0        8.658151    1.752370   -3.223932
     57          6           0        9.810036    2.334312   -2.489513
     58          6           0       10.659849    1.315400   -1.728149
     59          6           0       10.854422    1.797589   -0.285593
     60          6           0       11.581198    3.222500   -0.192651
     61          6           0       11.715893    0.690379    0.458639
     62          6           0       11.015881    0.215328    1.786548
     63          6           0       11.695644    0.821871    3.038439
     64          6           0       11.902122   -0.038498    4.311151
     65          6           0       10.764856    0.164258    5.342374
     66          6           0       13.197359    0.427551    5.027733
     67          1           0       -0.333971    1.380207   -0.334406
     68          1           0       -5.478827    5.242952    0.408540
     69          1           0       -9.150848    0.105274    0.714249
     70          1           0       -1.335626   -3.068158    0.605662
     71          1           0        0.184892   -1.134847   -0.671263
     72          1           0       -0.208475   -1.888366    2.123438
     73          1           0        0.043018   -0.188796    1.974492
     74          1           0        1.208765   -1.333337    1.182758
     75          1           0       -1.141056   -1.998998   -2.389147
     76          1           0       -2.422725   -3.056973   -2.147222
     77          1           0       -0.085346   -3.974811   -3.154676
     78          1           0       -1.091838   -4.954843   -1.963832
     79          1           0        0.164730    4.944825   -0.994805
     80          1           0        0.486309    3.263052   -0.555884
     81          1           0        0.274363    4.306724    0.717202
     82          1           0       -0.804614    6.742972    0.345638
     83          1           0       -1.755162    8.060266   -0.387184
     84          1           0       -1.101037    6.827452   -1.377577
     85          1           0       -8.150291    4.540129   -0.490642
     86          1           0       -9.136395    2.558584    1.597081
     87          1           0       -7.240348    5.182537    2.252647
     88          1           0       -9.061028    4.813049    2.003132
     89          1           0       -8.338655    6.088446    1.095934
     90          1           0       -9.860547    1.569986   -0.887630
     91          1           0       -9.855392    3.281017   -1.258206
     92          1           0      -11.223682    2.988513    1.117860
     93          1           0      -11.770778    1.628278    0.136942
     94          1           0      -11.996854    3.368850   -0.423236
     95          1           0       -9.675992   -2.306323    0.274904
     96          1           0       -9.528421   -2.149089    1.912125
     97          1           0       -8.990593   -3.720381    1.116750
     98          1           0       -4.040822   -3.894796    2.024666
     99          1           0       -1.429296   -7.213893    1.419965
    100          1           0       -1.236325   -6.358883   -0.033503
    101          1           0       -2.692430   -7.506562    0.231649
    102          1           0        3.465615   -5.273303   -1.273869
    103          1           0        3.038977   -3.873112   -0.270979
    104          1           0        3.929313   -3.138170   -2.960773
    105          1           0        5.313660   -3.991877    0.478000
    106          1           0        6.033246   -2.383046    0.392060
    107          1           0        6.850412   -3.909433   -0.370995
    108          1           0        6.183907   -2.157849   -3.362640
    109          1           0        7.267389   -2.028383   -2.126693
    110          1           0        6.119773   -0.223696   -1.094902
    111          1           0        4.601009   -0.239518   -2.025193
    112          1           0        5.385631    1.176660   -3.445870
    113          1           0        6.646021    0.156697   -3.932360
    114          1           0        7.634878    1.417799   -1.504241
    115          1           0        7.394707    3.884661   -2.343566
    116          1           0        5.767991    3.287242   -2.005513
    117          1           0        6.363993    3.247674   -3.636287
    118          1           0        8.554186    2.301576   -4.159428
    119          1           0        8.896684    0.785049   -3.666513
    120          1           0        9.469914    3.017638   -1.710615
    121          1           0       10.519073    2.842974   -3.142179
    122          1           0       11.643545    1.154726   -2.168324
    123          1           0       10.153421    0.350508   -1.711403
    124          1           0        9.875920    1.945089    0.171088
    125          1           0       10.700771    3.865967   -0.205765
    126          1           0       12.296974    3.363805   -1.001832
    127          1           0       12.081252    3.495071    0.736569
    128          1           0       12.702830    1.132944    0.596730
    129          1           0       11.825404   -0.234518   -0.105887
    130          1           0       10.992703   -0.871152    1.872349
    131          1           0        9.997417    0.604388    1.771589
    132          1           0       11.294171    1.781268    3.364340
    133          1           0       12.721373    1.097289    2.792166
    134          1           0       11.918758   -1.084361    4.004638
    135          1           0       11.104870    0.075081    6.373903
    136          1           0        9.987105   -0.591188    5.230121
    137          1           0       10.242937    1.106868    5.174988
    138          1           0       13.121592    0.038404    6.043698
    139          1           0       13.430128    1.490089    4.959247
    140          1           0       13.965771   -0.094127    4.457338
 ---------------------------------------------------------------------

 SCF Done:  E(RwB97XD) =  -3007.84126983     A.U. after   19 cycles

 Excitation energies and oscillator strengths:

 Excited State   1:      Singlet-A      1.7431 eV  711.28 nm  f=0.3562  <S**2>=0.000
     245 -> 248       -0.21789
     246 -> 247        0.67297
     245 <- 248       -0.11917
 This state for optimization and/or second-order correction.
 Total Energy, E(TD-HF/TD-DFT) =  -3007.77721121
 Copying the excited state density for this state as the 1-particle RhoCI density.

 Excited State   2:      Singlet-A      2.1673 eV  572.07 nm  f=0.0815  <S**2>=0.000
     245 -> 247        0.62767
     246 -> 248        0.30916

 Excited State   3:      Singlet-A      3.2993 eV  375.79 nm  f=0.0382  <S**2>=0.000
     243 -> 247       -0.15592
     244 -> 247        0.59836
     246 -> 248       -0.28168

 Excited State   4:      Singlet-A      3.3723 eV  367.65 nm  f=0.0543  <S**2>=0.000
     241 -> 247       -0.15159
     243 -> 247        0.47410
     243 -> 249       -0.24929
     243 -> 250        0.22375
     244 -> 247        0.25051
     246 -> 248        0.14983

 Excited State   5:      Singlet-A      3.5069 eV  353.55 nm  f=0.4725  <S**2>=0.000
     241 -> 247       -0.25665
     243 -> 247       -0.28107
     244 -> 247        0.17007
     245 -> 247       -0.24156
     246 -> 248        0.49674

 The electronic state is 1-A.
 Alpha  occ. eigenvalues --  -46.95628 -19.31148 -19.28374 -19.25741 -19.24642
 Alpha  occ. eigenvalues --  -19.23964 -19.23327 -14.46615 -14.46187 -14.44514
 Alpha  occ. eigenvalues --  -14.43057 -10.44514 -10.42627 -10.39023 -10.38297
 Alpha  occ. eigenvalues --  -10.36230 -10.35469 -10.34919 -10.34692 -10.34590
 Alpha  occ. eigenvalues --  -10.34526 -10.34343 -10.34194 -10.33527 -10.32644
 Alpha  occ. eigenvalues --  -10.32556 -10.32458 -10.32421 -10.32279 -10.32248
 Alpha  occ. eigenvalues --  -10.32103 -10.32083 -10.31980 -10.31935 -10.31575
 Alpha  occ. eigenvalues --  -10.31555 -10.31503 -10.31457 -10.31158 -10.30919
 Alpha  occ. eigenvalues --  -10.30663 -10.30631 -10.30460 -10.30301 -10.30288
 Alpha  occ. eigenvalues --  -10.30098 -10.29961 -10.29927 -10.29768 -10.29734
 Alpha  occ. eigenvalues --  -10.29683 -10.29653 -10.29606 -10.29595 -10.29187
 Alpha  occ. eigenvalues --  -10.29155 -10.29050 -10.28990 -10.28848 -10.28689
 Alpha  occ. eigenvalues --  -10.28582 -10.28551 -10.28532 -10.28365 -10.28311
 Alpha  occ. eigenvalues --  -10.27783  -3.21540  -1.95130  -1.94672  -1.94487
 Alpha  occ. eigenvalues --   -1.18943  -1.15446  -1.11568  -1.10203  -1.09259
 Alpha  occ. eigenvalues --   -1.08280  -1.07682  -1.07115  -1.05429  -1.03412
 Alpha  occ. eigenvalues --   -0.94767  -0.92656  -0.91986  -0.91317  -0.90682
 Alpha  occ. eigenvalues --   -0.90428  -0.90068  -0.89584  -0.89460  -0.89359
 Alpha  occ. eigenvalues --   -0.88789  -0.87621  -0.86478  -0.85742  -0.85501
 Alpha  occ. eigenvalues --   -0.84750  -0.84447  -0.83471  -0.83133  -0.82214
 Alpha  occ. eigenvalues --   -0.81883  -0.80881  -0.79942  -0.79409  -0.77905
 Alpha  occ. eigenvalues --   -0.77731  -0.77196  -0.76822  -0.76757  -0.76118
 Alpha  occ. eigenvalues --   -0.75789  -0.75057  -0.74035  -0.72471  -0.71360
 Alpha  occ. eigenvalues --   -0.70689  -0.70427  -0.69427  -0.69105  -0.67930
 Alpha  occ. eigenvalues --   -0.67578  -0.67520  -0.67466  -0.66488  -0.66382
 Alpha  occ. eigenvalues --   -0.65685  -0.65485  -0.64835  -0.62796  -0.62468
 Alpha  occ. eigenvalues --   -0.62169  -0.61931  -0.61239  -0.60364  -0.59592
 Alpha  occ. eigenvalues --   -0.59114  -0.58739  -0.58622  -0.57916  -0.57598
 Alpha  occ. eigenvalues --   -0.57087  -0.56976  -0.56440  -0.55950  -0.55683
 Alpha  occ. eigenvalues --   -0.55602  -0.55251  -0.54997  -0.54870  -0.54694
 Alpha  occ. eigenvalues --   -0.54548  -0.54511  -0.54323  -0.54081  -0.53984
 Alpha  occ. eigenvalues --   -0.53677  -0.53312  -0.53164  -0.52906  -0.52701
 Alpha  occ. eigenvalues --   -0.52619  -0.52452  -0.52246  -0.52076  -0.51728
 Alpha  occ. eigenvalues --   -0.51557  -0.51211  -0.50972  -0.50813  -0.50758
 Alpha  occ. eigenvalues --   -0.50420  -0.50389  -0.50209  -0.49883  -0.49770
 Alpha  occ. eigenvalues --   -0.49698  -0.49532  -0.49402  -0.49162  -0.48931
 Alpha  occ. eigenvalues --   -0.48772  -0.48625  -0.48240  -0.48095  -0.47809
 Alpha  occ. eigenvalues --   -0.47439  -0.47253  -0.47115  -0.46961  -0.46757
 Alpha  occ. eigenvalues --   -0.46745  -0.46335  -0.46283  -0.45787  -0.45697
 Alpha  occ. eigenvalues --   -0.45634  -0.45468  -0.45253  -0.45107  -0.44874
 Alpha  occ. eigenvalues --   -0.44756  -0.44455  -0.44302  -0.43894  -0.43709
 Alpha  occ. eigenvalues --   -0.43553  -0.43169  -0.43061  -0.42876  -0.42750
 Alpha  occ. eigenvalues --   -0.42605  -0.42546  -0.42269  -0.42154  -0.42064
 Alpha  occ. eigenvalues --   -0.41990  -0.41586  -0.41559  -0.41048  -0.40402
 Alpha  occ. eigenvalues --   -0.40381  -0.40135  -0.40075  -0.39646  -0.39555
 Alpha  occ. eigenvalues --   -0.39470  -0.39217  -0.39115  -0.38743  -0.38447
 Alpha  occ. eigenvalues --   -0.38277  -0.37672  -0.37221  -0.36439  -0.36227
 Alpha  occ. eigenvalues --   -0.35592  -0.35389  -0.35386  -0.33882  -0.33160
 Alpha  occ. eigenvalues --   -0.32511  -0.32333  -0.32107  -0.31332  -0.25970
 Alpha  occ. eigenvalues --   -0.23390
 Alpha virt. eigenvalues --   -0.06853  -0.00636   0.01920   0.04486   0.05449
 Alpha virt. eigenvalues --    0.06159   0.07207   0.07690   0.07948   0.09149
 Alpha virt. eigenvalues --    0.10480   0.10966   0.11409   0.12120   0.12239

 Mulliken charges:
               1
     1  Mg   0.950221
     2  C   -0.002427
     3  C   -0.092620
     4  C   -0.057429
     5  C   -0.097927
     6  N   -0.289691
     7  C   -0.070683
     8  C   -0.046007
     9  C   -0.155843
    10  C    0.045578
    11  C    0.025076
    12  C    0.025153
    13  C    0.046893
    14  C    0.203439
    15  O   -0.292792
    16  O   -0.360651
    17  N   -0.573415
    18  C    0.230338
    19  C   -0.157786
    20  C   -0.064315
    21  C    0.176261
    22  C    0.068047
    23  C    0.056926
    24  O   -0.243513
    25  C   -0.029238
    26  N   -0.281923
    27  C    0.040510
    28  C   -0.118712
    29  C   -0.082486
    30  C    0.023058
    31  C    0.039414
    32  C   -0.017976
    33  C   -0.035003
    34  N   -0.421075
    35  C    0.154764
    36  C   -0.152207
    37  C   -0.028424
    38  C    0.144250
    39  C    0.092688
    40  C    0.132633
    41  O   -0.249825
    42  C   -0.092287
    43  C    0.288828
    44  O   -0.251913
    45  O   -0.405855
    46  C    0.151477
    47  C    0.284525
    48  C   -0.138890
    49  C   -0.246243
    50  C    0.019622
    51  C    0.020510
    52  C   -0.025612
    53  C    0.014070
    54  C   -0.143012
    55  C    0.004924
    56  C    0.008511
    57  C    0.005729
    58  C   -0.003204
    59  C   -0.229644
    60  C   -0.012944
    61  C    0.023470
    62  C    0.002870
    63  C   -0.011563
    64  C   -0.222962
    65  C    0.000971
    66  C   -0.013998
    67  H   -0.007735
    68  H    0.018885
    69  H   -0.015616
    70  H    0.045361
    71  H    0.040247
    72  H    0.044065
    73  H    0.037097
    74  H    0.041874
    75  H    0.032739
    76  H    0.058742
    77  H    0.060368
    78  H    0.065114
    79  H    0.055005
    80  H    0.030262
    81  H    0.060428
    82  H    0.053649
    83  H    0.050566
    84  H    0.059585
    85  H    0.047401
    86  H    0.033924
    87  H    0.061755
    88  H    0.028848
    89  H    0.038985
    90  H    0.034163
    91  H    0.024844
    92  H    0.022684
    93  H    0.040454
    94  H    0.046345
    95  H    0.029492
    96  H    0.045405
    97  H    0.072164
    98  H    0.083713
    99  H    0.043286
   100  H    0.042803
   101  H    0.056838
   102  H    0.054237
   103  H    0.043801
   104  H    0.020827
   105  H    0.032764
   106  H    0.047645
   107  H    0.059556
   108  H    0.025374
   109  H    0.022969
   110  H    0.021639
   111  H    0.036647
   112  H    0.011822
   113  H    0.011688
   114  H    0.013061
   115  H    0.027881
   116  H    0.030371
   117  H    0.028033
   118  H   -0.004129
   119  H    0.005471
   120  H    0.007779
   121  H    0.022851
   122  H    0.021444
   123  H    0.015586
   124  H    0.019380
   125  H    0.028357
   126  H    0.037104
   127  H    0.035468
   128  H    0.023362
   129  H    0.017495
   130  H    0.020848
   131  H    0.020552
   132  H    0.009950
   133  H   -0.000300
   134  H    0.022412
   135  H    0.024216
   136  H    0.018080
   137  H    0.020651
   138  H    0.031130
   139  H    0.041553
   140  H    0.028023
 Sum of Mulliken charges =  -0.00000

 Dipole moment (field-independent basis, Debye):
    X=              5.3547    Y=              4.2258    Z=             -1.8213  Tot=              7.0602
 Quadrupole moment (field-independent basis, Debye-Ang):
   XX=           -372.6823   YY=           -443.8160   ZZ=           -403.8175
   XY=            -31.1272   XZ=             -4.8778   YZ=              1.0343

 Normal termination of Gaussian 16 at Fri Apr 29 10:17:14 2022.
