 Gaussian 16, Revision A.03,
 Gaussian 16:  ES64L-G16RevA.03 25-Dec-2016

 --------------------
 #p ZINDO=(nstates=5)
 --------------------

 -----------------------------
 step_251_chromophore_15 ZINDO
 -----------------------------
 Symbolic Z-matrix:
 Charge =  0 Multiplicity = 1

                         Standard orientation:
 ---------------------------------------------------------------------
 Center     Atomic      Atomic             Coordinates (Angstroms)
 Number     Number       Type             X           Y           Z
 ---------------------------------------------------------------------
      1         12           0       -4.678869    0.962823   -0.198214
      2          6           0       -4.140775   -2.482547    0.397003
      3          6           0       -1.417031    1.328318   -0.201754
      4          6           0       -5.287486    4.173388    0.305656
      5          6           0       -8.088298    0.307853    0.560192
      6          7           0       -3.002057   -0.556528   -0.091668
      7          6           0       -2.982658   -1.831073    0.054793
      8          6           0       -1.572861   -2.394792   -0.217577
      9          6           0       -0.615861   -1.128123    0.067434
     10          6           0       -1.743742   -0.016244   -0.001764
     11          6           0        0.169085   -1.129381    1.438581
     12          6           0       -1.424481   -2.845479   -1.763459
     13          6           0       -0.510220   -4.051818   -2.153335
     14          6           0        0.719521   -4.324594   -1.210900
     15          8           0        0.656887   -4.764369   -0.043672
     16          8           0        1.881087   -4.036758   -1.886884
     17          7           0       -3.522524    2.567709   -0.186363
     18          6           0       -2.140096    2.490411   -0.264251
     19          6           0       -1.588334    3.890988   -0.250333
     20          6           0       -2.769773    4.736335   -0.134333
     21          6           0       -3.969209    3.907562    0.013767
     22          6           0       -0.093997    4.148432   -0.296083
     23          6           0       -2.811862    6.248458   -0.155833
     24          8           0       -3.838617    6.926318   -0.010633
     25          6           0       -1.559655    6.988001   -0.401873
     26          7           0       -6.525566    2.130148    0.269983
     27          6           0       -6.437331    3.433907    0.461857
     28          6           0       -7.891499    4.084935    0.465284
     29          6           0       -8.799977    2.743469    0.575849
     30          6           0       -7.743214    1.652915    0.422188
     31          6           0       -8.107728    5.147278    1.593229
     32          6           0       -9.968862    2.561383   -0.447187
     33          6           0      -11.372429    2.642709    0.095784
     34          7           0       -5.975811   -0.757528    0.162168
     35          6           0       -7.325819   -0.810049    0.446966
     36          6           0       -7.699601   -2.124520    0.765754
     37          6           0       -6.467469   -2.804698    0.797367
     38          6           0       -5.430307   -1.965818    0.464680
     39          6           0       -9.016504   -2.631177    1.079227
     40          6           0       -5.952532   -4.107307    0.971218
     41          8           0       -6.439683   -5.256420    1.151230
     42          6           0       -4.372310   -3.893503    0.985804
     43          6           0       -3.698059   -4.982540    0.234986
     44          8           0       -3.797629   -5.249313   -0.960858
     45          8           0       -2.795305   -5.621555    1.142334
     46          6           0       -2.012747   -6.750761    0.623800
     47          6           0        3.169392   -4.224870   -1.294666
     48          6           0        4.209405   -3.458714   -1.957398
     49          6           0        5.366095   -2.927943   -1.508508
     50          6           0        5.953136   -3.342633   -0.119272
     51          6           0        6.204623   -1.871260   -2.311850
     52          6           0        5.673759   -0.423993   -2.068988
     53          6           0        6.271231    0.678260   -3.050953
     54          6           0        7.300119    1.727256   -2.493808
     55          6           0        6.666981    3.113337   -2.597645
     56          6           0        8.658151    1.752370   -3.223932
     57          6           0        9.810036    2.334312   -2.489513
     58          6           0       10.659849    1.315400   -1.728149
     59          6           0       10.854422    1.797589   -0.285593
     60          6           0       11.581198    3.222500   -0.192651
     61          6           0       11.715893    0.690379    0.458639
     62          6           0       11.015881    0.215328    1.786548
     63          6           0       11.695644    0.821871    3.038439
     64          6           0       11.902122   -0.038498    4.311151
     65          6           0       10.764856    0.164258    5.342374
     66          6           0       13.197359    0.427551    5.027733
     67          1           0       -0.333971    1.380207   -0.334406
     68          1           0       -5.478827    5.242952    0.408540
     69          1           0       -9.150848    0.105274    0.714249
     70          1           0       -1.335626   -3.068158    0.605662
     71          1           0        0.184892   -1.134847   -0.671263
     72          1           0       -0.208475   -1.888366    2.123438
     73          1           0        0.043018   -0.188796    1.974492
     74          1           0        1.208765   -1.333337    1.182758
     75          1           0       -1.141056   -1.998998   -2.389147
     76          1           0       -2.422725   -3.056973   -2.147222
     77          1           0       -0.085346   -3.974811   -3.154676
     78          1           0       -1.091838   -4.954843   -1.963832
     79          1           0        0.164730    4.944825   -0.994805
     80          1           0        0.486309    3.263052   -0.555884
     81          1           0        0.274363    4.306724    0.717202
     82          1           0       -0.804614    6.742972    0.345638
     83          1           0       -1.755162    8.060266   -0.387184
     84          1           0       -1.101037    6.827452   -1.377577
     85          1           0       -8.150291    4.540129   -0.490642
     86          1           0       -9.136395    2.558584    1.597081
     87          1           0       -7.240348    5.182537    2.252647
     88          1           0       -9.061028    4.813049    2.003132
     89          1           0       -8.338655    6.088446    1.095934
     90          1           0       -9.860547    1.569986   -0.887630
     91          1           0       -9.855392    3.281017   -1.258206
     92          1           0      -11.223682    2.988513    1.117860
     93          1           0      -11.770778    1.628278    0.136942
     94          1           0      -11.996854    3.368850   -0.423236
     95          1           0       -9.675992   -2.306323    0.274904
     96          1           0       -9.528421   -2.149089    1.912125
     97          1           0       -8.990593   -3.720381    1.116750
     98          1           0       -4.040822   -3.894796    2.024666
     99          1           0       -1.429296   -7.213893    1.419965
    100          1           0       -1.236325   -6.358883   -0.033503
    101          1           0       -2.692430   -7.506562    0.231649
    102          1           0        3.465615   -5.273303   -1.273869
    103          1           0        3.038977   -3.873112   -0.270979
    104          1           0        3.929313   -3.138170   -2.960773
    105          1           0        5.313660   -3.991877    0.478000
    106          1           0        6.033246   -2.383046    0.392060
    107          1           0        6.850412   -3.909433   -0.370995
    108          1           0        6.183907   -2.157849   -3.362640
    109          1           0        7.267389   -2.028383   -2.126693
    110          1           0        6.119773   -0.223696   -1.094902
    111          1           0        4.601009   -0.239518   -2.025193
    112          1           0        5.385631    1.176660   -3.445870
    113          1           0        6.646021    0.156697   -3.932360
    114          1           0        7.634878    1.417799   -1.504241
    115          1           0        7.394707    3.884661   -2.343566
    116          1           0        5.767991    3.287242   -2.005513
    117          1           0        6.363993    3.247674   -3.636287
    118          1           0        8.554186    2.301576   -4.159428
    119          1           0        8.896684    0.785049   -3.666513
    120          1           0        9.469914    3.017638   -1.710615
    121          1           0       10.519073    2.842974   -3.142179
    122          1           0       11.643545    1.154726   -2.168324
    123          1           0       10.153421    0.350508   -1.711403
    124          1           0        9.875920    1.945089    0.171088
    125          1           0       10.700771    3.865967   -0.205765
    126          1           0       12.296974    3.363805   -1.001832
    127          1           0       12.081252    3.495071    0.736569
    128          1           0       12.702830    1.132944    0.596730
    129          1           0       11.825404   -0.234518   -0.105887
    130          1           0       10.992703   -0.871152    1.872349
    131          1           0        9.997417    0.604388    1.771589
    132          1           0       11.294171    1.781268    3.364340
    133          1           0       12.721373    1.097289    2.792166
    134          1           0       11.918758   -1.084361    4.004638
    135          1           0       11.104870    0.075081    6.373903
    136          1           0        9.987105   -0.591188    5.230121
    137          1           0       10.242937    1.106868    5.174988
    138          1           0       13.121592    0.038404    6.043698
    139          1           0       13.430128    1.490089    4.959247
    140          1           0       13.965771   -0.094127    4.457338
 ---------------------------------------------------------------------

 SCF Done:  E(RZINDO/S) =  -474.202337312     A.U. after   20 cycles

 Excitation energies and oscillator strengths:

 Excited State   1:      Singlet-A      1.3076 eV  948.21 nm  f=0.5578  <S**2>=0.000
     175 ->178         0.22076
     176 ->177         0.65391
 This state for optimization and/or second-order correction.
 Total Energy, E(CIS/TDA) =  -474.154285271
 Copying the excited state density for this state as the 1-particle RhoCI density.

 Excited State   2:      Singlet-A      1.9125 eV  648.29 nm  f=0.0156  <S**2>=0.000
     175 ->177         0.51953
     176 ->178        -0.45957

 Excited State   3:      Singlet-A      2.9002 eV  427.50 nm  f=0.1619  <S**2>=0.000
     170 ->177         0.32589
     170 ->179        -0.28604
     170 ->180        -0.29499
     170 ->186        -0.13982
     170 ->187         0.12184
     175 ->177        -0.15073
     176 ->178        -0.18540

 Excited State   4:      Singlet-A      2.9732 eV  417.00 nm  f=0.0320  <S**2>=0.000
     168 ->179        -0.10112
     169 ->177         0.26473
     169 ->178         0.12812
     169 ->179         0.36562
     169 ->180        -0.28152
     169 ->186         0.22932
     169 ->187         0.12874
     170 ->179         0.10109
     176 ->179        -0.13954

 Excited State   5:      Singlet-A      3.0167 eV  410.99 nm  f=0.9646  <S**2>=0.000
     169 ->179         0.11911
     170 ->177         0.11134
     170 ->180        -0.11526
     172 ->177        -0.12609
     175 ->177         0.37066
     176 ->178         0.43648
     176 ->179         0.19582

 The electronic state is 1-A.
 Alpha  occ. eigenvalues --   -1.86332  -1.81248  -1.79270  -1.72272  -1.70475
 Alpha  occ. eigenvalues --   -1.68528  -1.66429  -1.59762  -1.58274  -1.56963
 Alpha  occ. eigenvalues --   -1.55104  -1.51283  -1.48968  -1.47695  -1.46482
 Alpha  occ. eigenvalues --   -1.44373  -1.40913  -1.40015  -1.39559  -1.39120
 Alpha  occ. eigenvalues --   -1.36213  -1.35596  -1.33504  -1.32166  -1.29544
 Alpha  occ. eigenvalues --   -1.26282  -1.25950  -1.22134  -1.21028  -1.19110
 Alpha  occ. eigenvalues --   -1.17878  -1.15130  -1.14446  -1.14134  -1.13196
 Alpha  occ. eigenvalues --   -1.12812  -1.10801  -1.10449  -1.05129  -1.03247
 Alpha  occ. eigenvalues --   -1.02827  -1.00906  -1.00101  -0.97975  -0.96218
 Alpha  occ. eigenvalues --   -0.95356  -0.95166  -0.94129  -0.93451  -0.93022
 Alpha  occ. eigenvalues --   -0.90505  -0.89771  -0.88927  -0.88836  -0.87243
 Alpha  occ. eigenvalues --   -0.86845  -0.85265  -0.83419  -0.82165  -0.80742
 Alpha  occ. eigenvalues --   -0.79486  -0.78178  -0.77143  -0.76246  -0.76211
 Alpha  occ. eigenvalues --   -0.75849  -0.74667  -0.74503  -0.73507  -0.73253
 Alpha  occ. eigenvalues --   -0.72881  -0.72087  -0.71329  -0.71202  -0.70407
 Alpha  occ. eigenvalues --   -0.70208  -0.69622  -0.69382  -0.68782  -0.68140
 Alpha  occ. eigenvalues --   -0.67555  -0.66827  -0.66754  -0.66004  -0.65582
 Alpha  occ. eigenvalues --   -0.65383  -0.64541  -0.64248  -0.63819  -0.63456
 Alpha  occ. eigenvalues --   -0.63087  -0.62838  -0.62675  -0.62350  -0.62073
 Alpha  occ. eigenvalues --   -0.61819  -0.61467  -0.61015  -0.60711  -0.60285
 Alpha  occ. eigenvalues --   -0.59886  -0.59832  -0.59053  -0.58913  -0.58456
 Alpha  occ. eigenvalues --   -0.58054  -0.57636  -0.56945  -0.56780  -0.56429
 Alpha  occ. eigenvalues --   -0.56300  -0.55657  -0.55138  -0.55050  -0.54702
 Alpha  occ. eigenvalues --   -0.54593  -0.54157  -0.53771  -0.53393  -0.53125
 Alpha  occ. eigenvalues --   -0.52721  -0.52680  -0.52107  -0.51760  -0.51331
 Alpha  occ. eigenvalues --   -0.50648  -0.50535  -0.50108  -0.49778  -0.49640
 Alpha  occ. eigenvalues --   -0.49279  -0.49207  -0.48959  -0.48883  -0.48688
 Alpha  occ. eigenvalues --   -0.48433  -0.48301  -0.48069  -0.47979  -0.47627
 Alpha  occ. eigenvalues --   -0.47437  -0.47207  -0.47128  -0.46916  -0.46621
 Alpha  occ. eigenvalues --   -0.46562  -0.45863  -0.45761  -0.45422  -0.45264
 Alpha  occ. eigenvalues --   -0.45137  -0.44845  -0.44761  -0.44609  -0.44347
 Alpha  occ. eigenvalues --   -0.43901  -0.43650  -0.43270  -0.42367  -0.42190
 Alpha  occ. eigenvalues --   -0.41879  -0.41135  -0.41034  -0.39640  -0.38931
 Alpha  occ. eigenvalues --   -0.38232  -0.36587  -0.35507  -0.35179  -0.34697
 Alpha  occ. eigenvalues --   -0.33096  -0.32704  -0.32288  -0.32226  -0.26519
 Alpha  occ. eigenvalues --   -0.21966
 Alpha virt. eigenvalues --   -0.08198  -0.02749  -0.00699   0.01336   0.01456
 Alpha virt. eigenvalues --    0.01777   0.02607   0.02930   0.04538   0.05035
 Alpha virt. eigenvalues --    0.06482   0.06971   0.07273   0.07795   0.08241

 Mulliken charges:
               1
     1  Mg   0.426025
     2  C   -0.053097
     3  C   -0.064721
     4  C   -0.037114
     5  C   -0.056804
     6  N   -0.268927
     7  C    0.169351
     8  C    0.002317
     9  C   -0.018197
    10  C    0.105847
    11  C   -0.053477
    12  C   -0.010204
    13  C    0.007843
    14  C    0.458477
    15  O   -0.530880
    16  O   -0.272355
    17  N   -0.337776
    18  C    0.105304
    19  C   -0.004161
    20  C   -0.039668
    21  C    0.120703
    22  C   -0.036599
    23  C    0.330031
    24  O   -0.531858
    25  C   -0.028576
    26  N   -0.243510
    27  C    0.115209
    28  C   -0.008787
    29  C   -0.010810
    30  C    0.133786
    31  C   -0.058292
    32  C   -0.026500
    33  C   -0.058166
    34  N   -0.359106
    35  C    0.107715
    36  C    0.053945
    37  C   -0.044763
    38  C    0.130161
    39  C   -0.033980
    40  C    0.322690
    41  O   -0.537858
    42  C    0.051834
    43  C    0.486508
    44  O   -0.517370
    45  O   -0.288375
    46  C    0.070603
    47  C    0.123136
    48  C   -0.080579
    49  C   -0.028156
    50  C   -0.052469
    51  C   -0.014856
    52  C   -0.032927
    53  C   -0.046273
    54  C   -0.001883
    55  C   -0.047965
    56  C   -0.027804
    57  C   -0.033024
    58  C   -0.032442
    59  C   -0.018274
    60  C   -0.066841
    61  C   -0.044724
    62  C   -0.035993
    63  C   -0.041424
    64  C   -0.013812
    65  C   -0.060918
    66  C   -0.059110
    67  H    0.016928
    68  H    0.032237
    69  H    0.018681
    70  H    0.050647
    71  H    0.036012
    72  H    0.025858
    73  H    0.022264
    74  H    0.024214
    75  H    0.023317
    76  H    0.030905
    77  H    0.043856
    78  H    0.056241
    79  H    0.033084
    80  H    0.022581
    81  H    0.034196
    82  H    0.032765
    83  H    0.031155
    84  H    0.035141
    85  H    0.038684
    86  H    0.034585
    87  H    0.041410
    88  H    0.021638
    89  H    0.024463
    90  H    0.019862
    91  H    0.020500
    92  H    0.015191
    93  H    0.024024
    94  H    0.027792
    95  H    0.024134
    96  H    0.036693
    97  H    0.041643
    98  H    0.056810
    99  H    0.028276
   100  H    0.048923
   101  H    0.049632
   102  H    0.050524
   103  H    0.045141
   104  H    0.018017
   105  H    0.022909
   106  H    0.032261
   107  H    0.035676
   108  H    0.017480
   109  H    0.024807
   110  H    0.014795
   111  H    0.035697
   112  H    0.012312
   113  H    0.017557
   114  H    0.024702
   115  H    0.014244
   116  H    0.015069
   117  H    0.019165
   118  H    0.002802
   119  H    0.012418
   120  H    0.023326
   121  H    0.017495
   122  H    0.020389
   123  H    0.014543
   124  H    0.025406
   125  H    0.015277
   126  H    0.026881
   127  H    0.020733
   128  H    0.025715
   129  H    0.016309
   130  H    0.023480
   131  H    0.019321
   132  H    0.019225
   133  H    0.007145
   134  H    0.026711
   135  H    0.020247
   136  H    0.006258
   137  H    0.019213
   138  H    0.022066
   139  H    0.030724
   140  H    0.009538
 Sum of Mulliken charges =  -0.00000

 Dipole moment (field-independent basis, Debye):
    X=              6.1197    Y=              4.7140    Z=             -0.8472  Tot=              7.7711
 N-N= 4.368707625399D+03 E-N= 0.000000000000D+00  KE=-9.411625158100D+03
 Leave Link  601 at Fri Apr 29 10:31:44 2022, MaxMem=  6710886400 cpu:               0.8 elap:               0.0
 (Enter /sw/apps/gaussian-16.0/g16/l9999.exe)
 1\1\GINC-BP1-COMPUTE156\SP\RZINDO CIS\STO-3G\C55H74Mg1N4O6\OF15641\29-
 Apr-2022\0\\#p ZINDO=(nstates=5)\\step_251_chromophore_15 ZINDO\\0,1\M
 g,0,46.813,34.806,27.837\C,0,45.176,32.791,30.24\C,0,46.719,37.249,30.
 027\C,0,47.338,36.806,25.257\C,0,46.111,32.194,25.532\N,0,46.148,34.85
 1,30.002\C,0,45.624,33.972,30.776\C,0,45.624,34.458,32.24\C,0,45.673,3
 6.063,32.088\C,0,46.145,36.098,30.575\C,0,44.318,36.838,32.332\C,0,46.
 95,33.949,33.013\C,0,46.9,33.619,34.54\C,0,45.843,34.417,35.389\O,0,44

 Normal termination of Gaussian 16 at Fri Apr 29 10:31:44 2022.
