 Gaussian 16, Revision A.03,
 Gaussian 16:  ES64L-G16RevA.03 25-Dec-2016

 ------------------------------
 #p blyp/Def2SVP td=(nstates=5)
 ------------------------------

 --------------------------------------------------
 step_301_chromophore_13 TDDFT with blyp functional
 --------------------------------------------------
 Symbolic Z-matrix:
 Charge =  0 Multiplicity = 1

                         Standard orientation:
 ---------------------------------------------------------------------
 Center     Atomic      Atomic             Coordinates (Angstroms)
 Number     Number       Type             X           Y           Z
 ---------------------------------------------------------------------
      1         12           0       -6.065485    0.462838   -0.116134
      2          6           0       -3.843936   -2.356617    0.044818
      3          6           0       -3.424491    2.521006    0.418358
      4          6           0       -8.304947    2.939432    0.243842
      5          6           0       -8.669156   -1.875793   -0.667136
      6          7           0       -3.881801    0.072130    0.141100
      7          6           0       -3.219496   -1.132014    0.299718
      8          6           0       -1.706689   -0.878175    0.604433
      9          6           0       -1.614571    0.684469    0.827512
     10          6           0       -3.043197    1.140071    0.479545
     11          6           0       -1.289930    1.207052    2.198274
     12          6           0       -0.665835   -1.358481   -0.531749
     13          6           0        0.676006   -1.887100    0.044828
     14          6           0        1.966352   -1.512173   -0.672312
     15          8           0        2.027377   -0.653138   -1.516320
     16          8           0        3.080422   -2.258650   -0.295454
     17          7           0       -5.890156    2.544962   -0.097871
     18          6           0       -4.689216    3.175599    0.185414
     19          6           0       -4.997688    4.633783    0.349221
     20          6           0       -6.451968    4.760850    0.405724
     21          6           0       -6.967330    3.388389    0.148414
     22          6           0       -3.897258    5.707911    0.611893
     23          6           0       -7.251384    6.021175    0.802564
     24          8           0       -8.481302    6.019904    0.851514
     25          6           0       -6.518216    7.287439    1.160307
     26          7           0       -8.163125    0.473670   -0.061449
     27          6           0       -8.872150    1.613393    0.165550
     28          6           0      -10.407160    1.374951    0.008805
     29          6           0      -10.504085   -0.063575   -0.550140
     30          6           0       -9.041941   -0.531087   -0.382666
     31          6           0      -11.305326    1.693476    1.277305
     32          6           0      -11.099950   -0.316049   -1.958448
     33          6           0      -10.197757    0.035542   -3.210958
     34          7           0       -6.345097   -1.645968   -0.083640
     35          6           0       -7.420006   -2.404214   -0.472231
     36          6           0       -7.054545   -3.836321   -0.561572
     37          6           0       -5.643894   -3.853940   -0.437895
     38          6           0       -5.269718   -2.493252   -0.170741
     39          6           0       -8.015571   -4.987382   -0.777716
     40          6           0       -4.429779   -4.726085   -0.459895
     41          8           0       -4.246210   -5.914824   -0.687613
     42          6           0       -3.259595   -3.726730   -0.038982
     43          6           0       -2.668138   -4.204783    1.223829
     44          8           0       -3.253454   -4.253034    2.269536
     45          8           0       -1.495734   -4.771395    1.006515
     46          6           0       -0.745297   -5.298378    2.167196
     47          6           0        4.280874   -2.098880   -1.156731
     48          6           0        5.231980   -1.111913   -0.497480
     49          6           0        6.578296   -1.101996   -0.334386
     50          6           0        7.620802   -2.006955   -0.948499
     51          6           0        7.200632    0.063324    0.415219
     52          6           0        7.355502    1.410149   -0.386465
     53          6           0        8.616411    2.236041    0.058204
     54          6           0        9.533654    2.321043   -1.164746
     55          6           0        9.054825    3.180219   -2.365907
     56          6           0       10.308687    0.979719   -1.452909
     57          6           0       11.555852    1.266818   -2.329382
     58          6           0       12.728068    0.393306   -1.897397
     59          6           0       13.890885    1.229364   -1.250553
     60          6           0       14.755113    1.947857   -2.353657
     61          6           0       14.846584    0.431714   -0.305694
     62          6           0       14.505207    0.725538    1.170837
     63          6           0       14.082364   -0.473782    1.987924
     64          6           0       12.658677   -0.318073    2.364447
     65          6           0       12.516814    0.173367    3.821796
     66          6           0       11.960669   -1.644001    2.175992
     67          1           0       -2.551993    3.138236    0.641391
     68          1           0       -9.103076    3.637825    0.504209
     69          1           0       -9.445836   -2.597025   -0.931537
     70          1           0       -1.488627   -1.413777    1.529107
     71          1           0       -0.967254    1.207752    0.122564
     72          1           0       -0.915919    0.336314    2.735926
     73          1           0       -2.083470    1.493473    2.888360
     74          1           0       -0.426815    1.866571    2.100839
     75          1           0       -0.554948   -0.501453   -1.196646
     76          1           0       -1.238753   -2.102126   -1.084291
     77          1           0        0.614121   -2.963843   -0.114018
     78          1           0        0.612733   -1.753875    1.124536
     79          1           0       -4.068797    6.085667    1.620444
     80          1           0       -4.120641    6.487189   -0.116559
     81          1           0       -2.905768    5.294605    0.427645
     82          1           0       -5.754886    7.264775    1.937942
     83          1           0       -7.226187    7.997682    1.587526
     84          1           0       -6.123605    7.595033    0.191052
     85          1           0      -10.773870    2.049827   -0.764451
     86          1           0      -11.000972   -0.751940    0.133363
     87          1           0      -12.052491    2.364736    0.855364
     88          1           0      -10.694855    2.087770    2.089549
     89          1           0      -11.797427    0.742879    1.482088
     90          1           0      -11.972489    0.332580   -2.035183
     91          1           0      -11.451722   -1.344814   -1.879102
     92          1           0      -10.751688    0.626357   -3.939998
     93          1           0       -9.900912   -0.855307   -3.763182
     94          1           0       -9.220519    0.483545   -3.029649
     95          1           0       -8.405267   -4.933398   -1.793994
     96          1           0       -8.829141   -5.060297   -0.056824
     97          1           0       -7.344035   -5.836786   -0.901975
     98          1           0       -2.464146   -3.917621   -0.759604
     99          1           0       -0.160797   -4.445155    2.511958
    100          1           0       -0.096719   -6.123967    1.873804
    101          1           0       -1.332235   -5.652175    3.015287
    102          1           0        3.966559   -1.817399   -2.161922
    103          1           0        4.859842   -3.021374   -1.195161
    104          1           0        4.705930   -0.372691    0.105977
    105          1           0        8.266421   -1.435129   -1.615162
    106          1           0        7.173951   -2.777145   -1.576984
    107          1           0        8.217695   -2.591892   -0.248125
    108          1           0        8.188733   -0.145468    0.825253
    109          1           0        6.619664    0.283530    1.310746
    110          1           0        6.487020    1.921555    0.030300
    111          1           0        7.344201    1.286201   -1.469880
    112          1           0        9.125860    1.854363    0.942459
    113          1           0        8.276467    3.270146    0.114599
    114          1           0       10.375942    2.830489   -0.697852
    115          1           0        9.493816    2.635617   -3.201978
    116          1           0        9.357844    4.217175   -2.228983
    117          1           0        7.979908    3.140944   -2.540473
    118          1           0        9.562308    0.277933   -1.824472
    119          1           0       10.696062    0.726789   -0.466185
    120          1           0       11.864261    2.301752   -2.485079
    121          1           0       11.275081    1.091991   -3.368458
    122          1           0       13.037783   -0.058534   -2.839188
    123          1           0       12.313581   -0.431199   -1.315803
    124          1           0       13.410676    2.030376   -0.687365
    125          1           0       14.149625    1.829961   -3.252069
    126          1           0       15.704457    1.473797   -2.600656
    127          1           0       14.855820    3.020081   -2.186184
    128          1           0       15.897211    0.621893   -0.525722
    129          1           0       14.756774   -0.643670   -0.455355
    130          1           0       13.823141    1.574021    1.233499
    131          1           0       15.427882    1.145084    1.569567
    132          1           0       14.706720   -0.523280    2.879621
    133          1           0       14.207979   -1.373807    1.385282
    134          1           0       12.171098    0.434739    1.744037
    135          1           0       11.926918    1.084391    3.718737
    136          1           0       13.488451    0.533861    4.160050
    137          1           0       12.075040   -0.552598    4.502917
    138          1           0       11.418737   -1.475935    1.244180
    139          1           0       11.289432   -1.770070    3.025447
    140          1           0       12.594202   -2.525756    2.271300
 ---------------------------------------------------------------------

 SCF Done:  E(RB-LYP) =  -3007.35188587     A.U. after   21 cycles

 Excitation energies and oscillator strengths:

 Excited State   1:      Singlet-A      1.7729 eV  699.31 nm  f=0.2897  <S**2>=0.000
     245 -> 248        0.20204
     246 -> 247        0.68612
     246 <- 247       -0.14804
 This state for optimization and/or second-order correction.
 Total Energy, E(TD-HF/TD-DFT) =  -3007.28673136
 Copying the excited state density for this state as the 1-particle RhoCI density.

 Excited State   2:      Singlet-A      1.9931 eV  622.07 nm  f=0.0486  <S**2>=0.000
     245 -> 247        0.63339
     246 -> 248       -0.28593

 Excited State   3:      Singlet-A      2.0899 eV  593.26 nm  f=0.0007  <S**2>=0.000
     244 -> 247        0.70585

 Excited State   4:      Singlet-A      2.2644 eV  547.54 nm  f=0.0001  <S**2>=0.000
     243 -> 247        0.70592

 Excited State   5:      Singlet-A      2.4579 eV  504.43 nm  f=0.0001  <S**2>=0.000
     241 -> 247       -0.11192
     242 -> 247        0.69817

 The electronic state is 1-A.
 Alpha  occ. eigenvalues --  -46.27277 -18.82575 -18.81925 -18.77271 -18.76609
 Alpha  occ. eigenvalues --  -18.75576 -18.75419 -14.03379 -14.03244 -14.01399
 Alpha  occ. eigenvalues --  -14.00839 -10.04706 -10.02962 -10.00505 -10.00185
 Alpha  occ. eigenvalues --   -9.98278  -9.98232  -9.96843  -9.96711  -9.96570
 Alpha  occ. eigenvalues --   -9.96480  -9.96390  -9.96343  -9.94952  -9.94828
 Alpha  occ. eigenvalues --   -9.94750  -9.94674  -9.94380  -9.94157  -9.93720
 Alpha  occ. eigenvalues --   -9.93619  -9.93594  -9.93515  -9.93482  -9.93455
 Alpha  occ. eigenvalues --   -9.93445  -9.93443  -9.93289  -9.93243  -9.93215
 Alpha  occ. eigenvalues --   -9.92467  -9.92397  -9.92354  -9.92347  -9.92324
 Alpha  occ. eigenvalues --   -9.92308  -9.92287  -9.92142  -9.92056  -9.91822
 Alpha  occ. eigenvalues --   -9.91700  -9.91693  -9.91625  -9.91478  -9.91451
 Alpha  occ. eigenvalues --   -9.91422  -9.91263  -9.91234  -9.91196  -9.90930
 Alpha  occ. eigenvalues --   -9.90921  -9.90784  -9.90605  -9.90461  -9.90326
 Alpha  occ. eigenvalues --   -9.90127  -2.91803  -1.72254  -1.71663  -1.71524
 Alpha  occ. eigenvalues --   -0.99370  -0.97771  -0.91643  -0.91069  -0.90168
 Alpha  occ. eigenvalues --   -0.90122  -0.85895  -0.84994  -0.84368  -0.83655
 Alpha  occ. eigenvalues --   -0.75065  -0.73827  -0.73449  -0.72581  -0.72325
 Alpha  occ. eigenvalues --   -0.71995  -0.71092  -0.70882  -0.70501  -0.69541
 Alpha  occ. eigenvalues --   -0.69293  -0.68891  -0.68093  -0.67620  -0.66865
 Alpha  occ. eigenvalues --   -0.66336  -0.65591  -0.65215  -0.65051  -0.64177
 Alpha  occ. eigenvalues --   -0.63934  -0.62456  -0.62109  -0.61667  -0.60931
 Alpha  occ. eigenvalues --   -0.60648  -0.60346  -0.59602  -0.59516  -0.59253
 Alpha  occ. eigenvalues --   -0.58177  -0.57144  -0.56574  -0.55661  -0.55550
 Alpha  occ. eigenvalues --   -0.54133  -0.53581  -0.52601  -0.52181  -0.51292
 Alpha  occ. eigenvalues --   -0.51164  -0.50629  -0.50534  -0.50179  -0.50033
 Alpha  occ. eigenvalues --   -0.49111  -0.49057  -0.48462  -0.46996  -0.46562
 Alpha  occ. eigenvalues --   -0.45971  -0.45743  -0.45465  -0.44908  -0.44612
 Alpha  occ. eigenvalues --   -0.44109  -0.43519  -0.42971  -0.42569  -0.42448
 Alpha  occ. eigenvalues --   -0.41996  -0.41815  -0.41710  -0.41509  -0.41357
 Alpha  occ. eigenvalues --   -0.41044  -0.40582  -0.40478  -0.40158  -0.40129
 Alpha  occ. eigenvalues --   -0.39941  -0.39611  -0.39394  -0.39269  -0.39200
 Alpha  occ. eigenvalues --   -0.38998  -0.38773  -0.38645  -0.38488  -0.38034
 Alpha  occ. eigenvalues --   -0.37957  -0.37828  -0.37699  -0.37281  -0.37204
 Alpha  occ. eigenvalues --   -0.37043  -0.36983  -0.36911  -0.36573  -0.36351
 Alpha  occ. eigenvalues --   -0.36263  -0.36174  -0.36055  -0.35737  -0.35603
 Alpha  occ. eigenvalues --   -0.35432  -0.35318  -0.35136  -0.35026  -0.34826
 Alpha  occ. eigenvalues --   -0.34672  -0.34336  -0.34124  -0.34055  -0.33818
 Alpha  occ. eigenvalues --   -0.33613  -0.33409  -0.33296  -0.33279  -0.32920
 Alpha  occ. eigenvalues --   -0.32750  -0.32662  -0.32576  -0.32387  -0.32076
 Alpha  occ. eigenvalues --   -0.32036  -0.31733  -0.31517  -0.31377  -0.31332
 Alpha  occ. eigenvalues --   -0.31126  -0.31093  -0.30980  -0.30843  -0.30545
 Alpha  occ. eigenvalues --   -0.30405  -0.30147  -0.30033  -0.30024  -0.29960
 Alpha  occ. eigenvalues --   -0.29850  -0.29820  -0.29571  -0.29442  -0.29189
 Alpha  occ. eigenvalues --   -0.29124  -0.28770  -0.28657  -0.28061  -0.27858
 Alpha  occ. eigenvalues --   -0.27609  -0.27464  -0.27214  -0.26739  -0.26299
 Alpha  occ. eigenvalues --   -0.26065  -0.25956  -0.25520  -0.25362  -0.25201
 Alpha  occ. eigenvalues --   -0.24367  -0.24087  -0.23982  -0.23693  -0.23500
 Alpha  occ. eigenvalues --   -0.23251  -0.22441  -0.21834  -0.20942  -0.20697
 Alpha  occ. eigenvalues --   -0.20236  -0.20180  -0.19362  -0.18753  -0.17024
 Alpha  occ. eigenvalues --   -0.15352
 Alpha virt. eigenvalues --   -0.11149  -0.07150  -0.06170  -0.04810  -0.03006
 Alpha virt. eigenvalues --   -0.02315  -0.02095  -0.01612  -0.00888  -0.00188
 Alpha virt. eigenvalues --    0.00355   0.00854   0.01020   0.02211   0.02534

 Mulliken charges:
               1
     1  Mg   0.678433
     2  C    0.062436
     3  C   -0.028418
     4  C   -0.037392
     5  C   -0.095932
     6  N   -0.236991
     7  C   -0.084031
     8  C    0.014864
     9  C   -0.019303
    10  C   -0.019792
    11  C    0.156538
    12  C    0.118159
    13  C    0.116138
    14  C    0.090741
    15  O   -0.171230
    16  O   -0.296066
    17  N   -0.316981
    18  C    0.160256
    19  C   -0.187975
    20  C    0.019379
    21  C    0.134491
    22  C    0.189746
    23  C   -0.062844
    24  O   -0.166488
    25  C    0.121754
    26  N   -0.223659
    27  C    0.018716
    28  C   -0.027147
    29  C    0.041237
    30  C   -0.005685
    31  C    0.145685
    32  C    0.102428
    33  C    0.059692
    34  N   -0.242987
    35  C    0.140663
    36  C   -0.210809
    37  C    0.047484
    38  C    0.086176
    39  C    0.189324
    40  C   -0.000477
    41  O   -0.119961
    42  C    0.021964
    43  C    0.053451
    44  O   -0.169746
    45  O   -0.239421
    46  C    0.213429
    47  C    0.338552
    48  C   -0.098935
    49  C   -0.120301
    50  C    0.139622
    51  C    0.093816
    52  C    0.069266
    53  C    0.124378
    54  C   -0.157111
    55  C    0.137387
    56  C    0.091873
    57  C    0.036882
    58  C    0.124420
    59  C   -0.083036
    60  C    0.104000
    61  C    0.131300
    62  C    0.052365
    63  C    0.162796
    64  C   -0.170875
    65  C    0.128841
    66  C    0.124584
    67  H   -0.069735
    68  H   -0.043035
    69  H   -0.070138
    70  H   -0.021194
    71  H   -0.004230
    72  H   -0.038284
    73  H    0.004250
    74  H   -0.006706
    75  H   -0.007396
    76  H   -0.022240
    77  H    0.009141
    78  H    0.012697
    79  H    0.014293
    80  H   -0.001403
    81  H   -0.001002
    82  H    0.005390
    83  H   -0.009027
    84  H    0.015016
    85  H   -0.019704
    86  H   -0.033980
    87  H   -0.002444
    88  H    0.015422
    89  H   -0.016542
    90  H   -0.020015
    91  H   -0.012676
    92  H   -0.007156
    93  H   -0.014664
    94  H    0.009038
    95  H   -0.010705
    96  H    0.016648
    97  H   -0.000498
    98  H   -0.007831
    99  H    0.006660
   100  H    0.025151
   101  H    0.027674
   102  H    0.011028
   103  H   -0.009391
   104  H   -0.036915
   105  H   -0.000247
   106  H   -0.038192
   107  H    0.005802
   108  H   -0.043250
   109  H   -0.029070
   110  H   -0.027673
   111  H   -0.007322
   112  H   -0.023411
   113  H   -0.042378
   114  H   -0.053115
   115  H   -0.018543
   116  H    0.001167
   117  H   -0.013035
   118  H   -0.012410
   119  H   -0.024796
   120  H   -0.031625
   121  H   -0.041739
   122  H   -0.044347
   123  H   -0.030484
   124  H   -0.028540
   125  H   -0.034929
   126  H   -0.008706
   127  H   -0.011552
   128  H   -0.037489
   129  H   -0.042533
   130  H   -0.035131
   131  H   -0.052243
   132  H   -0.037640
   133  H   -0.036196
   134  H   -0.021144
   135  H   -0.026864
   136  H   -0.027375
   137  H   -0.005983
   138  H   -0.000686
   139  H   -0.041197
   140  H   -0.012298
 Sum of Mulliken charges =  -0.00000

 Dipole moment (field-independent basis, Debye):
    X=              3.5302    Y=              1.8887    Z=              0.0633  Tot=              4.0042
 Quadrupole moment (field-independent basis, Debye-Ang):
   XX=           -373.3024   YY=           -424.9375   ZZ=           -406.9970
   XY=              3.5257   XZ=             13.1053   YZ=              2.0384

 Normal termination of Gaussian 16 at Fri Apr 29 13:00:49 2022.
