 Gaussian 16, Revision A.03,
 Gaussian 16:  ES64L-G16RevA.03 25-Dec-2016

 -----------------------------------
 #p cam-b3lyp/Def2SVP td=(nstates=5)
 -----------------------------------

 -------------------------------------------------------
 step_301_chromophore_13 TDDFT with cam-b3lyp functional
 -------------------------------------------------------
 Symbolic Z-matrix:
 Charge =  0 Multiplicity = 1

                         Standard orientation:
 ---------------------------------------------------------------------
 Center     Atomic      Atomic             Coordinates (Angstroms)
 Number     Number       Type             X           Y           Z
 ---------------------------------------------------------------------
      1         12           0       -6.065485    0.462838   -0.116134
      2          6           0       -3.843936   -2.356617    0.044818
      3          6           0       -3.424491    2.521006    0.418358
      4          6           0       -8.304947    2.939432    0.243842
      5          6           0       -8.669156   -1.875793   -0.667136
      6          7           0       -3.881801    0.072130    0.141100
      7          6           0       -3.219496   -1.132014    0.299718
      8          6           0       -1.706689   -0.878175    0.604433
      9          6           0       -1.614571    0.684469    0.827512
     10          6           0       -3.043197    1.140071    0.479545
     11          6           0       -1.289930    1.207052    2.198274
     12          6           0       -0.665835   -1.358481   -0.531749
     13          6           0        0.676006   -1.887100    0.044828
     14          6           0        1.966352   -1.512173   -0.672312
     15          8           0        2.027377   -0.653138   -1.516320
     16          8           0        3.080422   -2.258650   -0.295454
     17          7           0       -5.890156    2.544962   -0.097871
     18          6           0       -4.689216    3.175599    0.185414
     19          6           0       -4.997688    4.633783    0.349221
     20          6           0       -6.451968    4.760850    0.405724
     21          6           0       -6.967330    3.388389    0.148414
     22          6           0       -3.897258    5.707911    0.611893
     23          6           0       -7.251384    6.021175    0.802564
     24          8           0       -8.481302    6.019904    0.851514
     25          6           0       -6.518216    7.287439    1.160307
     26          7           0       -8.163125    0.473670   -0.061449
     27          6           0       -8.872150    1.613393    0.165550
     28          6           0      -10.407160    1.374951    0.008805
     29          6           0      -10.504085   -0.063575   -0.550140
     30          6           0       -9.041941   -0.531087   -0.382666
     31          6           0      -11.305326    1.693476    1.277305
     32          6           0      -11.099950   -0.316049   -1.958448
     33          6           0      -10.197757    0.035542   -3.210958
     34          7           0       -6.345097   -1.645968   -0.083640
     35          6           0       -7.420006   -2.404214   -0.472231
     36          6           0       -7.054545   -3.836321   -0.561572
     37          6           0       -5.643894   -3.853940   -0.437895
     38          6           0       -5.269718   -2.493252   -0.170741
     39          6           0       -8.015571   -4.987382   -0.777716
     40          6           0       -4.429779   -4.726085   -0.459895
     41          8           0       -4.246210   -5.914824   -0.687613
     42          6           0       -3.259595   -3.726730   -0.038982
     43          6           0       -2.668138   -4.204783    1.223829
     44          8           0       -3.253454   -4.253034    2.269536
     45          8           0       -1.495734   -4.771395    1.006515
     46          6           0       -0.745297   -5.298378    2.167196
     47          6           0        4.280874   -2.098880   -1.156731
     48          6           0        5.231980   -1.111913   -0.497480
     49          6           0        6.578296   -1.101996   -0.334386
     50          6           0        7.620802   -2.006955   -0.948499
     51          6           0        7.200632    0.063324    0.415219
     52          6           0        7.355502    1.410149   -0.386465
     53          6           0        8.616411    2.236041    0.058204
     54          6           0        9.533654    2.321043   -1.164746
     55          6           0        9.054825    3.180219   -2.365907
     56          6           0       10.308687    0.979719   -1.452909
     57          6           0       11.555852    1.266818   -2.329382
     58          6           0       12.728068    0.393306   -1.897397
     59          6           0       13.890885    1.229364   -1.250553
     60          6           0       14.755113    1.947857   -2.353657
     61          6           0       14.846584    0.431714   -0.305694
     62          6           0       14.505207    0.725538    1.170837
     63          6           0       14.082364   -0.473782    1.987924
     64          6           0       12.658677   -0.318073    2.364447
     65          6           0       12.516814    0.173367    3.821796
     66          6           0       11.960669   -1.644001    2.175992
     67          1           0       -2.551993    3.138236    0.641391
     68          1           0       -9.103076    3.637825    0.504209
     69          1           0       -9.445836   -2.597025   -0.931537
     70          1           0       -1.488627   -1.413777    1.529107
     71          1           0       -0.967254    1.207752    0.122564
     72          1           0       -0.915919    0.336314    2.735926
     73          1           0       -2.083470    1.493473    2.888360
     74          1           0       -0.426815    1.866571    2.100839
     75          1           0       -0.554948   -0.501453   -1.196646
     76          1           0       -1.238753   -2.102126   -1.084291
     77          1           0        0.614121   -2.963843   -0.114018
     78          1           0        0.612733   -1.753875    1.124536
     79          1           0       -4.068797    6.085667    1.620444
     80          1           0       -4.120641    6.487189   -0.116559
     81          1           0       -2.905768    5.294605    0.427645
     82          1           0       -5.754886    7.264775    1.937942
     83          1           0       -7.226187    7.997682    1.587526
     84          1           0       -6.123605    7.595033    0.191052
     85          1           0      -10.773870    2.049827   -0.764451
     86          1           0      -11.000972   -0.751940    0.133363
     87          1           0      -12.052491    2.364736    0.855364
     88          1           0      -10.694855    2.087770    2.089549
     89          1           0      -11.797427    0.742879    1.482088
     90          1           0      -11.972489    0.332580   -2.035183
     91          1           0      -11.451722   -1.344814   -1.879102
     92          1           0      -10.751688    0.626357   -3.939998
     93          1           0       -9.900912   -0.855307   -3.763182
     94          1           0       -9.220519    0.483545   -3.029649
     95          1           0       -8.405267   -4.933398   -1.793994
     96          1           0       -8.829141   -5.060297   -0.056824
     97          1           0       -7.344035   -5.836786   -0.901975
     98          1           0       -2.464146   -3.917621   -0.759604
     99          1           0       -0.160797   -4.445155    2.511958
    100          1           0       -0.096719   -6.123967    1.873804
    101          1           0       -1.332235   -5.652175    3.015287
    102          1           0        3.966559   -1.817399   -2.161922
    103          1           0        4.859842   -3.021374   -1.195161
    104          1           0        4.705930   -0.372691    0.105977
    105          1           0        8.266421   -1.435129   -1.615162
    106          1           0        7.173951   -2.777145   -1.576984
    107          1           0        8.217695   -2.591892   -0.248125
    108          1           0        8.188733   -0.145468    0.825253
    109          1           0        6.619664    0.283530    1.310746
    110          1           0        6.487020    1.921555    0.030300
    111          1           0        7.344201    1.286201   -1.469880
    112          1           0        9.125860    1.854363    0.942459
    113          1           0        8.276467    3.270146    0.114599
    114          1           0       10.375942    2.830489   -0.697852
    115          1           0        9.493816    2.635617   -3.201978
    116          1           0        9.357844    4.217175   -2.228983
    117          1           0        7.979908    3.140944   -2.540473
    118          1           0        9.562308    0.277933   -1.824472
    119          1           0       10.696062    0.726789   -0.466185
    120          1           0       11.864261    2.301752   -2.485079
    121          1           0       11.275081    1.091991   -3.368458
    122          1           0       13.037783   -0.058534   -2.839188
    123          1           0       12.313581   -0.431199   -1.315803
    124          1           0       13.410676    2.030376   -0.687365
    125          1           0       14.149625    1.829961   -3.252069
    126          1           0       15.704457    1.473797   -2.600656
    127          1           0       14.855820    3.020081   -2.186184
    128          1           0       15.897211    0.621893   -0.525722
    129          1           0       14.756774   -0.643670   -0.455355
    130          1           0       13.823141    1.574021    1.233499
    131          1           0       15.427882    1.145084    1.569567
    132          1           0       14.706720   -0.523280    2.879621
    133          1           0       14.207979   -1.373807    1.385282
    134          1           0       12.171098    0.434739    1.744037
    135          1           0       11.926918    1.084391    3.718737
    136          1           0       13.488451    0.533861    4.160050
    137          1           0       12.075040   -0.552598    4.502917
    138          1           0       11.418737   -1.475935    1.244180
    139          1           0       11.289432   -1.770070    3.025447
    140          1           0       12.594202   -2.525756    2.271300
 ---------------------------------------------------------------------

 SCF Done:  E(RCAM-B3LYP) =  -3007.13503263     A.U. after   16 cycles

 Excitation energies and oscillator strengths:

 Excited State   1:      Singlet-A      1.6631 eV  745.49 nm  f=0.3645  <S**2>=0.000
     245 -> 248       -0.19103
     246 -> 247        0.68246
     245 <- 248       -0.11156
 This state for optimization and/or second-order correction.
 Total Energy, E(TD-HF/TD-DFT) =  -3007.07391431
 Copying the excited state density for this state as the 1-particle RhoCI density.

 Excited State   2:      Singlet-A      2.2181 eV  558.97 nm  f=0.0543  <S**2>=0.000
     245 -> 247        0.60599
     246 -> 248        0.35483

 Excited State   3:      Singlet-A      3.3604 eV  368.96 nm  f=0.7090  <S**2>=0.000
     242 -> 247       -0.13810
     244 -> 247       -0.16084
     245 -> 247       -0.33178
     246 -> 248        0.58731
     245 <- 247        0.11098

 Excited State   4:      Singlet-A      3.5326 eV  350.98 nm  f=0.0539  <S**2>=0.000
     242 -> 247       -0.10968
     244 -> 247        0.66728
     246 -> 248        0.11826

 Excited State   5:      Singlet-A      3.7006 eV  335.04 nm  f=0.0861  <S**2>=0.000
     239 -> 247        0.33511
     239 -> 249        0.24708
     239 -> 250       -0.14947
     242 -> 247        0.51179

 The electronic state is 1-A.
 Alpha  occ. eigenvalues --  -46.88784 -19.25575 -19.24811 -19.20308 -19.19838
 Alpha  occ. eigenvalues --  -19.18888 -19.18519 -14.42185 -14.42178 -14.39884
 Alpha  occ. eigenvalues --  -14.39244 -10.40025 -10.38251 -10.35968 -10.35504
 Alpha  occ. eigenvalues --  -10.32389 -10.32324 -10.31432 -10.31239 -10.31063
 Alpha  occ. eigenvalues --  -10.30968 -10.30835 -10.30684 -10.29436 -10.29340
 Alpha  occ. eigenvalues --  -10.28953 -10.28903 -10.28379 -10.28242 -10.28136
 Alpha  occ. eigenvalues --  -10.27822 -10.27786 -10.27567 -10.27513 -10.27505
 Alpha  occ. eigenvalues --  -10.27451 -10.27440 -10.27380 -10.27368 -10.27182
 Alpha  occ. eigenvalues --  -10.26620 -10.26411 -10.26281 -10.26133 -10.26078
 Alpha  occ. eigenvalues --  -10.26066 -10.25988 -10.25961 -10.25854 -10.25826
 Alpha  occ. eigenvalues --  -10.25621 -10.25428 -10.25351 -10.25173 -10.25162
 Alpha  occ. eigenvalues --  -10.25054 -10.24943 -10.24902 -10.24876 -10.24560
 Alpha  occ. eigenvalues --  -10.24530 -10.24443 -10.24190 -10.24033 -10.23931
 Alpha  occ. eigenvalues --  -10.23703  -3.17213  -1.92142  -1.91650  -1.91523
 Alpha  occ. eigenvalues --   -1.18017  -1.16286  -1.10071  -1.09552  -1.08156
 Alpha  occ. eigenvalues --   -1.08016  -1.03557  -1.02565  -1.01916  -1.01110
 Alpha  occ. eigenvalues --   -0.92193  -0.90697  -0.90299  -0.89339  -0.89058
 Alpha  occ. eigenvalues --   -0.88600  -0.87694  -0.87493  -0.87052  -0.86156
 Alpha  occ. eigenvalues --   -0.85846  -0.85299  -0.84354  -0.83730  -0.82949
 Alpha  occ. eigenvalues --   -0.82318  -0.81590  -0.81336  -0.80890  -0.80025
 Alpha  occ. eigenvalues --   -0.79700  -0.78092  -0.77792  -0.77205  -0.76378
 Alpha  occ. eigenvalues --   -0.76008  -0.75725  -0.74865  -0.74759  -0.74524
 Alpha  occ. eigenvalues --   -0.73226  -0.72108  -0.71451  -0.70405  -0.70253
 Alpha  occ. eigenvalues --   -0.68765  -0.68157  -0.67027  -0.66649  -0.65542
 Alpha  occ. eigenvalues --   -0.65364  -0.64530  -0.64435  -0.64226  -0.64061
 Alpha  occ. eigenvalues --   -0.62995  -0.62775  -0.62185  -0.60682  -0.60120
 Alpha  occ. eigenvalues --   -0.59581  -0.59346  -0.59025  -0.58329  -0.58068
 Alpha  occ. eigenvalues --   -0.57739  -0.56927  -0.56031  -0.55858  -0.55457
 Alpha  occ. eigenvalues --   -0.55158  -0.54961  -0.54825  -0.54428  -0.54181
 Alpha  occ. eigenvalues --   -0.53973  -0.53419  -0.53085  -0.53004  -0.52893
 Alpha  occ. eigenvalues --   -0.52716  -0.52425  -0.52052  -0.51788  -0.51699
 Alpha  occ. eigenvalues --   -0.51603  -0.51540  -0.51186  -0.50913  -0.50354
 Alpha  occ. eigenvalues --   -0.50267  -0.50157  -0.50053  -0.49667  -0.49487
 Alpha  occ. eigenvalues --   -0.49363  -0.49308  -0.49123  -0.49025  -0.48951
 Alpha  occ. eigenvalues --   -0.48685  -0.48439  -0.48183  -0.47958  -0.47897
 Alpha  occ. eigenvalues --   -0.47563  -0.47257  -0.47214  -0.47021  -0.46783
 Alpha  occ. eigenvalues --   -0.46609  -0.46187  -0.45858  -0.45814  -0.45668
 Alpha  occ. eigenvalues --   -0.45475  -0.45288  -0.45002  -0.44892  -0.44691
 Alpha  occ. eigenvalues --   -0.44484  -0.44387  -0.44131  -0.44003  -0.43790
 Alpha  occ. eigenvalues --   -0.43520  -0.43379  -0.43186  -0.43115  -0.42770
 Alpha  occ. eigenvalues --   -0.42750  -0.42534  -0.42483  -0.42348  -0.42166
 Alpha  occ. eigenvalues --   -0.41964  -0.41833  -0.41432  -0.41383  -0.41119
 Alpha  occ. eigenvalues --   -0.41098  -0.41045  -0.40753  -0.40686  -0.40440
 Alpha  occ. eigenvalues --   -0.40223  -0.39674  -0.39640  -0.38991  -0.38973
 Alpha  occ. eigenvalues --   -0.38475  -0.38371  -0.38067  -0.37684  -0.37289
 Alpha  occ. eigenvalues --   -0.37057  -0.36953  -0.36676  -0.36586  -0.36163
 Alpha  occ. eigenvalues --   -0.34972  -0.34722  -0.34563  -0.34472  -0.34313
 Alpha  occ. eigenvalues --   -0.33932  -0.33753  -0.32845  -0.31206  -0.31135
 Alpha  occ. eigenvalues --   -0.30533  -0.29993  -0.29757  -0.29597  -0.23800
 Alpha  occ. eigenvalues --   -0.20469
 Alpha virt. eigenvalues --   -0.08120  -0.02110   0.00336   0.02153   0.03567
 Alpha virt. eigenvalues --    0.04793   0.05145   0.05621   0.05862   0.06133
 Alpha virt. eigenvalues --    0.06336   0.07581   0.08101   0.08583   0.08600

 Mulliken charges:
               1
     1  Mg   0.810217
     2  C    0.023903
     3  C   -0.051683
     4  C   -0.052976
     5  C   -0.099138
     6  N   -0.307699
     7  C   -0.036741
     8  C   -0.029778
     9  C   -0.071715
    10  C    0.005576
    11  C    0.089493
    12  C    0.069086
    13  C    0.042303
    14  C    0.174517
    15  O   -0.212180
    16  O   -0.360852
    17  N   -0.402798
    18  C    0.170493
    19  C   -0.190795
    20  C   -0.045462
    21  C    0.155960
    22  C    0.133849
    23  C    0.016337
    24  O   -0.206741
    25  C    0.039241
    26  N   -0.293733
    27  C    0.036874
    28  C   -0.082246
    29  C   -0.010718
    30  C    0.009164
    31  C    0.088860
    32  C    0.047364
    33  C   -0.002979
    34  N   -0.326237
    35  C    0.137333
    36  C   -0.195314
    37  C   -0.037486
    38  C    0.120985
    39  C    0.131725
    40  C    0.102361
    41  O   -0.158750
    42  C   -0.052830
    43  C    0.143159
    44  O   -0.206837
    45  O   -0.303536
    46  C    0.174892
    47  C    0.302483
    48  C   -0.114587
    49  C   -0.147515
    50  C    0.081917
    51  C    0.039570
    52  C    0.013112
    53  C    0.073132
    54  C   -0.210289
    55  C    0.076755
    56  C    0.050676
    57  C   -0.016946
    58  C    0.068138
    59  C   -0.137065
    60  C    0.046099
    61  C    0.078898
    62  C   -0.004582
    63  C    0.099072
    64  C   -0.222765
    65  C    0.069328
    66  C    0.067437
    67  H   -0.036158
    68  H   -0.003727
    69  H   -0.032820
    70  H    0.009494
    71  H    0.030433
    72  H   -0.012570
    73  H    0.033061
    74  H    0.018938
    75  H    0.026248
    76  H    0.007099
    77  H    0.041076
    78  H    0.041692
    79  H    0.038060
    80  H    0.024109
    81  H    0.026340
    82  H    0.034007
    83  H    0.026934
    84  H    0.040831
    85  H    0.014976
    86  H    0.002450
    87  H    0.020860
    88  H    0.039188
    89  H    0.007791
    90  H    0.008067
    91  H    0.013493
    92  H    0.017015
    93  H    0.009359
    94  H    0.030592
    95  H    0.016405
    96  H    0.041871
    97  H    0.027861
    98  H    0.035207
    99  H    0.026838
   100  H    0.048269
   101  H    0.054575
   102  H    0.043865
   103  H    0.018863
   104  H   -0.005715
   105  H    0.020906
   106  H   -0.012414
   107  H    0.030512
   108  H   -0.015574
   109  H    0.001562
   110  H    0.001678
   111  H    0.017773
   112  H    0.003611
   113  H   -0.010817
   114  H   -0.020429
   115  H    0.004117
   116  H    0.025412
   117  H    0.011215
   118  H    0.007850
   119  H   -0.004481
   120  H   -0.002630
   121  H   -0.011722
   122  H   -0.012934
   123  H   -0.003533
   124  H    0.000719
   125  H   -0.011571
   126  H    0.015136
   127  H    0.013211
   128  H   -0.006660
   129  H   -0.014218
   130  H   -0.008121
   131  H   -0.020029
   132  H   -0.006208
   133  H   -0.006421
   134  H    0.005396
   135  H   -0.002411
   136  H   -0.003105
   137  H    0.017669
   138  H    0.017395
   139  H   -0.015569
   140  H    0.012469
 Sum of Mulliken charges =  -0.00000

 Dipole moment (field-independent basis, Debye):
    X=              3.6465    Y=              2.2664    Z=              0.2166  Tot=              4.2989
 Quadrupole moment (field-independent basis, Debye-Ang):
   XX=           -372.8314   YY=           -420.3050   ZZ=           -406.8650
   XY=              1.0685   XZ=             13.2819   YZ=              3.1155

 Normal termination of Gaussian 16 at Fri Apr 29 11:55:38 2022.
