 Gaussian 16, Revision A.03,
 Gaussian 16:  ES64L-G16RevA.03 25-Dec-2016

 ---------------------------------
 #p PBE1PBE/Def2SVP td=(nstates=5)
 ---------------------------------

 -----------------------------------------------------
 step_301_chromophore_13 TDDFT with PBE1PBE functional
 -----------------------------------------------------
 Symbolic Z-matrix:
 Charge =  0 Multiplicity = 1

                         Standard orientation:
 ---------------------------------------------------------------------
 Center     Atomic      Atomic             Coordinates (Angstroms)
 Number     Number       Type             X           Y           Z
 ---------------------------------------------------------------------
      1         12           0       -6.065485    0.462838   -0.116134
      2          6           0       -3.843936   -2.356617    0.044818
      3          6           0       -3.424491    2.521006    0.418358
      4          6           0       -8.304947    2.939432    0.243842
      5          6           0       -8.669156   -1.875793   -0.667136
      6          7           0       -3.881801    0.072130    0.141100
      7          6           0       -3.219496   -1.132014    0.299718
      8          6           0       -1.706689   -0.878175    0.604433
      9          6           0       -1.614571    0.684469    0.827512
     10          6           0       -3.043197    1.140071    0.479545
     11          6           0       -1.289930    1.207052    2.198274
     12          6           0       -0.665835   -1.358481   -0.531749
     13          6           0        0.676006   -1.887100    0.044828
     14          6           0        1.966352   -1.512173   -0.672312
     15          8           0        2.027377   -0.653138   -1.516320
     16          8           0        3.080422   -2.258650   -0.295454
     17          7           0       -5.890156    2.544962   -0.097871
     18          6           0       -4.689216    3.175599    0.185414
     19          6           0       -4.997688    4.633783    0.349221
     20          6           0       -6.451968    4.760850    0.405724
     21          6           0       -6.967330    3.388389    0.148414
     22          6           0       -3.897258    5.707911    0.611893
     23          6           0       -7.251384    6.021175    0.802564
     24          8           0       -8.481302    6.019904    0.851514
     25          6           0       -6.518216    7.287439    1.160307
     26          7           0       -8.163125    0.473670   -0.061449
     27          6           0       -8.872150    1.613393    0.165550
     28          6           0      -10.407160    1.374951    0.008805
     29          6           0      -10.504085   -0.063575   -0.550140
     30          6           0       -9.041941   -0.531087   -0.382666
     31          6           0      -11.305326    1.693476    1.277305
     32          6           0      -11.099950   -0.316049   -1.958448
     33          6           0      -10.197757    0.035542   -3.210958
     34          7           0       -6.345097   -1.645968   -0.083640
     35          6           0       -7.420006   -2.404214   -0.472231
     36          6           0       -7.054545   -3.836321   -0.561572
     37          6           0       -5.643894   -3.853940   -0.437895
     38          6           0       -5.269718   -2.493252   -0.170741
     39          6           0       -8.015571   -4.987382   -0.777716
     40          6           0       -4.429779   -4.726085   -0.459895
     41          8           0       -4.246210   -5.914824   -0.687613
     42          6           0       -3.259595   -3.726730   -0.038982
     43          6           0       -2.668138   -4.204783    1.223829
     44          8           0       -3.253454   -4.253034    2.269536
     45          8           0       -1.495734   -4.771395    1.006515
     46          6           0       -0.745297   -5.298378    2.167196
     47          6           0        4.280874   -2.098880   -1.156731
     48          6           0        5.231980   -1.111913   -0.497480
     49          6           0        6.578296   -1.101996   -0.334386
     50          6           0        7.620802   -2.006955   -0.948499
     51          6           0        7.200632    0.063324    0.415219
     52          6           0        7.355502    1.410149   -0.386465
     53          6           0        8.616411    2.236041    0.058204
     54          6           0        9.533654    2.321043   -1.164746
     55          6           0        9.054825    3.180219   -2.365907
     56          6           0       10.308687    0.979719   -1.452909
     57          6           0       11.555852    1.266818   -2.329382
     58          6           0       12.728068    0.393306   -1.897397
     59          6           0       13.890885    1.229364   -1.250553
     60          6           0       14.755113    1.947857   -2.353657
     61          6           0       14.846584    0.431714   -0.305694
     62          6           0       14.505207    0.725538    1.170837
     63          6           0       14.082364   -0.473782    1.987924
     64          6           0       12.658677   -0.318073    2.364447
     65          6           0       12.516814    0.173367    3.821796
     66          6           0       11.960669   -1.644001    2.175992
     67          1           0       -2.551993    3.138236    0.641391
     68          1           0       -9.103076    3.637825    0.504209
     69          1           0       -9.445836   -2.597025   -0.931537
     70          1           0       -1.488627   -1.413777    1.529107
     71          1           0       -0.967254    1.207752    0.122564
     72          1           0       -0.915919    0.336314    2.735926
     73          1           0       -2.083470    1.493473    2.888360
     74          1           0       -0.426815    1.866571    2.100839
     75          1           0       -0.554948   -0.501453   -1.196646
     76          1           0       -1.238753   -2.102126   -1.084291
     77          1           0        0.614121   -2.963843   -0.114018
     78          1           0        0.612733   -1.753875    1.124536
     79          1           0       -4.068797    6.085667    1.620444
     80          1           0       -4.120641    6.487189   -0.116559
     81          1           0       -2.905768    5.294605    0.427645
     82          1           0       -5.754886    7.264775    1.937942
     83          1           0       -7.226187    7.997682    1.587526
     84          1           0       -6.123605    7.595033    0.191052
     85          1           0      -10.773870    2.049827   -0.764451
     86          1           0      -11.000972   -0.751940    0.133363
     87          1           0      -12.052491    2.364736    0.855364
     88          1           0      -10.694855    2.087770    2.089549
     89          1           0      -11.797427    0.742879    1.482088
     90          1           0      -11.972489    0.332580   -2.035183
     91          1           0      -11.451722   -1.344814   -1.879102
     92          1           0      -10.751688    0.626357   -3.939998
     93          1           0       -9.900912   -0.855307   -3.763182
     94          1           0       -9.220519    0.483545   -3.029649
     95          1           0       -8.405267   -4.933398   -1.793994
     96          1           0       -8.829141   -5.060297   -0.056824
     97          1           0       -7.344035   -5.836786   -0.901975
     98          1           0       -2.464146   -3.917621   -0.759604
     99          1           0       -0.160797   -4.445155    2.511958
    100          1           0       -0.096719   -6.123967    1.873804
    101          1           0       -1.332235   -5.652175    3.015287
    102          1           0        3.966559   -1.817399   -2.161922
    103          1           0        4.859842   -3.021374   -1.195161
    104          1           0        4.705930   -0.372691    0.105977
    105          1           0        8.266421   -1.435129   -1.615162
    106          1           0        7.173951   -2.777145   -1.576984
    107          1           0        8.217695   -2.591892   -0.248125
    108          1           0        8.188733   -0.145468    0.825253
    109          1           0        6.619664    0.283530    1.310746
    110          1           0        6.487020    1.921555    0.030300
    111          1           0        7.344201    1.286201   -1.469880
    112          1           0        9.125860    1.854363    0.942459
    113          1           0        8.276467    3.270146    0.114599
    114          1           0       10.375942    2.830489   -0.697852
    115          1           0        9.493816    2.635617   -3.201978
    116          1           0        9.357844    4.217175   -2.228983
    117          1           0        7.979908    3.140944   -2.540473
    118          1           0        9.562308    0.277933   -1.824472
    119          1           0       10.696062    0.726789   -0.466185
    120          1           0       11.864261    2.301752   -2.485079
    121          1           0       11.275081    1.091991   -3.368458
    122          1           0       13.037783   -0.058534   -2.839188
    123          1           0       12.313581   -0.431199   -1.315803
    124          1           0       13.410676    2.030376   -0.687365
    125          1           0       14.149625    1.829961   -3.252069
    126          1           0       15.704457    1.473797   -2.600656
    127          1           0       14.855820    3.020081   -2.186184
    128          1           0       15.897211    0.621893   -0.525722
    129          1           0       14.756774   -0.643670   -0.455355
    130          1           0       13.823141    1.574021    1.233499
    131          1           0       15.427882    1.145084    1.569567
    132          1           0       14.706720   -0.523280    2.879621
    133          1           0       14.207979   -1.373807    1.385282
    134          1           0       12.171098    0.434739    1.744037
    135          1           0       11.926918    1.084391    3.718737
    136          1           0       13.488451    0.533861    4.160050
    137          1           0       12.075040   -0.552598    4.502917
    138          1           0       11.418737   -1.475935    1.244180
    139          1           0       11.289432   -1.770070    3.025447
    140          1           0       12.594202   -2.525756    2.271300
 ---------------------------------------------------------------------

 SCF Done:  E(RPBE1PBE) =  -3005.32548341     A.U. after   15 cycles

 Excitation energies and oscillator strengths:

 Excited State   1:      Singlet-A      1.8234 eV  679.95 nm  f=0.3556  <S**2>=0.000
     245 -> 248       -0.18256
     246 -> 247        0.68986
     246 <- 247       -0.10518
 This state for optimization and/or second-order correction.
 Total Energy, E(TD-HF/TD-DFT) =  -3005.25847356
 Copying the excited state density for this state as the 1-particle RhoCI density.

 Excited State   2:      Singlet-A      2.2246 eV  557.33 nm  f=0.0610  <S**2>=0.000
     245 -> 247        0.62441
     246 -> 248        0.32109

 Excited State   3:      Singlet-A      3.1528 eV  393.25 nm  f=0.1433  <S**2>=0.000
     243 -> 247        0.55410
     245 -> 247        0.16444
     246 -> 248       -0.37523

 Excited State   4:      Singlet-A      3.2001 eV  387.44 nm  f=0.2707  <S**2>=0.000
     242 -> 247       -0.23572
     243 -> 247        0.40686
     245 -> 247       -0.20921
     246 -> 248        0.44228

 Excited State   5:      Singlet-A      3.2628 eV  379.99 nm  f=0.0011  <S**2>=0.000
     241 -> 247        0.64875
     241 -> 248       -0.11521
     241 -> 249       -0.14358
     241 -> 250       -0.13086

 The electronic state is 1-A.
 Alpha  occ. eigenvalues --  -46.92198 -19.26194 -19.25531 -19.20577 -19.20078
 Alpha  occ. eigenvalues --  -19.19054 -19.18712 -14.41792 -14.41671 -14.39548
 Alpha  occ. eigenvalues --  -14.38936 -10.37060 -10.35222 -10.33160 -10.32603
 Alpha  occ. eigenvalues --  -10.29790 -10.29539 -10.29171 -10.29009 -10.28742
 Alpha  occ. eigenvalues --  -10.28740 -10.28542 -10.28533 -10.27146 -10.27096
 Alpha  occ. eigenvalues --  -10.26765 -10.26735 -10.25960 -10.25938 -10.25887
 Alpha  occ. eigenvalues --  -10.25673 -10.25530 -10.25356 -10.25252 -10.25246
 Alpha  occ. eigenvalues --  -10.25225 -10.25097 -10.25007 -10.24864 -10.24864
 Alpha  occ. eigenvalues --  -10.24254 -10.23997 -10.23868 -10.23656 -10.23540
 Alpha  occ. eigenvalues --  -10.23524 -10.23477 -10.23473 -10.23434 -10.23358
 Alpha  occ. eigenvalues --  -10.23064 -10.23021 -10.22918 -10.22913 -10.22768
 Alpha  occ. eigenvalues --  -10.22534 -10.22482 -10.22461 -10.22447 -10.22216
 Alpha  occ. eigenvalues --  -10.22015 -10.21944 -10.21598 -10.21487 -10.21437
 Alpha  occ. eigenvalues --  -10.21250  -3.14212  -1.87082  -1.86567  -1.86445
 Alpha  occ. eigenvalues --   -1.12795  -1.11092  -1.04834  -1.04236  -1.02957
 Alpha  occ. eigenvalues --   -1.02910  -0.98192  -0.97221  -0.96547  -0.95765
 Alpha  occ. eigenvalues --   -0.86556  -0.84801  -0.84414  -0.83531  -0.83243
 Alpha  occ. eigenvalues --   -0.82909  -0.81886  -0.81734  -0.81362  -0.80395
 Alpha  occ. eigenvalues --   -0.80122  -0.79587  -0.78514  -0.78031  -0.77193
 Alpha  occ. eigenvalues --   -0.76551  -0.75799  -0.75542  -0.75129  -0.74336
 Alpha  occ. eigenvalues --   -0.73895  -0.72379  -0.72092  -0.71512  -0.70703
 Alpha  occ. eigenvalues --   -0.70156  -0.69825  -0.69181  -0.69013  -0.68683
 Alpha  occ. eigenvalues --   -0.67533  -0.66567  -0.65871  -0.64737  -0.64639
 Alpha  occ. eigenvalues --   -0.62985  -0.62638  -0.61258  -0.61056  -0.59834
 Alpha  occ. eigenvalues --   -0.59731  -0.59118  -0.58941  -0.58641  -0.58358
 Alpha  occ. eigenvalues --   -0.57361  -0.57180  -0.56779  -0.54943  -0.54458
 Alpha  occ. eigenvalues --   -0.54115  -0.53825  -0.53577  -0.52945  -0.52601
 Alpha  occ. eigenvalues --   -0.52214  -0.51512  -0.50396  -0.50248  -0.50086
 Alpha  occ. eigenvalues --   -0.49716  -0.49557  -0.49341  -0.48932  -0.48600
 Alpha  occ. eigenvalues --   -0.48526  -0.47991  -0.47615  -0.47500  -0.47474
 Alpha  occ. eigenvalues --   -0.47192  -0.46931  -0.46628  -0.46329  -0.46218
 Alpha  occ. eigenvalues --   -0.46153  -0.46130  -0.45873  -0.45423  -0.44928
 Alpha  occ. eigenvalues --   -0.44812  -0.44679  -0.44583  -0.44233  -0.44113
 Alpha  occ. eigenvalues --   -0.43982  -0.43884  -0.43720  -0.43573  -0.43505
 Alpha  occ. eigenvalues --   -0.43300  -0.43076  -0.42755  -0.42653  -0.42485
 Alpha  occ. eigenvalues --   -0.42198  -0.41899  -0.41810  -0.41680  -0.41446
 Alpha  occ. eigenvalues --   -0.41295  -0.40987  -0.40612  -0.40531  -0.40418
 Alpha  occ. eigenvalues --   -0.40254  -0.40076  -0.39811  -0.39614  -0.39438
 Alpha  occ. eigenvalues --   -0.39277  -0.39121  -0.38859  -0.38728  -0.38617
 Alpha  occ. eigenvalues --   -0.38218  -0.38121  -0.38037  -0.37880  -0.37591
 Alpha  occ. eigenvalues --   -0.37455  -0.37327  -0.37196  -0.37158  -0.37002
 Alpha  occ. eigenvalues --   -0.36722  -0.36613  -0.36341  -0.36093  -0.35990
 Alpha  occ. eigenvalues --   -0.35856  -0.35832  -0.35713  -0.35582  -0.35389
 Alpha  occ. eigenvalues --   -0.34986  -0.34606  -0.34493  -0.33926  -0.33724
 Alpha  occ. eigenvalues --   -0.33379  -0.33282  -0.32909  -0.32529  -0.32332
 Alpha  occ. eigenvalues --   -0.31930  -0.31888  -0.31729  -0.31517  -0.31268
 Alpha  occ. eigenvalues --   -0.29841  -0.29586  -0.29522  -0.29473  -0.29374
 Alpha  occ. eigenvalues --   -0.28838  -0.28673  -0.28324  -0.26235  -0.26176
 Alpha  occ. eigenvalues --   -0.25839  -0.25624  -0.25207  -0.25066  -0.20724
 Alpha  occ. eigenvalues --   -0.18186
 Alpha virt. eigenvalues --   -0.10657  -0.05551  -0.03901  -0.02261   0.00120
 Alpha virt. eigenvalues --    0.00480   0.00849   0.01393   0.01615   0.02509
 Alpha virt. eigenvalues --    0.03018   0.03666   0.03954   0.05095   0.05387

 Mulliken charges:
               1
     1  Mg   0.961991
     2  C    0.003127
     3  C   -0.047581
     4  C   -0.047889
     5  C   -0.085354
     6  N   -0.406243
     7  C    0.038705
     8  C   -0.092351
     9  C   -0.149143
    10  C    0.042065
    11  C    0.031723
    12  C    0.020587
    13  C   -0.039558
    14  C    0.242463
    15  O   -0.244534
    16  O   -0.390383
    17  N   -0.513260
    18  C    0.190058
    19  C   -0.209362
    20  C   -0.090411
    21  C    0.180183
    22  C    0.066384
    23  C    0.064277
    24  O   -0.243587
    25  C   -0.033270
    26  N   -0.400020
    27  C    0.073757
    28  C   -0.156429
    29  C   -0.078818
    30  C    0.047453
    31  C    0.028449
    32  C   -0.018338
    33  C   -0.074697
    34  N   -0.443858
    35  C    0.144645
    36  C   -0.197759
    37  C   -0.082989
    38  C    0.163773
    39  C    0.072270
    40  C    0.192073
    41  O   -0.205411
    42  C   -0.161114
    43  C    0.246192
    44  O   -0.243575
    45  O   -0.340236
    46  C    0.118361
    47  C    0.254714
    48  C   -0.119185
    49  C   -0.196849
    50  C    0.016430
    51  C   -0.021344
    52  C   -0.048516
    53  C    0.013624
    54  C   -0.295144
    55  C    0.015290
    56  C   -0.026790
    57  C   -0.067252
    58  C    0.005526
    59  C   -0.225327
    60  C   -0.013522
    61  C    0.031285
    62  C   -0.067392
    63  C    0.040642
    64  C   -0.321142
    65  C    0.011679
    66  C    0.003093
    67  H   -0.002256
    68  H    0.028207
    69  H   -0.001726
    70  H    0.047385
    71  H    0.065427
    72  H    0.017075
    73  H    0.060123
    74  H    0.046385
    75  H    0.057413
    76  H    0.042733
    77  H    0.075117
    78  H    0.071654
    79  H    0.066141
    80  H    0.053437
    81  H    0.053595
    82  H    0.059184
    83  H    0.054334
    84  H    0.068155
    85  H    0.053414
    86  H    0.041030
    87  H    0.048008
    88  H    0.065883
    89  H    0.036045
    90  H    0.041941
    91  H    0.044394
    92  H    0.044615
    93  H    0.037464
    94  H    0.059764
    95  H    0.045190
    96  H    0.067941
    97  H    0.057156
    98  H    0.072134
    99  H    0.049389
   100  H    0.069412
   101  H    0.075271
   102  H    0.070580
   103  H    0.047057
   104  H    0.023605
   105  H    0.051941
   106  H    0.016077
   107  H    0.057365
   108  H    0.017489
   109  H    0.034192
   110  H    0.035619
   111  H    0.049180
   112  H    0.033461
   113  H    0.025028
   114  H    0.021813
   115  H    0.033295
   116  H    0.052090
   117  H    0.038262
   118  H    0.048130
   119  H    0.038211
   120  H    0.027475
   121  H    0.020759
   122  H    0.021181
   123  H    0.031389
   124  H    0.039532
   125  H    0.017010
   126  H    0.041952
   127  H    0.040669
   128  H    0.024944
   129  H    0.017734
   130  H    0.022253
   131  H    0.014366
   132  H    0.026543
   133  H    0.026251
   134  H    0.048086
   135  H    0.025260
   136  H    0.024722
   137  H    0.043551
   138  H    0.047076
   139  H    0.013011
   140  H    0.039218
 Sum of Mulliken charges =  -0.00000

 Dipole moment (field-independent basis, Debye):
    X=              3.5996    Y=              2.2162    Z=              0.1860  Tot=              4.2312
 Quadrupole moment (field-independent basis, Debye-Ang):
   XX=           -365.8149   YY=           -418.0315   ZZ=           -404.4190
   XY=              2.3282   XZ=             13.7526   YZ=              3.3317

 Normal termination of Gaussian 16 at Fri Apr 29 12:17:07 2022.
