 Gaussian 16, Revision A.03,
 Gaussian 16:  ES64L-G16RevA.03 25-Dec-2016

 --------------------------------
 #p wB97XD/Def2SVP td=(nstates=5)
 --------------------------------

 ----------------------------------------------------
 step_301_chromophore_13 TDDFT with wB97XD functional
 ----------------------------------------------------
 Symbolic Z-matrix:
 Charge =  0 Multiplicity = 1

                         Standard orientation:
 ---------------------------------------------------------------------
 Center     Atomic      Atomic             Coordinates (Angstroms)
 Number     Number       Type             X           Y           Z
 ---------------------------------------------------------------------
      1         12           0       -6.065485    0.462838   -0.116134
      2          6           0       -3.843936   -2.356617    0.044818
      3          6           0       -3.424491    2.521006    0.418358
      4          6           0       -8.304947    2.939432    0.243842
      5          6           0       -8.669156   -1.875793   -0.667136
      6          7           0       -3.881801    0.072130    0.141100
      7          6           0       -3.219496   -1.132014    0.299718
      8          6           0       -1.706689   -0.878175    0.604433
      9          6           0       -1.614571    0.684469    0.827512
     10          6           0       -3.043197    1.140071    0.479545
     11          6           0       -1.289930    1.207052    2.198274
     12          6           0       -0.665835   -1.358481   -0.531749
     13          6           0        0.676006   -1.887100    0.044828
     14          6           0        1.966352   -1.512173   -0.672312
     15          8           0        2.027377   -0.653138   -1.516320
     16          8           0        3.080422   -2.258650   -0.295454
     17          7           0       -5.890156    2.544962   -0.097871
     18          6           0       -4.689216    3.175599    0.185414
     19          6           0       -4.997688    4.633783    0.349221
     20          6           0       -6.451968    4.760850    0.405724
     21          6           0       -6.967330    3.388389    0.148414
     22          6           0       -3.897258    5.707911    0.611893
     23          6           0       -7.251384    6.021175    0.802564
     24          8           0       -8.481302    6.019904    0.851514
     25          6           0       -6.518216    7.287439    1.160307
     26          7           0       -8.163125    0.473670   -0.061449
     27          6           0       -8.872150    1.613393    0.165550
     28          6           0      -10.407160    1.374951    0.008805
     29          6           0      -10.504085   -0.063575   -0.550140
     30          6           0       -9.041941   -0.531087   -0.382666
     31          6           0      -11.305326    1.693476    1.277305
     32          6           0      -11.099950   -0.316049   -1.958448
     33          6           0      -10.197757    0.035542   -3.210958
     34          7           0       -6.345097   -1.645968   -0.083640
     35          6           0       -7.420006   -2.404214   -0.472231
     36          6           0       -7.054545   -3.836321   -0.561572
     37          6           0       -5.643894   -3.853940   -0.437895
     38          6           0       -5.269718   -2.493252   -0.170741
     39          6           0       -8.015571   -4.987382   -0.777716
     40          6           0       -4.429779   -4.726085   -0.459895
     41          8           0       -4.246210   -5.914824   -0.687613
     42          6           0       -3.259595   -3.726730   -0.038982
     43          6           0       -2.668138   -4.204783    1.223829
     44          8           0       -3.253454   -4.253034    2.269536
     45          8           0       -1.495734   -4.771395    1.006515
     46          6           0       -0.745297   -5.298378    2.167196
     47          6           0        4.280874   -2.098880   -1.156731
     48          6           0        5.231980   -1.111913   -0.497480
     49          6           0        6.578296   -1.101996   -0.334386
     50          6           0        7.620802   -2.006955   -0.948499
     51          6           0        7.200632    0.063324    0.415219
     52          6           0        7.355502    1.410149   -0.386465
     53          6           0        8.616411    2.236041    0.058204
     54          6           0        9.533654    2.321043   -1.164746
     55          6           0        9.054825    3.180219   -2.365907
     56          6           0       10.308687    0.979719   -1.452909
     57          6           0       11.555852    1.266818   -2.329382
     58          6           0       12.728068    0.393306   -1.897397
     59          6           0       13.890885    1.229364   -1.250553
     60          6           0       14.755113    1.947857   -2.353657
     61          6           0       14.846584    0.431714   -0.305694
     62          6           0       14.505207    0.725538    1.170837
     63          6           0       14.082364   -0.473782    1.987924
     64          6           0       12.658677   -0.318073    2.364447
     65          6           0       12.516814    0.173367    3.821796
     66          6           0       11.960669   -1.644001    2.175992
     67          1           0       -2.551993    3.138236    0.641391
     68          1           0       -9.103076    3.637825    0.504209
     69          1           0       -9.445836   -2.597025   -0.931537
     70          1           0       -1.488627   -1.413777    1.529107
     71          1           0       -0.967254    1.207752    0.122564
     72          1           0       -0.915919    0.336314    2.735926
     73          1           0       -2.083470    1.493473    2.888360
     74          1           0       -0.426815    1.866571    2.100839
     75          1           0       -0.554948   -0.501453   -1.196646
     76          1           0       -1.238753   -2.102126   -1.084291
     77          1           0        0.614121   -2.963843   -0.114018
     78          1           0        0.612733   -1.753875    1.124536
     79          1           0       -4.068797    6.085667    1.620444
     80          1           0       -4.120641    6.487189   -0.116559
     81          1           0       -2.905768    5.294605    0.427645
     82          1           0       -5.754886    7.264775    1.937942
     83          1           0       -7.226187    7.997682    1.587526
     84          1           0       -6.123605    7.595033    0.191052
     85          1           0      -10.773870    2.049827   -0.764451
     86          1           0      -11.000972   -0.751940    0.133363
     87          1           0      -12.052491    2.364736    0.855364
     88          1           0      -10.694855    2.087770    2.089549
     89          1           0      -11.797427    0.742879    1.482088
     90          1           0      -11.972489    0.332580   -2.035183
     91          1           0      -11.451722   -1.344814   -1.879102
     92          1           0      -10.751688    0.626357   -3.939998
     93          1           0       -9.900912   -0.855307   -3.763182
     94          1           0       -9.220519    0.483545   -3.029649
     95          1           0       -8.405267   -4.933398   -1.793994
     96          1           0       -8.829141   -5.060297   -0.056824
     97          1           0       -7.344035   -5.836786   -0.901975
     98          1           0       -2.464146   -3.917621   -0.759604
     99          1           0       -0.160797   -4.445155    2.511958
    100          1           0       -0.096719   -6.123967    1.873804
    101          1           0       -1.332235   -5.652175    3.015287
    102          1           0        3.966559   -1.817399   -2.161922
    103          1           0        4.859842   -3.021374   -1.195161
    104          1           0        4.705930   -0.372691    0.105977
    105          1           0        8.266421   -1.435129   -1.615162
    106          1           0        7.173951   -2.777145   -1.576984
    107          1           0        8.217695   -2.591892   -0.248125
    108          1           0        8.188733   -0.145468    0.825253
    109          1           0        6.619664    0.283530    1.310746
    110          1           0        6.487020    1.921555    0.030300
    111          1           0        7.344201    1.286201   -1.469880
    112          1           0        9.125860    1.854363    0.942459
    113          1           0        8.276467    3.270146    0.114599
    114          1           0       10.375942    2.830489   -0.697852
    115          1           0        9.493816    2.635617   -3.201978
    116          1           0        9.357844    4.217175   -2.228983
    117          1           0        7.979908    3.140944   -2.540473
    118          1           0        9.562308    0.277933   -1.824472
    119          1           0       10.696062    0.726789   -0.466185
    120          1           0       11.864261    2.301752   -2.485079
    121          1           0       11.275081    1.091991   -3.368458
    122          1           0       13.037783   -0.058534   -2.839188
    123          1           0       12.313581   -0.431199   -1.315803
    124          1           0       13.410676    2.030376   -0.687365
    125          1           0       14.149625    1.829961   -3.252069
    126          1           0       15.704457    1.473797   -2.600656
    127          1           0       14.855820    3.020081   -2.186184
    128          1           0       15.897211    0.621893   -0.525722
    129          1           0       14.756774   -0.643670   -0.455355
    130          1           0       13.823141    1.574021    1.233499
    131          1           0       15.427882    1.145084    1.569567
    132          1           0       14.706720   -0.523280    2.879621
    133          1           0       14.207979   -1.373807    1.385282
    134          1           0       12.171098    0.434739    1.744037
    135          1           0       11.926918    1.084391    3.718737
    136          1           0       13.488451    0.533861    4.160050
    137          1           0       12.075040   -0.552598    4.502917
    138          1           0       11.418737   -1.475935    1.244180
    139          1           0       11.289432   -1.770070    3.025447
    140          1           0       12.594202   -2.525756    2.271300
 ---------------------------------------------------------------------

 SCF Done:  E(RwB97XD) =  -3007.83625665     A.U. after   20 cycles

 Excitation energies and oscillator strengths:

 Excited State   1:      Singlet-A      1.6017 eV  774.08 nm  f=0.3622  <S**2>=0.000
     245 -> 248       -0.19701
     246 -> 247        0.68029
     245 <- 248       -0.12169
 This state for optimization and/or second-order correction.
 Total Energy, E(TD-HF/TD-DFT) =  -3007.77739522
 Copying the excited state density for this state as the 1-particle RhoCI density.

 Excited State   2:      Singlet-A      2.1614 eV  573.62 nm  f=0.0535  <S**2>=0.000
     245 -> 247        0.60546
     246 -> 248        0.35510

 Excited State   3:      Singlet-A      3.3725 eV  367.64 nm  f=0.7213  <S**2>=0.000
     242 -> 247       -0.15850
     243 -> 247       -0.13070
     245 -> 247       -0.32914
     246 -> 248        0.58698
     245 <- 247        0.11644

 Excited State   4:      Singlet-A      3.5537 eV  348.89 nm  f=0.0441  <S**2>=0.000
     242 -> 247       -0.10564
     243 -> 247        0.57131
     244 -> 247        0.34247
     246 -> 248        0.10842

 Excited State   5:      Singlet-A      3.7387 eV  331.63 nm  f=0.0820  <S**2>=0.000
     239 -> 247        0.36461
     239 -> 249        0.29319
     239 -> 250       -0.17471
     242 -> 247        0.45490

 The electronic state is 1-A.
 Alpha  occ. eigenvalues --  -46.95125 -19.30781 -19.30093 -19.25243 -19.24899
 Alpha  occ. eigenvalues --  -19.23929 -19.23448 -14.46789 -14.46785 -14.44510
 Alpha  occ. eigenvalues --  -14.43848 -10.43841 -10.42065 -10.40025 -10.39495
 Alpha  occ. eigenvalues --  -10.36293 -10.36070 -10.35502 -10.35284 -10.35158
 Alpha  occ. eigenvalues --  -10.35009 -10.34907 -10.34682 -10.33636 -10.33369
 Alpha  occ. eigenvalues --  -10.32993 -10.32945 -10.32389 -10.32302 -10.32177
 Alpha  occ. eigenvalues --  -10.31969 -10.31908 -10.31624 -10.31587 -10.31548
 Alpha  occ. eigenvalues --  -10.31446 -10.31412 -10.31411 -10.31377 -10.31124
 Alpha  occ. eigenvalues --  -10.30716 -10.30444 -10.30170 -10.30141 -10.29966
 Alpha  occ. eigenvalues --  -10.29927 -10.29909 -10.29851 -10.29814 -10.29766
 Alpha  occ. eigenvalues --  -10.29447 -10.29384 -10.29296 -10.29150 -10.29126
 Alpha  occ. eigenvalues --  -10.28890 -10.28881 -10.28846 -10.28823 -10.28475
 Alpha  occ. eigenvalues --  -10.28369 -10.28366 -10.28004 -10.27843 -10.27832
 Alpha  occ. eigenvalues --  -10.27602  -3.21002  -1.94620  -1.94105  -1.93981
 Alpha  occ. eigenvalues --   -1.20197  -1.18466  -1.12325  -1.11780  -1.10335
 Alpha  occ. eigenvalues --   -1.10249  -1.05551  -1.04575  -1.03936  -1.03158
 Alpha  occ. eigenvalues --   -0.94164  -0.92451  -0.92075  -0.91170  -0.90890
 Alpha  occ. eigenvalues --   -0.90456  -0.89522  -0.89375  -0.88961  -0.88100
 Alpha  occ. eigenvalues --   -0.87790  -0.87230  -0.86172  -0.85654  -0.84831
 Alpha  occ. eigenvalues --   -0.84184  -0.83504  -0.83263  -0.82778  -0.81960
 Alpha  occ. eigenvalues --   -0.81557  -0.80010  -0.79761  -0.79130  -0.78314
 Alpha  occ. eigenvalues --   -0.77842  -0.77509  -0.76761  -0.76664  -0.76347
 Alpha  occ. eigenvalues --   -0.75147  -0.74102  -0.73412  -0.72337  -0.72176
 Alpha  occ. eigenvalues --   -0.70634  -0.70172  -0.68896  -0.68655  -0.67383
 Alpha  occ. eigenvalues --   -0.67338  -0.66537  -0.66384  -0.66078  -0.66027
 Alpha  occ. eigenvalues --   -0.64828  -0.64786  -0.64167  -0.62551  -0.62010
 Alpha  occ. eigenvalues --   -0.61594  -0.61285  -0.61008  -0.60305  -0.60027
 Alpha  occ. eigenvalues --   -0.59707  -0.58929  -0.57898  -0.57727  -0.57432
 Alpha  occ. eigenvalues --   -0.57139  -0.56939  -0.56762  -0.56362  -0.56034
 Alpha  occ. eigenvalues --   -0.55902  -0.55343  -0.55008  -0.54920  -0.54829
 Alpha  occ. eigenvalues --   -0.54663  -0.54327  -0.53968  -0.53718  -0.53571
 Alpha  occ. eigenvalues --   -0.53489  -0.53473  -0.53144  -0.52783  -0.52279
 Alpha  occ. eigenvalues --   -0.52168  -0.52035  -0.51963  -0.51587  -0.51417
 Alpha  occ. eigenvalues --   -0.51307  -0.51190  -0.51036  -0.50920  -0.50865
 Alpha  occ. eigenvalues --   -0.50589  -0.50330  -0.50044  -0.49908  -0.49858
 Alpha  occ. eigenvalues --   -0.49469  -0.49172  -0.49106  -0.48941  -0.48717
 Alpha  occ. eigenvalues --   -0.48508  -0.48133  -0.47754  -0.47719  -0.47576
 Alpha  occ. eigenvalues --   -0.47410  -0.47213  -0.46965  -0.46786  -0.46622
 Alpha  occ. eigenvalues --   -0.46415  -0.46317  -0.46021  -0.45886  -0.45749
 Alpha  occ. eigenvalues --   -0.45400  -0.45315  -0.45111  -0.45062  -0.44726
 Alpha  occ. eigenvalues --   -0.44621  -0.44455  -0.44342  -0.44292  -0.44106
 Alpha  occ. eigenvalues --   -0.43862  -0.43832  -0.43372  -0.43247  -0.43014
 Alpha  occ. eigenvalues --   -0.42962  -0.42931  -0.42716  -0.42590  -0.42326
 Alpha  occ. eigenvalues --   -0.42078  -0.41527  -0.41518  -0.40872  -0.40813
 Alpha  occ. eigenvalues --   -0.40330  -0.40287  -0.39936  -0.39571  -0.39229
 Alpha  occ. eigenvalues --   -0.38985  -0.38901  -0.38643  -0.38528  -0.38271
 Alpha  occ. eigenvalues --   -0.36795  -0.36638  -0.36415  -0.36345  -0.36322
 Alpha  occ. eigenvalues --   -0.35780  -0.35703  -0.35091  -0.33212  -0.33085
 Alpha  occ. eigenvalues --   -0.32761  -0.32175  -0.31799  -0.31772  -0.25725
 Alpha  occ. eigenvalues --   -0.22267
 Alpha virt. eigenvalues --   -0.06474  -0.00202   0.02370   0.04238   0.06537
 Alpha virt. eigenvalues --    0.07111   0.07451   0.08065   0.08153   0.08794
 Alpha virt. eigenvalues --    0.09540   0.10189   0.10827   0.11886   0.12027

 Mulliken charges:
               1
     1  Mg   0.950373
     2  C    0.003077
     3  C   -0.066172
     4  C   -0.062016
     5  C   -0.103030
     6  N   -0.377176
     7  C    0.007615
     8  C   -0.068808
     9  C   -0.123301
    10  C    0.032868
    11  C    0.040030
    12  C    0.033521
    13  C   -0.020792
    14  C    0.232813
    15  O   -0.242357
    16  O   -0.390567
    17  N   -0.483885
    18  C    0.185296
    19  C   -0.204400
    20  C   -0.085335
    21  C    0.175586
    22  C    0.085631
    23  C    0.062015
    24  O   -0.237907
    25  C   -0.022615
    26  N   -0.366179
    27  C    0.056910
    28  C   -0.133033
    29  C   -0.054708
    30  C    0.032655
    31  C    0.040496
    32  C   -0.003100
    33  C   -0.058448
    34  N   -0.409792
    35  C    0.142235
    36  C   -0.198696
    37  C   -0.081906
    38  C    0.151180
    39  C    0.082285
    40  C    0.176387
    41  O   -0.195524
    42  C   -0.118699
    43  C    0.215378
    44  O   -0.237615
    45  O   -0.336405
    46  C    0.133878
    47  C    0.273971
    48  C   -0.133118
    49  C   -0.180149
    50  C    0.032296
    51  C   -0.000476
    52  C   -0.033730
    53  C    0.028562
    54  C   -0.256127
    55  C    0.023845
    56  C    0.010656
    57  C   -0.058817
    58  C    0.027411
    59  C   -0.191472
    60  C   -0.001447
    61  C    0.041798
    62  C   -0.049728
    63  C    0.057113
    64  C   -0.282917
    65  C    0.022102
    66  C    0.019257
    67  H   -0.011044
    68  H    0.023774
    69  H   -0.006640
    70  H    0.032044
    71  H    0.056244
    72  H    0.009370
    73  H    0.055303
    74  H    0.042103
    75  H    0.050235
    76  H    0.030815
    77  H    0.067690
    78  H    0.065045
    79  H    0.059095
    80  H    0.046263
    81  H    0.049921
    82  H    0.054984
    83  H    0.053398
    84  H    0.062053
    85  H    0.041769
    86  H    0.029085
    87  H    0.042718
    88  H    0.060855
    89  H    0.029406
    90  H    0.033684
    91  H    0.037453
    92  H    0.039931
    93  H    0.031183
    94  H    0.050739
    95  H    0.039720
    96  H    0.064622
    97  H    0.053049
    98  H    0.064233
    99  H    0.044818
   100  H    0.066389
   101  H    0.072024
   102  H    0.066549
   103  H    0.041025
   104  H    0.019247
   105  H    0.043123
   106  H    0.010123
   107  H    0.052910
   108  H    0.005837
   109  H    0.027067
   110  H    0.027747
   111  H    0.036914
   112  H    0.026334
   113  H    0.016099
   114  H    0.005675
   115  H    0.025234
   116  H    0.048078
   117  H    0.032729
   118  H    0.028620
   119  H    0.014204
   120  H    0.017007
   121  H    0.012922
   122  H    0.012367
   123  H    0.018873
   124  H    0.022038
   125  H    0.008326
   126  H    0.036542
   127  H    0.036313
   128  H    0.017843
   129  H    0.007943
   130  H    0.011550
   131  H    0.007474
   132  H    0.018477
   133  H    0.014058
   134  H    0.027588
   135  H    0.019867
   136  H    0.017463
   137  H    0.038235
   138  H    0.039162
   139  H    0.005730
   140  H    0.033584
 Sum of Mulliken charges =  -0.00000

 Dipole moment (field-independent basis, Debye):
    X=              3.6777    Y=              2.3415    Z=              0.2328  Tot=              4.3660
 Quadrupole moment (field-independent basis, Debye-Ang):
   XX=           -367.3683   YY=           -415.8061   ZZ=           -404.0235
   XY=              0.9696   XZ=             13.5489   YZ=              3.5862

 Normal termination of Gaussian 16 at Fri Apr 29 12:49:23 2022.
