 Gaussian 16, Revision A.03,
 Gaussian 16:  ES64L-G16RevA.03 25-Dec-2016

 --------------------
 #p ZINDO=(nstates=5)
 --------------------

 -----------------------------
 step_301_chromophore_13 ZINDO
 -----------------------------
 Symbolic Z-matrix:
 Charge =  0 Multiplicity = 1

                         Standard orientation:
 ---------------------------------------------------------------------
 Center     Atomic      Atomic             Coordinates (Angstroms)
 Number     Number       Type             X           Y           Z
 ---------------------------------------------------------------------
      1         12           0       -6.065485    0.462838   -0.116134
      2          6           0       -3.843936   -2.356617    0.044818
      3          6           0       -3.424491    2.521006    0.418358
      4          6           0       -8.304947    2.939432    0.243842
      5          6           0       -8.669156   -1.875793   -0.667136
      6          7           0       -3.881801    0.072130    0.141100
      7          6           0       -3.219496   -1.132014    0.299718
      8          6           0       -1.706689   -0.878175    0.604433
      9          6           0       -1.614571    0.684469    0.827512
     10          6           0       -3.043197    1.140071    0.479545
     11          6           0       -1.289930    1.207052    2.198274
     12          6           0       -0.665835   -1.358481   -0.531749
     13          6           0        0.676006   -1.887100    0.044828
     14          6           0        1.966352   -1.512173   -0.672312
     15          8           0        2.027377   -0.653138   -1.516320
     16          8           0        3.080422   -2.258650   -0.295454
     17          7           0       -5.890156    2.544962   -0.097871
     18          6           0       -4.689216    3.175599    0.185414
     19          6           0       -4.997688    4.633783    0.349221
     20          6           0       -6.451968    4.760850    0.405724
     21          6           0       -6.967330    3.388389    0.148414
     22          6           0       -3.897258    5.707911    0.611893
     23          6           0       -7.251384    6.021175    0.802564
     24          8           0       -8.481302    6.019904    0.851514
     25          6           0       -6.518216    7.287439    1.160307
     26          7           0       -8.163125    0.473670   -0.061449
     27          6           0       -8.872150    1.613393    0.165550
     28          6           0      -10.407160    1.374951    0.008805
     29          6           0      -10.504085   -0.063575   -0.550140
     30          6           0       -9.041941   -0.531087   -0.382666
     31          6           0      -11.305326    1.693476    1.277305
     32          6           0      -11.099950   -0.316049   -1.958448
     33          6           0      -10.197757    0.035542   -3.210958
     34          7           0       -6.345097   -1.645968   -0.083640
     35          6           0       -7.420006   -2.404214   -0.472231
     36          6           0       -7.054545   -3.836321   -0.561572
     37          6           0       -5.643894   -3.853940   -0.437895
     38          6           0       -5.269718   -2.493252   -0.170741
     39          6           0       -8.015571   -4.987382   -0.777716
     40          6           0       -4.429779   -4.726085   -0.459895
     41          8           0       -4.246210   -5.914824   -0.687613
     42          6           0       -3.259595   -3.726730   -0.038982
     43          6           0       -2.668138   -4.204783    1.223829
     44          8           0       -3.253454   -4.253034    2.269536
     45          8           0       -1.495734   -4.771395    1.006515
     46          6           0       -0.745297   -5.298378    2.167196
     47          6           0        4.280874   -2.098880   -1.156731
     48          6           0        5.231980   -1.111913   -0.497480
     49          6           0        6.578296   -1.101996   -0.334386
     50          6           0        7.620802   -2.006955   -0.948499
     51          6           0        7.200632    0.063324    0.415219
     52          6           0        7.355502    1.410149   -0.386465
     53          6           0        8.616411    2.236041    0.058204
     54          6           0        9.533654    2.321043   -1.164746
     55          6           0        9.054825    3.180219   -2.365907
     56          6           0       10.308687    0.979719   -1.452909
     57          6           0       11.555852    1.266818   -2.329382
     58          6           0       12.728068    0.393306   -1.897397
     59          6           0       13.890885    1.229364   -1.250553
     60          6           0       14.755113    1.947857   -2.353657
     61          6           0       14.846584    0.431714   -0.305694
     62          6           0       14.505207    0.725538    1.170837
     63          6           0       14.082364   -0.473782    1.987924
     64          6           0       12.658677   -0.318073    2.364447
     65          6           0       12.516814    0.173367    3.821796
     66          6           0       11.960669   -1.644001    2.175992
     67          1           0       -2.551993    3.138236    0.641391
     68          1           0       -9.103076    3.637825    0.504209
     69          1           0       -9.445836   -2.597025   -0.931537
     70          1           0       -1.488627   -1.413777    1.529107
     71          1           0       -0.967254    1.207752    0.122564
     72          1           0       -0.915919    0.336314    2.735926
     73          1           0       -2.083470    1.493473    2.888360
     74          1           0       -0.426815    1.866571    2.100839
     75          1           0       -0.554948   -0.501453   -1.196646
     76          1           0       -1.238753   -2.102126   -1.084291
     77          1           0        0.614121   -2.963843   -0.114018
     78          1           0        0.612733   -1.753875    1.124536
     79          1           0       -4.068797    6.085667    1.620444
     80          1           0       -4.120641    6.487189   -0.116559
     81          1           0       -2.905768    5.294605    0.427645
     82          1           0       -5.754886    7.264775    1.937942
     83          1           0       -7.226187    7.997682    1.587526
     84          1           0       -6.123605    7.595033    0.191052
     85          1           0      -10.773870    2.049827   -0.764451
     86          1           0      -11.000972   -0.751940    0.133363
     87          1           0      -12.052491    2.364736    0.855364
     88          1           0      -10.694855    2.087770    2.089549
     89          1           0      -11.797427    0.742879    1.482088
     90          1           0      -11.972489    0.332580   -2.035183
     91          1           0      -11.451722   -1.344814   -1.879102
     92          1           0      -10.751688    0.626357   -3.939998
     93          1           0       -9.900912   -0.855307   -3.763182
     94          1           0       -9.220519    0.483545   -3.029649
     95          1           0       -8.405267   -4.933398   -1.793994
     96          1           0       -8.829141   -5.060297   -0.056824
     97          1           0       -7.344035   -5.836786   -0.901975
     98          1           0       -2.464146   -3.917621   -0.759604
     99          1           0       -0.160797   -4.445155    2.511958
    100          1           0       -0.096719   -6.123967    1.873804
    101          1           0       -1.332235   -5.652175    3.015287
    102          1           0        3.966559   -1.817399   -2.161922
    103          1           0        4.859842   -3.021374   -1.195161
    104          1           0        4.705930   -0.372691    0.105977
    105          1           0        8.266421   -1.435129   -1.615162
    106          1           0        7.173951   -2.777145   -1.576984
    107          1           0        8.217695   -2.591892   -0.248125
    108          1           0        8.188733   -0.145468    0.825253
    109          1           0        6.619664    0.283530    1.310746
    110          1           0        6.487020    1.921555    0.030300
    111          1           0        7.344201    1.286201   -1.469880
    112          1           0        9.125860    1.854363    0.942459
    113          1           0        8.276467    3.270146    0.114599
    114          1           0       10.375942    2.830489   -0.697852
    115          1           0        9.493816    2.635617   -3.201978
    116          1           0        9.357844    4.217175   -2.228983
    117          1           0        7.979908    3.140944   -2.540473
    118          1           0        9.562308    0.277933   -1.824472
    119          1           0       10.696062    0.726789   -0.466185
    120          1           0       11.864261    2.301752   -2.485079
    121          1           0       11.275081    1.091991   -3.368458
    122          1           0       13.037783   -0.058534   -2.839188
    123          1           0       12.313581   -0.431199   -1.315803
    124          1           0       13.410676    2.030376   -0.687365
    125          1           0       14.149625    1.829961   -3.252069
    126          1           0       15.704457    1.473797   -2.600656
    127          1           0       14.855820    3.020081   -2.186184
    128          1           0       15.897211    0.621893   -0.525722
    129          1           0       14.756774   -0.643670   -0.455355
    130          1           0       13.823141    1.574021    1.233499
    131          1           0       15.427882    1.145084    1.569567
    132          1           0       14.706720   -0.523280    2.879621
    133          1           0       14.207979   -1.373807    1.385282
    134          1           0       12.171098    0.434739    1.744037
    135          1           0       11.926918    1.084391    3.718737
    136          1           0       13.488451    0.533861    4.160050
    137          1           0       12.075040   -0.552598    4.502917
    138          1           0       11.418737   -1.475935    1.244180
    139          1           0       11.289432   -1.770070    3.025447
    140          1           0       12.594202   -2.525756    2.271300
 ---------------------------------------------------------------------

 SCF Done:  E(RZINDO/S) =  -473.946826823     A.U. after   20 cycles

 Excitation energies and oscillator strengths:

 Excited State   1:      Singlet-A      1.2103 eV 1024.39 nm  f=0.5834  <S**2>=0.000
     175 ->178         0.20260
     176 ->177         0.65952
 This state for optimization and/or second-order correction.
 Total Energy, E(CIS/TDA) =  -473.902348224
 Copying the excited state density for this state as the 1-particle RhoCI density.

 Excited State   2:      Singlet-A      1.8717 eV  662.40 nm  f=0.0015  <S**2>=0.000
     175 ->177        -0.48720
     176 ->178         0.49354

 Excited State   3:      Singlet-A      2.8809 eV  430.37 nm  f=0.1072  <S**2>=0.000
     175 ->177         0.12750
     176 ->178         0.15289
     176 ->179         0.64039

 Excited State   4:      Singlet-A      2.9566 eV  419.34 nm  f=1.1290  <S**2>=0.000
     175 ->177         0.44386
     176 ->178         0.44782
     176 ->179        -0.20673
     176 ->180         0.14884

 Excited State   5:      Singlet-A      3.0756 eV  403.12 nm  f=0.0002  <S**2>=0.000
     168 ->177         0.26381
     168 ->178         0.15450
     168 ->179         0.31615
     168 ->180         0.35184
     168 ->186         0.24347
     168 ->187        -0.13673
     169 ->179         0.10932
     169 ->180         0.12525

 The electronic state is 1-A.
 Alpha  occ. eigenvalues --   -1.81972  -1.78734  -1.76239  -1.74735  -1.72279
 Alpha  occ. eigenvalues --   -1.68019  -1.67582  -1.63781  -1.57782  -1.57614
 Alpha  occ. eigenvalues --   -1.55980  -1.51263  -1.48471  -1.47925  -1.45023
 Alpha  occ. eigenvalues --   -1.43884  -1.42519  -1.40033  -1.38961  -1.37658
 Alpha  occ. eigenvalues --   -1.35938  -1.33342  -1.32066  -1.30037  -1.28279
 Alpha  occ. eigenvalues --   -1.26275  -1.23745  -1.21219  -1.20419  -1.18474
 Alpha  occ. eigenvalues --   -1.16949  -1.16585  -1.15747  -1.14391  -1.13187
 Alpha  occ. eigenvalues --   -1.12402  -1.10931  -1.09901  -1.04423  -1.04024
 Alpha  occ. eigenvalues --   -1.03096  -1.00455  -0.99080  -0.98425  -0.97557
 Alpha  occ. eigenvalues --   -0.96447  -0.95261  -0.93813  -0.93188  -0.92324
 Alpha  occ. eigenvalues --   -0.90147  -0.89729  -0.88369  -0.87511  -0.85423
 Alpha  occ. eigenvalues --   -0.84211  -0.82995  -0.82139  -0.81298  -0.80489
 Alpha  occ. eigenvalues --   -0.79981  -0.79158  -0.78830  -0.77030  -0.76783
 Alpha  occ. eigenvalues --   -0.76025  -0.74887  -0.74133  -0.73917  -0.73160
 Alpha  occ. eigenvalues --   -0.72858  -0.72325  -0.71463  -0.71122  -0.70641
 Alpha  occ. eigenvalues --   -0.70196  -0.68886  -0.68583  -0.68459  -0.68039
 Alpha  occ. eigenvalues --   -0.66822  -0.66781  -0.66513  -0.66381  -0.66289
 Alpha  occ. eigenvalues --   -0.65522  -0.65167  -0.64456  -0.64155  -0.63828
 Alpha  occ. eigenvalues --   -0.63403  -0.62859  -0.62699  -0.62268  -0.61872
 Alpha  occ. eigenvalues --   -0.61769  -0.61385  -0.60818  -0.60335  -0.59964
 Alpha  occ. eigenvalues --   -0.59848  -0.59538  -0.59137  -0.58144  -0.57960
 Alpha  occ. eigenvalues --   -0.57581  -0.57172  -0.56946  -0.56622  -0.56293
 Alpha  occ. eigenvalues --   -0.56202  -0.55780  -0.55583  -0.55181  -0.54996
 Alpha  occ. eigenvalues --   -0.53959  -0.53066  -0.53004  -0.52641  -0.52398
 Alpha  occ. eigenvalues --   -0.52346  -0.52083  -0.51792  -0.51426  -0.51029
 Alpha  occ. eigenvalues --   -0.50941  -0.50757  -0.50645  -0.50501  -0.50190
 Alpha  occ. eigenvalues --   -0.49958  -0.49716  -0.49587  -0.49383  -0.49096
 Alpha  occ. eigenvalues --   -0.49042  -0.48953  -0.48522  -0.48411  -0.48121
 Alpha  occ. eigenvalues --   -0.47727  -0.47165  -0.47107  -0.46536  -0.46444
 Alpha  occ. eigenvalues --   -0.46199  -0.46005  -0.45557  -0.45462  -0.45202
 Alpha  occ. eigenvalues --   -0.45144  -0.45063  -0.44581  -0.44468  -0.43645
 Alpha  occ. eigenvalues --   -0.42816  -0.42670  -0.42266  -0.42160  -0.41716
 Alpha  occ. eigenvalues --   -0.41645  -0.41319  -0.40783  -0.39402  -0.38456
 Alpha  occ. eigenvalues --   -0.37647  -0.37370  -0.35607  -0.35380  -0.34432
 Alpha  occ. eigenvalues --   -0.32939  -0.32370  -0.32276  -0.31762  -0.26427
 Alpha  occ. eigenvalues --   -0.21012
 Alpha virt. eigenvalues --   -0.07914  -0.02333  -0.00496   0.01187   0.01764
 Alpha virt. eigenvalues --    0.02472   0.03209   0.03467   0.04553   0.04883
 Alpha virt. eigenvalues --    0.05926   0.06528   0.06715   0.07458   0.07943

 Mulliken charges:
               1
     1  Mg   0.430875
     2  C   -0.045554
     3  C   -0.096355
     4  C   -0.059096
     5  C   -0.061444
     6  N   -0.301134
     7  C    0.116561
     8  C   -0.003701
     9  C    0.010530
    10  C    0.132190
    11  C   -0.051234
    12  C   -0.030379
    13  C    0.006131
    14  C    0.473758
    15  O   -0.507475
    16  O   -0.279693
    17  N   -0.322672
    18  C    0.117421
    19  C   -0.009000
    20  C   -0.051747
    21  C    0.134898
    22  C   -0.045211
    23  C    0.333792
    24  O   -0.523475
    25  C   -0.030743
    26  N   -0.251582
    27  C    0.117335
    28  C    0.000960
    29  C    0.000767
    30  C    0.110281
    31  C   -0.056159
    32  C   -0.022064
    33  C   -0.056948
    34  N   -0.322903
    35  C    0.099028
    36  C    0.029526
    37  C   -0.058507
    38  C    0.116389
    39  C   -0.042234
    40  C    0.339177
    41  O   -0.508065
    42  C    0.056947
    43  C    0.497080
    44  O   -0.530457
    45  O   -0.263182
    46  C    0.074774
    47  C    0.109332
    48  C   -0.080908
    49  C   -0.002701
    50  C   -0.041505
    51  C   -0.027697
    52  C   -0.041294
    53  C   -0.040135
    54  C   -0.032074
    55  C   -0.054509
    56  C   -0.035803
    57  C   -0.039395
    58  C   -0.033265
    59  C   -0.009897
    60  C   -0.065290
    61  C   -0.037073
    62  C   -0.040537
    63  C   -0.023178
    64  C   -0.010538
    65  C   -0.064198
    66  C   -0.063629
    67  H    0.020943
    68  H    0.043030
    69  H    0.026820
    70  H    0.032592
    71  H    0.039134
    72  H    0.003962
    73  H    0.039265
    74  H    0.025326
    75  H    0.037467
    76  H    0.026431
    77  H    0.036920
    78  H    0.053171
    79  H    0.037771
    80  H    0.029374
    81  H    0.032792
    82  H    0.038247
    83  H    0.032900
    84  H    0.043823
    85  H    0.026451
    86  H    0.025357
    87  H    0.026946
    88  H    0.040798
    89  H    0.023641
    90  H    0.016143
    91  H    0.026926
    92  H    0.020131
    93  H    0.013631
    94  H    0.031204
    95  H    0.026458
    96  H    0.044509
    97  H    0.033935
    98  H    0.047192
    99  H    0.029727
   100  H    0.038065
   101  H    0.054827
   102  H    0.061731
   103  H    0.038041
   104  H    0.028807
   105  H    0.030622
   106  H    0.008841
   107  H    0.031613
   108  H    0.013222
   109  H    0.016267
   110  H    0.017744
   111  H    0.038000
   112  H    0.034298
   113  H    0.015411
   114  H   -0.005392
   115  H    0.022745
   116  H    0.029096
   117  H    0.020409
   118  H    0.032562
   119  H    0.019172
   120  H    0.026477
   121  H    0.005844
   122  H    0.012736
   123  H    0.021176
   124  H    0.023852
   125  H    0.009506
   126  H    0.025774
   127  H    0.022702
   128  H    0.019981
   129  H    0.016061
   130  H    0.022884
   131  H    0.002802
   132  H    0.020433
   133  H    0.018279
   134  H    0.021949
   135  H    0.012376
   136  H    0.016035
   137  H    0.030582
   138  H    0.023624
   139  H    0.008273
   140  H    0.026445
 Sum of Mulliken charges =   0.00000

 Dipole moment (field-independent basis, Debye):
    X=              4.6209    Y=              3.0604    Z=              0.5105  Tot=              5.5660
 N-N= 4.248467497213D+03 E-N= 0.000000000000D+00  KE=-9.171192297327D+03
 Leave Link  601 at Fri Apr 29 13:00:58 2022, MaxMem=  6710886400 cpu:               0.7 elap:               0.0
 (Enter /sw/apps/gaussian-16.0/g16/l9999.exe)
 1\1\GINC-BP1-COMPUTE070\SP\RZINDO CIS\STO-3G\C55H74Mg1N4O6\OF15641\29-
 Apr-2022\0\\#p ZINDO=(nstates=5)\\step_301_chromophore_13 ZINDO\\0,1\M
 g,0,46.75,24.604,28.218\C,0,47.409,27.01,30.804\C,0,45.704,22.411,30.5
 83\C,0,46.689,22.292,25.783\C,0,47.882,27.057,25.926\N,0,46.547,24.767
 ,30.436\C,0,46.984,25.768,31.285\C,0,46.748,25.352,32.774\C,0,46.304,2
 3.837,32.686\C,0,46.2,23.624,31.165\C,0,47.217,22.777,33.234\C,0,45.66
 ,26.223,33.588\C,0,46.017,26.41,35.088\C,0,44.894,26.32,36.113\O,0,43.

 Normal termination of Gaussian 16 at Fri Apr 29 13:00:59 2022.
