 Gaussian 16, Revision A.03,
 Gaussian 16:  ES64L-G16RevA.03 25-Dec-2016

 ------------------------------
 #p blyp/Def2SVP td=(nstates=5)
 ------------------------------

 -------------------------------------------------
 step_851_chromophore_4 TDDFT with blyp functional
 -------------------------------------------------
 Symbolic Z-matrix:
 Charge =  0 Multiplicity = 1

                         Standard orientation:
 ---------------------------------------------------------------------
 Center     Atomic      Atomic             Coordinates (Angstroms)
 Number     Number       Type             X           Y           Z
 ---------------------------------------------------------------------
      1         12           0        5.754474    0.649670    0.088941
      2          6           0        3.721050   -2.134285    0.143839
      3          6           0        3.100688    2.580571   -0.690132
      4          6           0        7.938526    3.124337   -0.071888
      5          6           0        8.472317   -1.661445    0.357442
      6          7           0        3.591527    0.200010   -0.276150
      7          6           0        2.973357   -0.945408   -0.114934
      8          6           0        1.483288   -0.791894   -0.338227
      9          6           0        1.386941    0.685728   -0.902285
     10          6           0        2.781529    1.218231   -0.523773
     11          6           0        0.943597    0.874756   -2.350265
     12          6           0        0.714190   -1.179437    0.993571
     13          6           0       -0.842257   -0.918522    0.983633
     14          6           0       -1.644841   -2.235893    1.067380
     15          8           0       -1.396175   -3.209760    1.741252
     16          8           0       -2.741255   -2.148491    0.242494
     17          7           0        5.520884    2.596666   -0.232679
     18          6           0        4.318222    3.253764   -0.581709
     19          6           0        4.561821    4.659660   -0.556291
     20          6           0        5.994968    4.849700   -0.425432
     21          6           0        6.561609    3.531387   -0.277098
     22          6           0        3.481563    5.783151   -0.585650
     23          6           0        6.856759    6.119593   -0.395696
     24          8           0        8.047988    6.149082   -0.200858
     25          6           0        6.169071    7.403592   -0.607937
     26          7           0        7.948147    0.704407    0.076662
     27          6           0        8.557536    1.858626    0.080983
     28          6           0       10.085113    1.660108    0.093950
     29          6           0       10.235776    0.142909    0.385176
     30          6           0        8.804540   -0.313135    0.327283
     31          6           0       10.813616    2.261771   -1.191766
     32          6           0       10.924455   -0.141579    1.761554
     33          6           0       12.459685   -0.301572    1.751125
     34          7           0        6.124226   -1.446340    0.119025
     35          6           0        7.265405   -2.237334    0.279103
     36          6           0        6.931008   -3.592647    0.459190
     37          6           0        5.517984   -3.639721    0.393153
     38          6           0        5.093206   -2.286362    0.222620
     39          6           0        7.894742   -4.732908    0.647821
     40          6           0        4.326056   -4.511311    0.416331
     41          8           0        4.197033   -5.703589    0.634769
     42          6           0        3.113491   -3.563542    0.294822
     43          6           0        2.275302   -3.866544   -0.844737
     44          8           0        2.635044   -3.918833   -2.025243
     45          8           0        1.041248   -4.267587   -0.428323
     46          6           0        0.066556   -4.909764   -1.354374
     47          6           0       -3.579545   -3.312452    0.042628
     48          6           0       -4.931876   -2.656579   -0.049023
     49          6           0       -6.107326   -3.311720    0.017050
     50          6           0       -6.400375   -4.828309   -0.042934
     51          6           0       -7.365499   -2.416980    0.101611
     52          6           0       -7.951170   -1.694311   -1.108168
     53          6           0       -7.933586   -0.069511   -1.164580
     54          6           0       -9.396119    0.428959   -1.079276
     55          6           0      -10.224103    0.342405   -2.476042
     56          6           0       -9.455389    1.829777   -0.428835
     57          6           0       -9.637519    1.743045    1.153816
     58          6           0      -10.217990    2.997512    1.716112
     59          6           0      -11.636306    2.696075    2.362750
     60          6           0      -11.823512    3.459402    3.767240
     61          6           0      -12.883094    2.976881    1.487342
     62          6           0      -13.759334    1.755676    1.278303
     63          6           0      -13.439219    0.911214    0.001761
     64          6           0      -14.620571    1.024398   -0.988445
     65          6           0      -15.826637    0.158010   -0.544279
     66          6           0      -14.107162    0.778339   -2.404376
     67          1           0        2.294378    3.225997   -1.043513
     68          1           0        8.703630    3.895797    0.036220
     69          1           0        9.298776   -2.257805    0.750464
     70          1           0        1.114574   -1.525509   -1.055719
     71          1           0        0.623541    1.246116   -0.362661
     72          1           0        1.764264    0.733012   -3.052610
     73          1           0        0.648563    1.923558   -2.358029
     74          1           0        0.046588    0.274452   -2.503156
     75          1           0        1.086541   -0.429405    1.692780
     76          1           0        0.982403   -2.174516    1.350476
     77          1           0       -1.038134   -0.335415    0.083323
     78          1           0       -1.035844   -0.230824    1.806672
     79          1           0        3.598365    6.308486   -1.533575
     80          1           0        3.521658    6.524431    0.211970
     81          1           0        2.530185    5.254196   -0.523775
     82          1           0        6.868459    8.178158   -0.292149
     83          1           0        5.262726    7.475220   -0.006755
     84          1           0        5.831775    7.531051   -1.636198
     85          1           0       10.360525    2.215335    0.990143
     86          1           0       10.890887   -0.266672   -0.384275
     87          1           0       11.692447    1.683158   -1.475990
     88          1           0       11.161166    3.222161   -0.810051
     89          1           0       10.156615    2.428880   -2.045631
     90          1           0       10.472078   -0.965998    2.312664
     91          1           0       10.685872    0.735676    2.363148
     92          1           0       12.791142   -0.701855    0.792861
     93          1           0       12.661882   -1.087151    2.479752
     94          1           0       12.882228    0.688319    1.920295
     95          1           0        7.472271   -5.393704    1.404195
     96          1           0        8.844774   -4.330718    1.000263
     97          1           0        7.899328   -5.242864   -0.316181
     98          1           0        2.538796   -3.641305    1.218231
     99          1           0        0.361414   -5.959146   -1.362755
    100          1           0        0.076100   -4.369375   -2.300923
    101          1           0       -0.950612   -4.854076   -0.966099
    102          1           0       -3.671103   -4.042954    0.846139
    103          1           0       -3.357550   -3.754509   -0.929352
    104          1           0       -4.916724   -1.566466   -0.040543
    105          1           0       -6.456386   -5.192245   -1.069189
    106          1           0       -7.364275   -5.025563    0.424772
    107          1           0       -5.666521   -5.442619    0.479037
    108          1           0       -7.196629   -1.590371    0.791375
    109          1           0       -8.160457   -3.035420    0.518494
    110          1           0       -8.985062   -2.038019   -1.135111
    111          1           0       -7.417220   -2.028737   -1.997551
    112          1           0       -7.332801    0.339795   -1.976428
    113          1           0       -7.499133    0.250530   -0.217448
    114          1           0       -9.885162   -0.207369   -0.341574
    115          1           0      -10.823576    1.240437   -2.625576
    116          1           0      -10.922306   -0.493436   -2.458497
    117          1           0       -9.556036    0.190081   -3.324068
    118          1           0      -10.168807    2.449656   -0.971113
    119          1           0       -8.476835    2.277280   -0.603292
    120          1           0       -8.651000    1.714226    1.618163
    121          1           0      -10.228159    0.897557    1.505203
    122          1           0      -10.412496    3.607333    0.833225
    123          1           0       -9.577301    3.471081    2.459299
    124          1           0      -11.609792    1.696171    2.794698
    125          1           0      -12.024438    2.677305    4.498790
    126          1           0      -12.581209    4.243228    3.746558
    127          1           0      -10.903996    3.931076    4.111572
    128          1           0      -12.643679    3.329612    0.483204
    129          1           0      -13.594489    3.578722    2.051666
    130          1           0      -14.793576    2.098395    1.232519
    131          1           0      -13.747206    1.078050    2.131368
    132          1           0      -13.511859   -0.091160    0.424352
    133          1           0      -12.447450    0.987675   -0.442955
    134          1           0      -15.021723    2.037155   -1.008928
    135          1           0      -16.040373   -0.496952   -1.389063
    136          1           0      -16.694827    0.793432   -0.367514
    137          1           0      -15.569618   -0.355102    0.381649
    138          1           0      -14.748451    1.325084   -3.095335
    139          1           0      -14.228162   -0.258540   -2.717065
    140          1           0      -13.074440    1.103634   -2.529569
 ---------------------------------------------------------------------

 SCF Done:  E(RB-LYP) =  -3007.37134452     A.U. after   20 cycles

 Excitation energies and oscillator strengths:

 Excited State   1:      Singlet-A      1.8816 eV  658.95 nm  f=0.2692  <S**2>=0.000
     245 -> 247        0.10058
     245 -> 248        0.22440
     246 -> 247        0.67002
     246 <- 247       -0.12804
 This state for optimization and/or second-order correction.
 Total Energy, E(TD-HF/TD-DFT) =  -3007.30219867
 Copying the excited state density for this state as the 1-particle RhoCI density.

 Excited State   2:      Singlet-A      1.9872 eV  623.92 nm  f=0.0788  <S**2>=0.000
     243 -> 247        0.26156
     244 -> 247       -0.13155
     245 -> 247        0.59165
     246 -> 247       -0.10491
     246 -> 248       -0.20964

 Excited State   3:      Singlet-A      2.0568 eV  602.79 nm  f=0.0035  <S**2>=0.000
     244 -> 247        0.69260

 Excited State   4:      Singlet-A      2.0896 eV  593.35 nm  f=0.0131  <S**2>=0.000
     243 -> 247        0.64700
     245 -> 247       -0.24580
     246 -> 248        0.12417

 Excited State   5:      Singlet-A      2.4339 eV  509.40 nm  f=0.0000  <S**2>=0.000
     241 -> 247        0.70562

 The electronic state is 1-A.
 Alpha  occ. eigenvalues --  -46.26961 -18.82365 -18.81259 -18.77400 -18.75755
 Alpha  occ. eigenvalues --  -18.75556 -18.75494 -14.03211 -14.02502 -14.00821
 Alpha  occ. eigenvalues --  -14.00292 -10.04641 -10.03112  -9.99726  -9.99515
 Alpha  occ. eigenvalues --   -9.98298  -9.97879  -9.96525  -9.96344  -9.96004
 Alpha  occ. eigenvalues --   -9.95752  -9.95747  -9.95558  -9.94482  -9.94285
 Alpha  occ. eigenvalues --   -9.94229  -9.94185  -9.94054  -9.93989  -9.93623
 Alpha  occ. eigenvalues --   -9.93480  -9.93405  -9.93404  -9.93339  -9.93236
 Alpha  occ. eigenvalues --   -9.93236  -9.93064  -9.93023  -9.93010  -9.92765
 Alpha  occ. eigenvalues --   -9.92513  -9.92505  -9.92467  -9.92344  -9.92224
 Alpha  occ. eigenvalues --   -9.92147  -9.92065  -9.91921  -9.91900  -9.91701
 Alpha  occ. eigenvalues --   -9.91592  -9.91571  -9.91539  -9.91518  -9.91405
 Alpha  occ. eigenvalues --   -9.91352  -9.91316  -9.91232  -9.91182  -9.91001
 Alpha  occ. eigenvalues --   -9.90968  -9.90747  -9.90723  -9.90633  -9.90615
 Alpha  occ. eigenvalues --   -9.90437  -2.91609  -1.72037  -1.71505  -1.71308
 Alpha  occ. eigenvalues --   -0.98487  -0.96578  -0.92407  -0.91431  -0.90857
 Alpha  occ. eigenvalues --   -0.88217  -0.88068  -0.87283  -0.85752  -0.83816
 Alpha  occ. eigenvalues --   -0.75404  -0.73283  -0.72946  -0.72474  -0.72303
 Alpha  occ. eigenvalues --   -0.71904  -0.71472  -0.71105  -0.70615  -0.70391
 Alpha  occ. eigenvalues --   -0.69589  -0.69230  -0.68111  -0.67550  -0.67198
 Alpha  occ. eigenvalues --   -0.66543  -0.65949  -0.65250  -0.65004  -0.64590
 Alpha  occ. eigenvalues --   -0.63846  -0.62743  -0.62521  -0.61849  -0.61058
 Alpha  occ. eigenvalues --   -0.60475  -0.60267  -0.60100  -0.59443  -0.59056
 Alpha  occ. eigenvalues --   -0.58231  -0.57719  -0.57122  -0.55649  -0.54413
 Alpha  occ. eigenvalues --   -0.54025  -0.53515  -0.52524  -0.51908  -0.51554
 Alpha  occ. eigenvalues --   -0.51344  -0.50730  -0.50644  -0.50237  -0.49967
 Alpha  occ. eigenvalues --   -0.49882  -0.49135  -0.48275  -0.48271  -0.46564
 Alpha  occ. eigenvalues --   -0.46210  -0.45929  -0.45819  -0.45049  -0.44900
 Alpha  occ. eigenvalues --   -0.44615  -0.44226  -0.42706  -0.42530  -0.42112
 Alpha  occ. eigenvalues --   -0.41968  -0.41734  -0.41621  -0.41401  -0.40957
 Alpha  occ. eigenvalues --   -0.40803  -0.40664  -0.40304  -0.40246  -0.39979
 Alpha  occ. eigenvalues --   -0.39748  -0.39695  -0.39428  -0.39264  -0.39249
 Alpha  occ. eigenvalues --   -0.39062  -0.38832  -0.38779  -0.38584  -0.38475
 Alpha  occ. eigenvalues --   -0.38163  -0.37991  -0.37833  -0.37555  -0.37140
 Alpha  occ. eigenvalues --   -0.37010  -0.36969  -0.36935  -0.36545  -0.36437
 Alpha  occ. eigenvalues --   -0.36404  -0.35912  -0.35882  -0.35727  -0.35547
 Alpha  occ. eigenvalues --   -0.35395  -0.35054  -0.35038  -0.34973  -0.34730
 Alpha  occ. eigenvalues --   -0.34596  -0.34506  -0.34428  -0.34169  -0.33981
 Alpha  occ. eigenvalues --   -0.33762  -0.33632  -0.33453  -0.33288  -0.33130
 Alpha  occ. eigenvalues --   -0.33078  -0.32784  -0.32703  -0.32601  -0.32359
 Alpha  occ. eigenvalues --   -0.32092  -0.31879  -0.31793  -0.31643  -0.31513
 Alpha  occ. eigenvalues --   -0.31344  -0.31150  -0.30993  -0.30831  -0.30756
 Alpha  occ. eigenvalues --   -0.30571  -0.30215  -0.30027  -0.29898  -0.29680
 Alpha  occ. eigenvalues --   -0.29532  -0.29365  -0.28941  -0.28893  -0.28686
 Alpha  occ. eigenvalues --   -0.28515  -0.28425  -0.27943  -0.27913  -0.27771
 Alpha  occ. eigenvalues --   -0.27630  -0.27601  -0.26981  -0.26659  -0.26607
 Alpha  occ. eigenvalues --   -0.26262  -0.26118  -0.25695  -0.25454  -0.25344
 Alpha  occ. eigenvalues --   -0.25042  -0.24378  -0.24280  -0.24192  -0.23498
 Alpha  occ. eigenvalues --   -0.23235  -0.22651  -0.21751  -0.20848  -0.20561
 Alpha  occ. eigenvalues --   -0.20276  -0.20063  -0.18821  -0.18794  -0.17006
 Alpha  occ. eigenvalues --   -0.16027
 Alpha virt. eigenvalues --   -0.11331  -0.06844  -0.06040  -0.04186  -0.03249
 Alpha virt. eigenvalues --   -0.02385  -0.02169  -0.02062  -0.01103   0.00310
 Alpha virt. eigenvalues --    0.01476   0.01793   0.02302   0.02506   0.02618

 Mulliken charges:
               1
     1  Mg   0.684803
     2  C   -0.024869
     3  C   -0.090778
     4  C   -0.021181
     5  C   -0.124395
     6  N   -0.146714
     7  C   -0.085235
     8  C    0.006935
     9  C   -0.005287
    10  C    0.025812
    11  C    0.152344
    12  C    0.074727
    13  C    0.116824
    14  C    0.094379
    15  O   -0.166081
    16  O   -0.274532
    17  N   -0.384902
    18  C    0.168334
    19  C   -0.148284
    20  C    0.034019
    21  C    0.129088
    22  C    0.153169
    23  C   -0.079008
    24  O   -0.143045
    25  C    0.136176
    26  N   -0.155039
    27  C   -0.062999
    28  C    0.030565
    29  C    0.038260
    30  C   -0.004610
    31  C    0.129355
    32  C    0.039814
    33  C    0.091325
    34  N   -0.240796
    35  C    0.196028
    36  C   -0.212616
    37  C    0.061708
    38  C    0.095739
    39  C    0.196454
    40  C   -0.028263
    41  O   -0.119889
    42  C    0.082347
    43  C    0.097653
    44  O   -0.199990
    45  O   -0.285260
    46  C    0.213168
    47  C    0.332857
    48  C   -0.147317
    49  C   -0.119599
    50  C    0.132567
    51  C    0.114645
    52  C    0.073593
    53  C    0.096386
    54  C   -0.097613
    55  C    0.092266
    56  C    0.090338
    57  C    0.054911
    58  C    0.137283
    59  C   -0.099558
    60  C    0.065725
    61  C    0.173455
    62  C    0.022296
    63  C    0.094762
    64  C   -0.122624
    65  C    0.127434
    66  C    0.117904
    67  H   -0.059468
    68  H   -0.049658
    69  H   -0.063971
    70  H   -0.017837
    71  H   -0.043592
    72  H    0.008456
    73  H   -0.014202
    74  H   -0.002390
    75  H   -0.043485
    76  H    0.022103
    77  H   -0.016660
    78  H    0.008608
    79  H    0.005647
    80  H    0.018720
    81  H   -0.017503
    82  H   -0.008118
    83  H   -0.016619
    84  H    0.010139
    85  H   -0.026430
    86  H   -0.028051
    87  H   -0.006815
    88  H    0.001084
    89  H    0.010900
    90  H   -0.022276
    91  H   -0.033364
    92  H   -0.014230
    93  H   -0.003609
    94  H    0.006084
    95  H    0.008634
    96  H   -0.011796
    97  H    0.022243
    98  H    0.013145
    99  H    0.029817
   100  H    0.021463
   101  H    0.014029
   102  H    0.023256
   103  H    0.005624
   104  H   -0.024372
   105  H    0.011222
   106  H   -0.011522
   107  H   -0.008355
   108  H   -0.031756
   109  H   -0.043600
   110  H   -0.025239
   111  H   -0.035506
   112  H   -0.019839
   113  H   -0.037130
   114  H   -0.033869
   115  H    0.005990
   116  H   -0.005277
   117  H   -0.017105
   118  H   -0.029503
   119  H   -0.036854
   120  H   -0.029874
   121  H   -0.015906
   122  H   -0.033187
   123  H   -0.036207
   124  H   -0.031550
   125  H   -0.016339
   126  H   -0.008868
   127  H   -0.028427
   128  H   -0.026363
   129  H   -0.033395
   130  H   -0.039592
   131  H   -0.043209
   132  H   -0.046206
   133  H   -0.024200
   134  H   -0.034195
   135  H   -0.019118
   136  H   -0.016152
   137  H   -0.011282
   138  H   -0.030546
   139  H   -0.021940
   140  H   -0.025567
 Sum of Mulliken charges =  -0.00000

 Dipole moment (field-independent basis, Debye):
    X=             -3.3340    Y=              2.8436    Z=              0.2160  Tot=              4.3873
 Quadrupole moment (field-independent basis, Debye-Ang):
   XX=           -376.6985   YY=           -428.9129   ZZ=           -410.7705
   XY=              2.2719   XZ=             12.1910   YZ=              1.0796

 Normal termination of Gaussian 16 at Thu May  5 13:03:52 2022.
