 Gaussian 16, Revision A.03,
 Gaussian 16:  ES64L-G16RevA.03 25-Dec-2016

 -----------------------------------
 #p cam-b3lyp/Def2SVP td=(nstates=5)
 -----------------------------------

 ------------------------------------------------------
 step_851_chromophore_4 TDDFT with cam-b3lyp functional
 ------------------------------------------------------
 Symbolic Z-matrix:
 Charge =  0 Multiplicity = 1

                         Standard orientation:
 ---------------------------------------------------------------------
 Center     Atomic      Atomic             Coordinates (Angstroms)
 Number     Number       Type             X           Y           Z
 ---------------------------------------------------------------------
      1         12           0        5.754474    0.649670    0.088941
      2          6           0        3.721050   -2.134285    0.143839
      3          6           0        3.100688    2.580571   -0.690132
      4          6           0        7.938526    3.124337   -0.071888
      5          6           0        8.472317   -1.661445    0.357442
      6          7           0        3.591527    0.200010   -0.276150
      7          6           0        2.973357   -0.945408   -0.114934
      8          6           0        1.483288   -0.791894   -0.338227
      9          6           0        1.386941    0.685728   -0.902285
     10          6           0        2.781529    1.218231   -0.523773
     11          6           0        0.943597    0.874756   -2.350265
     12          6           0        0.714190   -1.179437    0.993571
     13          6           0       -0.842257   -0.918522    0.983633
     14          6           0       -1.644841   -2.235893    1.067380
     15          8           0       -1.396175   -3.209760    1.741252
     16          8           0       -2.741255   -2.148491    0.242494
     17          7           0        5.520884    2.596666   -0.232679
     18          6           0        4.318222    3.253764   -0.581709
     19          6           0        4.561821    4.659660   -0.556291
     20          6           0        5.994968    4.849700   -0.425432
     21          6           0        6.561609    3.531387   -0.277098
     22          6           0        3.481563    5.783151   -0.585650
     23          6           0        6.856759    6.119593   -0.395696
     24          8           0        8.047988    6.149082   -0.200858
     25          6           0        6.169071    7.403592   -0.607937
     26          7           0        7.948147    0.704407    0.076662
     27          6           0        8.557536    1.858626    0.080983
     28          6           0       10.085113    1.660108    0.093950
     29          6           0       10.235776    0.142909    0.385176
     30          6           0        8.804540   -0.313135    0.327283
     31          6           0       10.813616    2.261771   -1.191766
     32          6           0       10.924455   -0.141579    1.761554
     33          6           0       12.459685   -0.301572    1.751125
     34          7           0        6.124226   -1.446340    0.119025
     35          6           0        7.265405   -2.237334    0.279103
     36          6           0        6.931008   -3.592647    0.459190
     37          6           0        5.517984   -3.639721    0.393153
     38          6           0        5.093206   -2.286362    0.222620
     39          6           0        7.894742   -4.732908    0.647821
     40          6           0        4.326056   -4.511311    0.416331
     41          8           0        4.197033   -5.703589    0.634769
     42          6           0        3.113491   -3.563542    0.294822
     43          6           0        2.275302   -3.866544   -0.844737
     44          8           0        2.635044   -3.918833   -2.025243
     45          8           0        1.041248   -4.267587   -0.428323
     46          6           0        0.066556   -4.909764   -1.354374
     47          6           0       -3.579545   -3.312452    0.042628
     48          6           0       -4.931876   -2.656579   -0.049023
     49          6           0       -6.107326   -3.311720    0.017050
     50          6           0       -6.400375   -4.828309   -0.042934
     51          6           0       -7.365499   -2.416980    0.101611
     52          6           0       -7.951170   -1.694311   -1.108168
     53          6           0       -7.933586   -0.069511   -1.164580
     54          6           0       -9.396119    0.428959   -1.079276
     55          6           0      -10.224103    0.342405   -2.476042
     56          6           0       -9.455389    1.829777   -0.428835
     57          6           0       -9.637519    1.743045    1.153816
     58          6           0      -10.217990    2.997512    1.716112
     59          6           0      -11.636306    2.696075    2.362750
     60          6           0      -11.823512    3.459402    3.767240
     61          6           0      -12.883094    2.976881    1.487342
     62          6           0      -13.759334    1.755676    1.278303
     63          6           0      -13.439219    0.911214    0.001761
     64          6           0      -14.620571    1.024398   -0.988445
     65          6           0      -15.826637    0.158010   -0.544279
     66          6           0      -14.107162    0.778339   -2.404376
     67          1           0        2.294378    3.225997   -1.043513
     68          1           0        8.703630    3.895797    0.036220
     69          1           0        9.298776   -2.257805    0.750464
     70          1           0        1.114574   -1.525509   -1.055719
     71          1           0        0.623541    1.246116   -0.362661
     72          1           0        1.764264    0.733012   -3.052610
     73          1           0        0.648563    1.923558   -2.358029
     74          1           0        0.046588    0.274452   -2.503156
     75          1           0        1.086541   -0.429405    1.692780
     76          1           0        0.982403   -2.174516    1.350476
     77          1           0       -1.038134   -0.335415    0.083323
     78          1           0       -1.035844   -0.230824    1.806672
     79          1           0        3.598365    6.308486   -1.533575
     80          1           0        3.521658    6.524431    0.211970
     81          1           0        2.530185    5.254196   -0.523775
     82          1           0        6.868459    8.178158   -0.292149
     83          1           0        5.262726    7.475220   -0.006755
     84          1           0        5.831775    7.531051   -1.636198
     85          1           0       10.360525    2.215335    0.990143
     86          1           0       10.890887   -0.266672   -0.384275
     87          1           0       11.692447    1.683158   -1.475990
     88          1           0       11.161166    3.222161   -0.810051
     89          1           0       10.156615    2.428880   -2.045631
     90          1           0       10.472078   -0.965998    2.312664
     91          1           0       10.685872    0.735676    2.363148
     92          1           0       12.791142   -0.701855    0.792861
     93          1           0       12.661882   -1.087151    2.479752
     94          1           0       12.882228    0.688319    1.920295
     95          1           0        7.472271   -5.393704    1.404195
     96          1           0        8.844774   -4.330718    1.000263
     97          1           0        7.899328   -5.242864   -0.316181
     98          1           0        2.538796   -3.641305    1.218231
     99          1           0        0.361414   -5.959146   -1.362755
    100          1           0        0.076100   -4.369375   -2.300923
    101          1           0       -0.950612   -4.854076   -0.966099
    102          1           0       -3.671103   -4.042954    0.846139
    103          1           0       -3.357550   -3.754509   -0.929352
    104          1           0       -4.916724   -1.566466   -0.040543
    105          1           0       -6.456386   -5.192245   -1.069189
    106          1           0       -7.364275   -5.025563    0.424772
    107          1           0       -5.666521   -5.442619    0.479037
    108          1           0       -7.196629   -1.590371    0.791375
    109          1           0       -8.160457   -3.035420    0.518494
    110          1           0       -8.985062   -2.038019   -1.135111
    111          1           0       -7.417220   -2.028737   -1.997551
    112          1           0       -7.332801    0.339795   -1.976428
    113          1           0       -7.499133    0.250530   -0.217448
    114          1           0       -9.885162   -0.207369   -0.341574
    115          1           0      -10.823576    1.240437   -2.625576
    116          1           0      -10.922306   -0.493436   -2.458497
    117          1           0       -9.556036    0.190081   -3.324068
    118          1           0      -10.168807    2.449656   -0.971113
    119          1           0       -8.476835    2.277280   -0.603292
    120          1           0       -8.651000    1.714226    1.618163
    121          1           0      -10.228159    0.897557    1.505203
    122          1           0      -10.412496    3.607333    0.833225
    123          1           0       -9.577301    3.471081    2.459299
    124          1           0      -11.609792    1.696171    2.794698
    125          1           0      -12.024438    2.677305    4.498790
    126          1           0      -12.581209    4.243228    3.746558
    127          1           0      -10.903996    3.931076    4.111572
    128          1           0      -12.643679    3.329612    0.483204
    129          1           0      -13.594489    3.578722    2.051666
    130          1           0      -14.793576    2.098395    1.232519
    131          1           0      -13.747206    1.078050    2.131368
    132          1           0      -13.511859   -0.091160    0.424352
    133          1           0      -12.447450    0.987675   -0.442955
    134          1           0      -15.021723    2.037155   -1.008928
    135          1           0      -16.040373   -0.496952   -1.389063
    136          1           0      -16.694827    0.793432   -0.367514
    137          1           0      -15.569618   -0.355102    0.381649
    138          1           0      -14.748451    1.325084   -3.095335
    139          1           0      -14.228162   -0.258540   -2.717065
    140          1           0      -13.074440    1.103634   -2.529569
 ---------------------------------------------------------------------

 SCF Done:  E(RCAM-B3LYP) =  -3007.17057765     A.U. after   19 cycles

 Excitation energies and oscillator strengths:

 Excited State   1:      Singlet-A      1.8020 eV  688.03 nm  f=0.3595  <S**2>=0.000
     245 -> 248       -0.21436
     246 -> 247        0.67569
     245 <- 248       -0.11207
 This state for optimization and/or second-order correction.
 Total Energy, E(TD-HF/TD-DFT) =  -3007.10435520
 Copying the excited state density for this state as the 1-particle RhoCI density.

 Excited State   2:      Singlet-A      2.2275 eV  556.62 nm  f=0.1136  <S**2>=0.000
     245 -> 247        0.63946
     246 -> 248        0.29110

 Excited State   3:      Singlet-A      3.3914 eV  365.58 nm  f=0.0021  <S**2>=0.000
     242 -> 247       -0.12384
     244 -> 247        0.67869

 Excited State   4:      Singlet-A      3.5007 eV  354.17 nm  f=0.2792  <S**2>=0.000
     239 -> 247       -0.16996
     239 -> 249        0.11522
     240 -> 247        0.12266
     242 -> 247       -0.39943
     245 -> 247       -0.16602
     246 -> 248        0.47027

 Excited State   5:      Singlet-A      3.5411 eV  350.13 nm  f=0.0104  <S**2>=0.000
     239 -> 247        0.38159
     239 -> 249       -0.22700
     239 -> 251       -0.10585
     240 -> 247       -0.22153
     240 -> 249        0.12506
     241 -> 247        0.28612
     241 -> 249       -0.14827
     242 -> 247       -0.26630
     246 -> 248        0.12362

 The electronic state is 1-A.
 Alpha  occ. eigenvalues --  -46.88476 -19.25226 -19.24321 -19.20420 -19.19155
 Alpha  occ. eigenvalues --  -19.18720 -19.18674 -14.42059 -14.41324 -14.39164
 Alpha  occ. eigenvalues --  -14.38736 -10.39979 -10.38701 -10.35222 -10.34574
 Alpha  occ. eigenvalues --  -10.32303 -10.32038 -10.31134 -10.30654 -10.30301
 Alpha  occ. eigenvalues --  -10.30216 -10.30033 -10.29658 -10.28816 -10.28719
 Alpha  occ. eigenvalues --  -10.28631 -10.28289 -10.28124 -10.28062 -10.28058
 Alpha  occ. eigenvalues --  -10.27814 -10.27648 -10.27481 -10.27371 -10.27292
 Alpha  occ. eigenvalues --  -10.27181 -10.27138 -10.27129 -10.26727 -10.26702
 Alpha  occ. eigenvalues --  -10.26431 -10.26312 -10.26255 -10.26166 -10.26039
 Alpha  occ. eigenvalues --  -10.25967 -10.25796 -10.25713 -10.25691 -10.25652
 Alpha  occ. eigenvalues --  -10.25577 -10.25531 -10.25299 -10.25247 -10.25245
 Alpha  occ. eigenvalues --  -10.25210 -10.25099 -10.25073 -10.24845 -10.24634
 Alpha  occ. eigenvalues --  -10.24572 -10.24399 -10.24394 -10.24314 -10.24252
 Alpha  occ. eigenvalues --  -10.24052  -3.17029  -1.91933  -1.91489  -1.91328
 Alpha  occ. eigenvalues --   -1.16971  -1.15230  -1.10771  -1.10028  -1.08767
 Alpha  occ. eigenvalues --   -1.06241  -1.05926  -1.05035  -1.03449  -1.01166
 Alpha  occ. eigenvalues --   -0.92670  -0.90122  -0.89748  -0.89247  -0.89014
 Alpha  occ. eigenvalues --   -0.88597  -0.88110  -0.87692  -0.87178  -0.87050
 Alpha  occ. eigenvalues --   -0.86118  -0.85580  -0.84361  -0.83768  -0.83323
 Alpha  occ. eigenvalues --   -0.82582  -0.82022  -0.81266  -0.80826  -0.80463
 Alpha  occ. eigenvalues --   -0.79649  -0.78457  -0.78168  -0.77394  -0.76574
 Alpha  occ. eigenvalues --   -0.75866  -0.75616  -0.75397  -0.74707  -0.74310
 Alpha  occ. eigenvalues --   -0.73299  -0.72780  -0.72050  -0.70460  -0.68991
 Alpha  occ. eigenvalues --   -0.68709  -0.68088  -0.66866  -0.66215  -0.65675
 Alpha  occ. eigenvalues --   -0.65517  -0.64914  -0.64760  -0.64188  -0.63985
 Alpha  occ. eigenvalues --   -0.63869  -0.63105  -0.62116  -0.62091  -0.60256
 Alpha  occ. eigenvalues --   -0.59781  -0.59448  -0.59335  -0.58463  -0.58312
 Alpha  occ. eigenvalues --   -0.58117  -0.57864  -0.55837  -0.55727  -0.55509
 Alpha  occ. eigenvalues --   -0.55209  -0.54832  -0.54533  -0.54274  -0.54005
 Alpha  occ. eigenvalues --   -0.53560  -0.53435  -0.53077  -0.52919  -0.52714
 Alpha  occ. eigenvalues --   -0.52483  -0.52434  -0.52131  -0.52054  -0.51729
 Alpha  occ. eigenvalues --   -0.51687  -0.51318  -0.51247  -0.51113  -0.51035
 Alpha  occ. eigenvalues --   -0.50503  -0.50278  -0.50109  -0.49761  -0.49569
 Alpha  occ. eigenvalues --   -0.49534  -0.49389  -0.49139  -0.49068  -0.48997
 Alpha  occ. eigenvalues --   -0.48812  -0.48471  -0.47912  -0.47893  -0.47835
 Alpha  occ. eigenvalues --   -0.47584  -0.47116  -0.47009  -0.46863  -0.46709
 Alpha  occ. eigenvalues --   -0.46649  -0.46407  -0.46344  -0.46136  -0.45856
 Alpha  occ. eigenvalues --   -0.45685  -0.45469  -0.45302  -0.45095  -0.44782
 Alpha  occ. eigenvalues --   -0.44708  -0.44327  -0.44284  -0.44282  -0.44111
 Alpha  occ. eigenvalues --   -0.43757  -0.43645  -0.43514  -0.43239  -0.43163
 Alpha  occ. eigenvalues --   -0.42723  -0.42710  -0.42510  -0.42135  -0.42093
 Alpha  occ. eigenvalues --   -0.42051  -0.41762  -0.41292  -0.41146  -0.41016
 Alpha  occ. eigenvalues --   -0.40644  -0.40541  -0.40263  -0.39995  -0.39963
 Alpha  occ. eigenvalues --   -0.39736  -0.39466  -0.39232  -0.38916  -0.38660
 Alpha  occ. eigenvalues --   -0.38624  -0.38505  -0.38065  -0.37820  -0.37394
 Alpha  occ. eigenvalues --   -0.36923  -0.36803  -0.36606  -0.36531  -0.36322
 Alpha  occ. eigenvalues --   -0.35918  -0.35641  -0.34863  -0.34698  -0.34218
 Alpha  occ. eigenvalues --   -0.33894  -0.33830  -0.33453  -0.31164  -0.30938
 Alpha  occ. eigenvalues --   -0.30663  -0.29950  -0.29914  -0.29332  -0.23650
 Alpha  occ. eigenvalues --   -0.21397
 Alpha virt. eigenvalues --   -0.08362  -0.01914   0.00476   0.02709   0.03008
 Alpha virt. eigenvalues --    0.04386   0.05169   0.05366   0.05988   0.06784
 Alpha virt. eigenvalues --    0.08396   0.08440   0.08752   0.08813   0.09052

 Mulliken charges:
               1
     1  Mg   0.817991
     2  C   -0.056012
     3  C   -0.099684
     4  C   -0.041493
     5  C   -0.121120
     6  N   -0.219444
     7  C   -0.038274
     8  C   -0.042914
     9  C   -0.061405
    10  C    0.040874
    11  C    0.099450
    12  C    0.026081
    13  C    0.049717
    14  C    0.175144
    15  O   -0.206573
    16  O   -0.340972
    17  N   -0.472615
    18  C    0.168824
    19  C   -0.152155
    20  C   -0.040141
    21  C    0.151434
    22  C    0.100361
    23  C    0.006279
    24  O   -0.185071
    25  C    0.051182
    26  N   -0.226807
    27  C   -0.036970
    28  C   -0.027018
    29  C   -0.019966
    30  C    0.013145
    31  C    0.072271
    32  C   -0.012151
    33  C    0.030521
    34  N   -0.329800
    35  C    0.192356
    36  C   -0.205646
    37  C   -0.018592
    38  C    0.135207
    39  C    0.149142
    40  C    0.078004
    41  O   -0.156828
    42  C    0.000589
    43  C    0.186655
    44  O   -0.235829
    45  O   -0.349498
    46  C    0.181368
    47  C    0.296944
    48  C   -0.157618
    49  C   -0.151915
    50  C    0.075377
    51  C    0.059775
    52  C    0.018376
    53  C    0.046324
    54  C   -0.149437
    55  C    0.037469
    56  C    0.035103
    57  C    0.002158
    58  C    0.086016
    59  C   -0.158517
    60  C    0.015099
    61  C    0.115039
    62  C   -0.023493
    63  C    0.041797
    64  C   -0.177310
    65  C    0.065672
    66  C    0.062883
    67  H   -0.026391
    68  H   -0.009677
    69  H   -0.031473
    70  H    0.014471
    71  H   -0.008858
    72  H    0.033687
    73  H    0.008408
    74  H    0.020207
    75  H   -0.010769
    76  H    0.050179
    77  H    0.016344
    78  H    0.041474
    79  H    0.030461
    80  H    0.042906
    81  H    0.008636
    82  H    0.026884
    83  H    0.010121
    84  H    0.038044
    85  H    0.007999
    86  H    0.006911
    87  H    0.015858
    88  H    0.023845
    89  H    0.036333
    90  H    0.006347
    91  H   -0.004589
    92  H    0.007883
    93  H    0.020219
    94  H    0.028305
    95  H    0.035583
    96  H    0.012301
    97  H    0.049089
    98  H    0.057695
    99  H    0.052867
   100  H    0.045623
   101  H    0.032599
   102  H    0.051849
   103  H    0.029915
   104  H    0.010013
   105  H    0.034820
   106  H    0.013169
   107  H    0.015163
   108  H   -0.002492
   109  H   -0.013821
   110  H    0.002650
   111  H   -0.005744
   112  H    0.008549
   113  H   -0.010700
   114  H   -0.004431
   115  H    0.023980
   116  H    0.016113
   117  H    0.008042
   118  H   -0.004099
   119  H   -0.006766
   120  H   -0.001482
   121  H    0.008762
   122  H   -0.005067
   123  H   -0.005908
   124  H   -0.000301
   125  H    0.006404
   126  H    0.013676
   127  H   -0.004576
   128  H   -0.000452
   129  H   -0.003132
   130  H   -0.010907
   131  H   -0.014836
   132  H   -0.016319
   133  H   -0.004205
   134  H   -0.003594
   135  H    0.005590
   136  H    0.008098
   137  H    0.011552
   138  H   -0.004242
   139  H    0.001376
   140  H   -0.005529
 Sum of Mulliken charges =  -0.00000

 Dipole moment (field-independent basis, Debye):
    X=             -3.5356    Y=              2.9268    Z=              0.2686  Tot=              4.5977
 Quadrupole moment (field-independent basis, Debye-Ang):
   XX=           -375.3839   YY=           -425.1054   ZZ=           -411.0932
   XY=              2.1587   XZ=             13.1517   YZ=              0.9780

 Normal termination of Gaussian 16 at Thu May  5 11:47:24 2022.
