 Gaussian 16, Revision A.03,
 Gaussian 16:  ES64L-G16RevA.03 25-Dec-2016

 ---------------------------------
 #p PBE1PBE/Def2SVP td=(nstates=5)
 ---------------------------------

 ----------------------------------------------------
 step_851_chromophore_4 TDDFT with PBE1PBE functional
 ----------------------------------------------------
 Symbolic Z-matrix:
 Charge =  0 Multiplicity = 1

                         Standard orientation:
 ---------------------------------------------------------------------
 Center     Atomic      Atomic             Coordinates (Angstroms)
 Number     Number       Type             X           Y           Z
 ---------------------------------------------------------------------
      1         12           0        5.754474    0.649670    0.088941
      2          6           0        3.721050   -2.134285    0.143839
      3          6           0        3.100688    2.580571   -0.690132
      4          6           0        7.938526    3.124337   -0.071888
      5          6           0        8.472317   -1.661445    0.357442
      6          7           0        3.591527    0.200010   -0.276150
      7          6           0        2.973357   -0.945408   -0.114934
      8          6           0        1.483288   -0.791894   -0.338227
      9          6           0        1.386941    0.685728   -0.902285
     10          6           0        2.781529    1.218231   -0.523773
     11          6           0        0.943597    0.874756   -2.350265
     12          6           0        0.714190   -1.179437    0.993571
     13          6           0       -0.842257   -0.918522    0.983633
     14          6           0       -1.644841   -2.235893    1.067380
     15          8           0       -1.396175   -3.209760    1.741252
     16          8           0       -2.741255   -2.148491    0.242494
     17          7           0        5.520884    2.596666   -0.232679
     18          6           0        4.318222    3.253764   -0.581709
     19          6           0        4.561821    4.659660   -0.556291
     20          6           0        5.994968    4.849700   -0.425432
     21          6           0        6.561609    3.531387   -0.277098
     22          6           0        3.481563    5.783151   -0.585650
     23          6           0        6.856759    6.119593   -0.395696
     24          8           0        8.047988    6.149082   -0.200858
     25          6           0        6.169071    7.403592   -0.607937
     26          7           0        7.948147    0.704407    0.076662
     27          6           0        8.557536    1.858626    0.080983
     28          6           0       10.085113    1.660108    0.093950
     29          6           0       10.235776    0.142909    0.385176
     30          6           0        8.804540   -0.313135    0.327283
     31          6           0       10.813616    2.261771   -1.191766
     32          6           0       10.924455   -0.141579    1.761554
     33          6           0       12.459685   -0.301572    1.751125
     34          7           0        6.124226   -1.446340    0.119025
     35          6           0        7.265405   -2.237334    0.279103
     36          6           0        6.931008   -3.592647    0.459190
     37          6           0        5.517984   -3.639721    0.393153
     38          6           0        5.093206   -2.286362    0.222620
     39          6           0        7.894742   -4.732908    0.647821
     40          6           0        4.326056   -4.511311    0.416331
     41          8           0        4.197033   -5.703589    0.634769
     42          6           0        3.113491   -3.563542    0.294822
     43          6           0        2.275302   -3.866544   -0.844737
     44          8           0        2.635044   -3.918833   -2.025243
     45          8           0        1.041248   -4.267587   -0.428323
     46          6           0        0.066556   -4.909764   -1.354374
     47          6           0       -3.579545   -3.312452    0.042628
     48          6           0       -4.931876   -2.656579   -0.049023
     49          6           0       -6.107326   -3.311720    0.017050
     50          6           0       -6.400375   -4.828309   -0.042934
     51          6           0       -7.365499   -2.416980    0.101611
     52          6           0       -7.951170   -1.694311   -1.108168
     53          6           0       -7.933586   -0.069511   -1.164580
     54          6           0       -9.396119    0.428959   -1.079276
     55          6           0      -10.224103    0.342405   -2.476042
     56          6           0       -9.455389    1.829777   -0.428835
     57          6           0       -9.637519    1.743045    1.153816
     58          6           0      -10.217990    2.997512    1.716112
     59          6           0      -11.636306    2.696075    2.362750
     60          6           0      -11.823512    3.459402    3.767240
     61          6           0      -12.883094    2.976881    1.487342
     62          6           0      -13.759334    1.755676    1.278303
     63          6           0      -13.439219    0.911214    0.001761
     64          6           0      -14.620571    1.024398   -0.988445
     65          6           0      -15.826637    0.158010   -0.544279
     66          6           0      -14.107162    0.778339   -2.404376
     67          1           0        2.294378    3.225997   -1.043513
     68          1           0        8.703630    3.895797    0.036220
     69          1           0        9.298776   -2.257805    0.750464
     70          1           0        1.114574   -1.525509   -1.055719
     71          1           0        0.623541    1.246116   -0.362661
     72          1           0        1.764264    0.733012   -3.052610
     73          1           0        0.648563    1.923558   -2.358029
     74          1           0        0.046588    0.274452   -2.503156
     75          1           0        1.086541   -0.429405    1.692780
     76          1           0        0.982403   -2.174516    1.350476
     77          1           0       -1.038134   -0.335415    0.083323
     78          1           0       -1.035844   -0.230824    1.806672
     79          1           0        3.598365    6.308486   -1.533575
     80          1           0        3.521658    6.524431    0.211970
     81          1           0        2.530185    5.254196   -0.523775
     82          1           0        6.868459    8.178158   -0.292149
     83          1           0        5.262726    7.475220   -0.006755
     84          1           0        5.831775    7.531051   -1.636198
     85          1           0       10.360525    2.215335    0.990143
     86          1           0       10.890887   -0.266672   -0.384275
     87          1           0       11.692447    1.683158   -1.475990
     88          1           0       11.161166    3.222161   -0.810051
     89          1           0       10.156615    2.428880   -2.045631
     90          1           0       10.472078   -0.965998    2.312664
     91          1           0       10.685872    0.735676    2.363148
     92          1           0       12.791142   -0.701855    0.792861
     93          1           0       12.661882   -1.087151    2.479752
     94          1           0       12.882228    0.688319    1.920295
     95          1           0        7.472271   -5.393704    1.404195
     96          1           0        8.844774   -4.330718    1.000263
     97          1           0        7.899328   -5.242864   -0.316181
     98          1           0        2.538796   -3.641305    1.218231
     99          1           0        0.361414   -5.959146   -1.362755
    100          1           0        0.076100   -4.369375   -2.300923
    101          1           0       -0.950612   -4.854076   -0.966099
    102          1           0       -3.671103   -4.042954    0.846139
    103          1           0       -3.357550   -3.754509   -0.929352
    104          1           0       -4.916724   -1.566466   -0.040543
    105          1           0       -6.456386   -5.192245   -1.069189
    106          1           0       -7.364275   -5.025563    0.424772
    107          1           0       -5.666521   -5.442619    0.479037
    108          1           0       -7.196629   -1.590371    0.791375
    109          1           0       -8.160457   -3.035420    0.518494
    110          1           0       -8.985062   -2.038019   -1.135111
    111          1           0       -7.417220   -2.028737   -1.997551
    112          1           0       -7.332801    0.339795   -1.976428
    113          1           0       -7.499133    0.250530   -0.217448
    114          1           0       -9.885162   -0.207369   -0.341574
    115          1           0      -10.823576    1.240437   -2.625576
    116          1           0      -10.922306   -0.493436   -2.458497
    117          1           0       -9.556036    0.190081   -3.324068
    118          1           0      -10.168807    2.449656   -0.971113
    119          1           0       -8.476835    2.277280   -0.603292
    120          1           0       -8.651000    1.714226    1.618163
    121          1           0      -10.228159    0.897557    1.505203
    122          1           0      -10.412496    3.607333    0.833225
    123          1           0       -9.577301    3.471081    2.459299
    124          1           0      -11.609792    1.696171    2.794698
    125          1           0      -12.024438    2.677305    4.498790
    126          1           0      -12.581209    4.243228    3.746558
    127          1           0      -10.903996    3.931076    4.111572
    128          1           0      -12.643679    3.329612    0.483204
    129          1           0      -13.594489    3.578722    2.051666
    130          1           0      -14.793576    2.098395    1.232519
    131          1           0      -13.747206    1.078050    2.131368
    132          1           0      -13.511859   -0.091160    0.424352
    133          1           0      -12.447450    0.987675   -0.442955
    134          1           0      -15.021723    2.037155   -1.008928
    135          1           0      -16.040373   -0.496952   -1.389063
    136          1           0      -16.694827    0.793432   -0.367514
    137          1           0      -15.569618   -0.355102    0.381649
    138          1           0      -14.748451    1.325084   -3.095335
    139          1           0      -14.228162   -0.258540   -2.717065
    140          1           0      -13.074440    1.103634   -2.529569
 ---------------------------------------------------------------------

 SCF Done:  E(RPBE1PBE) =  -3005.35807664     A.U. after   15 cycles

 Excitation energies and oscillator strengths:

 Excited State   1:      Singlet-A      1.9487 eV  636.23 nm  f=0.3474  <S**2>=0.000
     245 -> 248       -0.20689
     246 -> 247        0.68155
 This state for optimization and/or second-order correction.
 Total Energy, E(TD-HF/TD-DFT) =  -3005.28646174
 Copying the excited state density for this state as the 1-particle RhoCI density.

 Excited State   2:      Singlet-A      2.2286 eV  556.33 nm  f=0.1140  <S**2>=0.000
     245 -> 247        0.65207
     246 -> 248        0.26126

 Excited State   3:      Singlet-A      3.0544 eV  405.92 nm  f=0.0020  <S**2>=0.000
     240 -> 247       -0.13607
     244 -> 247        0.67637

 Excited State   4:      Singlet-A      3.0863 eV  401.73 nm  f=0.0015  <S**2>=0.000
     240 -> 247        0.54466
     240 -> 249       -0.14518
     241 -> 247        0.32138
     242 -> 247       -0.11519
     244 -> 247        0.17199

 Excited State   5:      Singlet-A      3.1854 eV  389.23 nm  f=0.0009  <S**2>=0.000
     240 -> 247       -0.32466
     241 -> 247        0.57491
     241 -> 249        0.12310
     242 -> 247        0.14822

 The electronic state is 1-A.
 Alpha  occ. eigenvalues --  -46.91885 -19.25945 -19.24900 -19.20660 -19.19278
 Alpha  occ. eigenvalues --  -19.18949 -19.18863 -14.41521 -14.40791 -14.38944
 Alpha  occ. eigenvalues --  -14.38364 -10.36995 -10.35618 -10.32285 -10.31751
 Alpha  occ. eigenvalues --  -10.29698 -10.29190 -10.28774 -10.28445 -10.28111
 Alpha  occ. eigenvalues --  -10.27864 -10.27800 -10.27498 -10.26556 -10.26368
 Alpha  occ. eigenvalues --  -10.26190 -10.25917 -10.25869 -10.25791 -10.25634
 Alpha  occ. eigenvalues --  -10.25595 -10.25226 -10.25157 -10.25004 -10.25001
 Alpha  occ. eigenvalues --  -10.24953 -10.24876 -10.24794 -10.24579 -10.24096
 Alpha  occ. eigenvalues --  -10.23917 -10.23915 -10.23904 -10.23786 -10.23660
 Alpha  occ. eigenvalues --  -10.23501 -10.23480 -10.23345 -10.23257 -10.23220
 Alpha  occ. eigenvalues --  -10.23120 -10.23082 -10.22873 -10.22866 -10.22819
 Alpha  occ. eigenvalues --  -10.22685 -10.22584 -10.22535 -10.22414 -10.22190
 Alpha  occ. eigenvalues --  -10.21972 -10.21959 -10.21932 -10.21873 -10.21702
 Alpha  occ. eigenvalues --  -10.21437  -3.14018  -1.86863  -1.86396  -1.86241
 Alpha  occ. eigenvalues --   -1.11784  -1.09907  -1.05578  -1.04687  -1.03627
 Alpha  occ. eigenvalues --   -1.00957  -1.00566  -0.99667  -0.98072  -0.95913
 Alpha  occ. eigenvalues --   -0.86958  -0.84252  -0.83863  -0.83468  -0.83279
 Alpha  occ. eigenvalues --   -0.82729  -0.82447  -0.82020  -0.81340  -0.81293
 Alpha  occ. eigenvalues --   -0.80420  -0.79834  -0.78576  -0.78036  -0.77568
 Alpha  occ. eigenvalues --   -0.76831  -0.76270  -0.75517  -0.75089  -0.74769
 Alpha  occ. eigenvalues --   -0.73796  -0.72702  -0.72522  -0.71709  -0.70863
 Alpha  occ. eigenvalues --   -0.69985  -0.69799  -0.69694  -0.68886  -0.68467
 Alpha  occ. eigenvalues --   -0.67616  -0.67210  -0.66522  -0.64784  -0.63368
 Alpha  occ. eigenvalues --   -0.63162  -0.62318  -0.61296  -0.60612  -0.60053
 Alpha  occ. eigenvalues --   -0.59909  -0.59323  -0.59079  -0.58729  -0.58359
 Alpha  occ. eigenvalues --   -0.58096  -0.57287  -0.56587  -0.56308  -0.54700
 Alpha  occ. eigenvalues --   -0.54330  -0.53961  -0.53928  -0.52960  -0.52798
 Alpha  occ. eigenvalues --   -0.52673  -0.52270  -0.50426  -0.50222  -0.49918
 Alpha  occ. eigenvalues --   -0.49808  -0.49269  -0.48996  -0.48733  -0.48582
 Alpha  occ. eigenvalues --   -0.48112  -0.47889  -0.47661  -0.47422  -0.47267
 Alpha  occ. eigenvalues --   -0.46994  -0.46948  -0.46708  -0.46472  -0.46231
 Alpha  occ. eigenvalues --   -0.46195  -0.45830  -0.45772  -0.45615  -0.45588
 Alpha  occ. eigenvalues --   -0.45057  -0.44845  -0.44712  -0.44426  -0.44143
 Alpha  occ. eigenvalues --   -0.44049  -0.43976  -0.43789  -0.43705  -0.43562
 Alpha  occ. eigenvalues --   -0.43388  -0.43074  -0.42606  -0.42556  -0.42434
 Alpha  occ. eigenvalues --   -0.42210  -0.41771  -0.41648  -0.41503  -0.41343
 Alpha  occ. eigenvalues --   -0.41297  -0.41079  -0.40907  -0.40817  -0.40649
 Alpha  occ. eigenvalues --   -0.40417  -0.40133  -0.40012  -0.39779  -0.39584
 Alpha  occ. eigenvalues --   -0.39296  -0.39080  -0.39020  -0.38943  -0.38891
 Alpha  occ. eigenvalues --   -0.38592  -0.38428  -0.38302  -0.38053  -0.37868
 Alpha  occ. eigenvalues --   -0.37617  -0.37481  -0.37431  -0.37058  -0.36932
 Alpha  occ. eigenvalues --   -0.36781  -0.36615  -0.36186  -0.35946  -0.35887
 Alpha  occ. eigenvalues --   -0.35450  -0.35402  -0.35115  -0.34944  -0.34783
 Alpha  occ. eigenvalues --   -0.34704  -0.34302  -0.34089  -0.33690  -0.33632
 Alpha  occ. eigenvalues --   -0.33454  -0.33339  -0.33068  -0.32630  -0.32198
 Alpha  occ. eigenvalues --   -0.31898  -0.31824  -0.31643  -0.31480  -0.31158
 Alpha  occ. eigenvalues --   -0.30793  -0.30487  -0.29741  -0.29653  -0.29444
 Alpha  occ. eigenvalues --   -0.29310  -0.28831  -0.28120  -0.26579  -0.25782
 Alpha  occ. eigenvalues --   -0.25737  -0.25539  -0.25185  -0.25013  -0.20650
 Alpha  occ. eigenvalues --   -0.19007
 Alpha virt. eigenvalues --   -0.10882  -0.05326  -0.03754  -0.01553  -0.00138
 Alpha virt. eigenvalues --    0.00177   0.00587   0.00887   0.01776   0.03125
 Alpha virt. eigenvalues --    0.04321   0.04843   0.05151   0.05393   0.05617

 Mulliken charges:
               1
     1  Mg   0.966862
     2  C   -0.067463
     3  C   -0.097190
     4  C   -0.038891
     5  C   -0.103049
     6  N   -0.331718
     7  C    0.041145
     8  C   -0.114146
     9  C   -0.139119
    10  C    0.082728
    11  C    0.039666
    12  C   -0.023002
    13  C   -0.029054
    14  C    0.245910
    15  O   -0.241608
    16  O   -0.374356
    17  N   -0.583732
    18  C    0.189899
    19  C   -0.173182
    20  C   -0.094159
    21  C    0.186387
    22  C    0.038935
    23  C    0.061505
    24  O   -0.223823
    25  C   -0.023925
    26  N   -0.334377
    27  C    0.004924
    28  C   -0.100606
    29  C   -0.099763
    30  C    0.049029
    31  C    0.011400
    32  C   -0.067965
    33  C   -0.041646
    34  N   -0.455102
    35  C    0.201309
    36  C   -0.220876
    37  C   -0.069593
    38  C    0.187917
    39  C    0.094465
    40  C    0.184116
    41  O   -0.205023
    42  C   -0.113724
    43  C    0.281300
    44  O   -0.272442
    45  O   -0.383306
    46  C    0.125434
    47  C    0.254289
    48  C   -0.165891
    49  C   -0.196757
    50  C    0.013694
    51  C   -0.002457
    52  C   -0.041532
    53  C   -0.011217
    54  C   -0.230798
    55  C   -0.023824
    56  C   -0.024280
    57  C   -0.058465
    58  C    0.031753
    59  C   -0.239010
    60  C   -0.041585
    61  C    0.054572
    62  C   -0.079830
    63  C   -0.027245
    64  C   -0.264608
    65  C    0.005470
    66  C   -0.005316
    67  H    0.005814
    68  H    0.023081
    69  H   -0.000096
    70  H    0.055976
    71  H    0.029167
    72  H    0.061469
    73  H    0.036435
    74  H    0.048607
    75  H    0.024366
    76  H    0.084229
    77  H    0.049806
    78  H    0.072641
    79  H    0.059552
    80  H    0.069873
    81  H    0.037401
    82  H    0.054658
    83  H    0.038155
    84  H    0.065294
    85  H    0.045256
    86  H    0.043980
    87  H    0.043808
    88  H    0.050782
    89  H    0.063662
    90  H    0.037844
    91  H    0.028896
    92  H    0.035210
    93  H    0.047989
    94  H    0.055328
    95  H    0.062998
    96  H    0.038824
    97  H    0.076550
    98  H    0.093782
    99  H    0.074279
   100  H    0.065286
   101  H    0.056970
   102  H    0.077402
   103  H    0.057543
   104  H    0.039731
   105  H    0.062296
   106  H    0.039134
   107  H    0.041918
   108  H    0.030798
   109  H    0.018676
   110  H    0.034419
   111  H    0.028137
   112  H    0.039041
   113  H    0.024431
   114  H    0.033912
   115  H    0.049423
   116  H    0.043266
   117  H    0.036148
   118  H    0.025085
   119  H    0.027954
   120  H    0.031335
   121  H    0.038703
   122  H    0.029347
   123  H    0.025548
   124  H    0.036637
   125  H    0.033689
   126  H    0.039718
   127  H    0.022695
   128  H    0.031798
   129  H    0.030024
   130  H    0.021035
   131  H    0.017195
   132  H    0.018477
   133  H    0.037349
   134  H    0.034823
   135  H    0.033300
   136  H    0.035216
   137  H    0.037928
   138  H    0.024651
   139  H    0.028737
   140  H    0.027555
 Sum of Mulliken charges =  -0.00000

 Dipole moment (field-independent basis, Debye):
    X=             -3.5084    Y=              3.1598    Z=              0.2551  Tot=              4.7284
 Quadrupole moment (field-independent basis, Debye-Ang):
   XX=           -369.0247   YY=           -422.2296   ZZ=           -408.7526
   XY=              3.1508   XZ=             13.3359   YZ=              0.8055

 Normal termination of Gaussian 16 at Thu May  5 12:09:21 2022.
