 Gaussian 16, Revision A.03,
 Gaussian 16:  ES64L-G16RevA.03 25-Dec-2016

 --------------------------------
 #p wB97XD/Def2SVP td=(nstates=5)
 --------------------------------

 ---------------------------------------------------
 step_851_chromophore_4 TDDFT with wB97XD functional
 ---------------------------------------------------
 Symbolic Z-matrix:
 Charge =  0 Multiplicity = 1

                         Standard orientation:
 ---------------------------------------------------------------------
 Center     Atomic      Atomic             Coordinates (Angstroms)
 Number     Number       Type             X           Y           Z
 ---------------------------------------------------------------------
      1         12           0        5.754474    0.649670    0.088941
      2          6           0        3.721050   -2.134285    0.143839
      3          6           0        3.100688    2.580571   -0.690132
      4          6           0        7.938526    3.124337   -0.071888
      5          6           0        8.472317   -1.661445    0.357442
      6          7           0        3.591527    0.200010   -0.276150
      7          6           0        2.973357   -0.945408   -0.114934
      8          6           0        1.483288   -0.791894   -0.338227
      9          6           0        1.386941    0.685728   -0.902285
     10          6           0        2.781529    1.218231   -0.523773
     11          6           0        0.943597    0.874756   -2.350265
     12          6           0        0.714190   -1.179437    0.993571
     13          6           0       -0.842257   -0.918522    0.983633
     14          6           0       -1.644841   -2.235893    1.067380
     15          8           0       -1.396175   -3.209760    1.741252
     16          8           0       -2.741255   -2.148491    0.242494
     17          7           0        5.520884    2.596666   -0.232679
     18          6           0        4.318222    3.253764   -0.581709
     19          6           0        4.561821    4.659660   -0.556291
     20          6           0        5.994968    4.849700   -0.425432
     21          6           0        6.561609    3.531387   -0.277098
     22          6           0        3.481563    5.783151   -0.585650
     23          6           0        6.856759    6.119593   -0.395696
     24          8           0        8.047988    6.149082   -0.200858
     25          6           0        6.169071    7.403592   -0.607937
     26          7           0        7.948147    0.704407    0.076662
     27          6           0        8.557536    1.858626    0.080983
     28          6           0       10.085113    1.660108    0.093950
     29          6           0       10.235776    0.142909    0.385176
     30          6           0        8.804540   -0.313135    0.327283
     31          6           0       10.813616    2.261771   -1.191766
     32          6           0       10.924455   -0.141579    1.761554
     33          6           0       12.459685   -0.301572    1.751125
     34          7           0        6.124226   -1.446340    0.119025
     35          6           0        7.265405   -2.237334    0.279103
     36          6           0        6.931008   -3.592647    0.459190
     37          6           0        5.517984   -3.639721    0.393153
     38          6           0        5.093206   -2.286362    0.222620
     39          6           0        7.894742   -4.732908    0.647821
     40          6           0        4.326056   -4.511311    0.416331
     41          8           0        4.197033   -5.703589    0.634769
     42          6           0        3.113491   -3.563542    0.294822
     43          6           0        2.275302   -3.866544   -0.844737
     44          8           0        2.635044   -3.918833   -2.025243
     45          8           0        1.041248   -4.267587   -0.428323
     46          6           0        0.066556   -4.909764   -1.354374
     47          6           0       -3.579545   -3.312452    0.042628
     48          6           0       -4.931876   -2.656579   -0.049023
     49          6           0       -6.107326   -3.311720    0.017050
     50          6           0       -6.400375   -4.828309   -0.042934
     51          6           0       -7.365499   -2.416980    0.101611
     52          6           0       -7.951170   -1.694311   -1.108168
     53          6           0       -7.933586   -0.069511   -1.164580
     54          6           0       -9.396119    0.428959   -1.079276
     55          6           0      -10.224103    0.342405   -2.476042
     56          6           0       -9.455389    1.829777   -0.428835
     57          6           0       -9.637519    1.743045    1.153816
     58          6           0      -10.217990    2.997512    1.716112
     59          6           0      -11.636306    2.696075    2.362750
     60          6           0      -11.823512    3.459402    3.767240
     61          6           0      -12.883094    2.976881    1.487342
     62          6           0      -13.759334    1.755676    1.278303
     63          6           0      -13.439219    0.911214    0.001761
     64          6           0      -14.620571    1.024398   -0.988445
     65          6           0      -15.826637    0.158010   -0.544279
     66          6           0      -14.107162    0.778339   -2.404376
     67          1           0        2.294378    3.225997   -1.043513
     68          1           0        8.703630    3.895797    0.036220
     69          1           0        9.298776   -2.257805    0.750464
     70          1           0        1.114574   -1.525509   -1.055719
     71          1           0        0.623541    1.246116   -0.362661
     72          1           0        1.764264    0.733012   -3.052610
     73          1           0        0.648563    1.923558   -2.358029
     74          1           0        0.046588    0.274452   -2.503156
     75          1           0        1.086541   -0.429405    1.692780
     76          1           0        0.982403   -2.174516    1.350476
     77          1           0       -1.038134   -0.335415    0.083323
     78          1           0       -1.035844   -0.230824    1.806672
     79          1           0        3.598365    6.308486   -1.533575
     80          1           0        3.521658    6.524431    0.211970
     81          1           0        2.530185    5.254196   -0.523775
     82          1           0        6.868459    8.178158   -0.292149
     83          1           0        5.262726    7.475220   -0.006755
     84          1           0        5.831775    7.531051   -1.636198
     85          1           0       10.360525    2.215335    0.990143
     86          1           0       10.890887   -0.266672   -0.384275
     87          1           0       11.692447    1.683158   -1.475990
     88          1           0       11.161166    3.222161   -0.810051
     89          1           0       10.156615    2.428880   -2.045631
     90          1           0       10.472078   -0.965998    2.312664
     91          1           0       10.685872    0.735676    2.363148
     92          1           0       12.791142   -0.701855    0.792861
     93          1           0       12.661882   -1.087151    2.479752
     94          1           0       12.882228    0.688319    1.920295
     95          1           0        7.472271   -5.393704    1.404195
     96          1           0        8.844774   -4.330718    1.000263
     97          1           0        7.899328   -5.242864   -0.316181
     98          1           0        2.538796   -3.641305    1.218231
     99          1           0        0.361414   -5.959146   -1.362755
    100          1           0        0.076100   -4.369375   -2.300923
    101          1           0       -0.950612   -4.854076   -0.966099
    102          1           0       -3.671103   -4.042954    0.846139
    103          1           0       -3.357550   -3.754509   -0.929352
    104          1           0       -4.916724   -1.566466   -0.040543
    105          1           0       -6.456386   -5.192245   -1.069189
    106          1           0       -7.364275   -5.025563    0.424772
    107          1           0       -5.666521   -5.442619    0.479037
    108          1           0       -7.196629   -1.590371    0.791375
    109          1           0       -8.160457   -3.035420    0.518494
    110          1           0       -8.985062   -2.038019   -1.135111
    111          1           0       -7.417220   -2.028737   -1.997551
    112          1           0       -7.332801    0.339795   -1.976428
    113          1           0       -7.499133    0.250530   -0.217448
    114          1           0       -9.885162   -0.207369   -0.341574
    115          1           0      -10.823576    1.240437   -2.625576
    116          1           0      -10.922306   -0.493436   -2.458497
    117          1           0       -9.556036    0.190081   -3.324068
    118          1           0      -10.168807    2.449656   -0.971113
    119          1           0       -8.476835    2.277280   -0.603292
    120          1           0       -8.651000    1.714226    1.618163
    121          1           0      -10.228159    0.897557    1.505203
    122          1           0      -10.412496    3.607333    0.833225
    123          1           0       -9.577301    3.471081    2.459299
    124          1           0      -11.609792    1.696171    2.794698
    125          1           0      -12.024438    2.677305    4.498790
    126          1           0      -12.581209    4.243228    3.746558
    127          1           0      -10.903996    3.931076    4.111572
    128          1           0      -12.643679    3.329612    0.483204
    129          1           0      -13.594489    3.578722    2.051666
    130          1           0      -14.793576    2.098395    1.232519
    131          1           0      -13.747206    1.078050    2.131368
    132          1           0      -13.511859   -0.091160    0.424352
    133          1           0      -12.447450    0.987675   -0.442955
    134          1           0      -15.021723    2.037155   -1.008928
    135          1           0      -16.040373   -0.496952   -1.389063
    136          1           0      -16.694827    0.793432   -0.367514
    137          1           0      -15.569618   -0.355102    0.381649
    138          1           0      -14.748451    1.325084   -3.095335
    139          1           0      -14.228162   -0.258540   -2.717065
    140          1           0      -13.074440    1.103634   -2.529569
 ---------------------------------------------------------------------

 SCF Done:  E(RwB97XD) =  -3007.87004652     A.U. after   19 cycles

 Excitation energies and oscillator strengths:

 Excited State   1:      Singlet-A      1.7453 eV  710.40 nm  f=0.3572  <S**2>=0.000
     245 -> 248       -0.21976
     246 -> 247        0.67385
     245 <- 248       -0.12169
 This state for optimization and/or second-order correction.
 Total Energy, E(TD-HF/TD-DFT) =  -3007.80590931
 Copying the excited state density for this state as the 1-particle RhoCI density.

 Excited State   2:      Singlet-A      2.1696 eV  571.46 nm  f=0.1096  <S**2>=0.000
     245 -> 247        0.63728
     246 -> 248        0.29338

 Excited State   3:      Singlet-A      3.4053 eV  364.09 nm  f=0.0017  <S**2>=0.000
     242 -> 247       -0.17382
     244 -> 247        0.66423

 Excited State   4:      Singlet-A      3.5035 eV  353.88 nm  f=0.3094  <S**2>=0.000
     240 -> 247       -0.12667
     242 -> 247       -0.41258
     245 -> 247       -0.17243
     246 -> 248        0.49439

 Excited State   5:      Singlet-A      3.5597 eV  348.30 nm  f=0.0031  <S**2>=0.000
     239 -> 247        0.30870
     239 -> 249       -0.20483
     239 -> 250        0.11062
     240 -> 247        0.38418
     240 -> 249       -0.22818
     240 -> 250        0.11297
     241 -> 247        0.21968
     241 -> 249       -0.12605
     242 -> 247       -0.20630

 The electronic state is 1-A.
 Alpha  occ. eigenvalues --  -46.94817 -19.30500 -19.29550 -19.25355 -19.24258
 Alpha  occ. eigenvalues --  -19.23688 -19.23657 -14.46611 -14.45890 -14.43793
 Alpha  occ. eigenvalues --  -14.43363 -10.43799 -10.42561 -10.39287 -10.38492
 Alpha  occ. eigenvalues --  -10.36199 -10.35785 -10.35173 -10.34651 -10.34337
 Alpha  occ. eigenvalues --  -10.34237 -10.34017 -10.33664 -10.32843 -10.32843
 Alpha  occ. eigenvalues --  -10.32659 -10.32220 -10.32219 -10.32199 -10.32098
 Alpha  occ. eigenvalues --  -10.31967 -10.31718 -10.31410 -10.31387 -10.31327
 Alpha  occ. eigenvalues --  -10.31208 -10.31181 -10.31174 -10.30790 -10.30550
 Alpha  occ. eigenvalues --  -10.30279 -10.30238 -10.30217 -10.30200 -10.30058
 Alpha  occ. eigenvalues --  -10.29828 -10.29798 -10.29725 -10.29687 -10.29616
 Alpha  occ. eigenvalues --  -10.29512 -10.29470 -10.29244 -10.29189 -10.29152
 Alpha  occ. eigenvalues --  -10.29084 -10.29033 -10.28976 -10.28772 -10.28552
 Alpha  occ. eigenvalues --  -10.28388 -10.28318 -10.28298 -10.28235 -10.28098
 Alpha  occ. eigenvalues --  -10.27879  -3.20807  -1.94403  -1.93935  -1.93774
 Alpha  occ. eigenvalues --   -1.19168  -1.17408  -1.12952  -1.12314  -1.10979
 Alpha  occ. eigenvalues --   -1.08434  -1.07936  -1.07038  -1.05522  -1.03186
 Alpha  occ. eigenvalues --   -0.94669  -0.91928  -0.91530  -0.91097  -0.90883
 Alpha  occ. eigenvalues --   -0.90384  -0.90034  -0.89610  -0.89017  -0.88961
 Alpha  occ. eigenvalues --   -0.88035  -0.87467  -0.86222  -0.85683  -0.85197
 Alpha  occ. eigenvalues --   -0.84465  -0.83934  -0.83176  -0.82723  -0.82400
 Alpha  occ. eigenvalues --   -0.81472  -0.80389  -0.80109  -0.79321  -0.78532
 Alpha  occ. eigenvalues --   -0.77684  -0.77459  -0.77314  -0.76558  -0.76133
 Alpha  occ. eigenvalues --   -0.75225  -0.74778  -0.74032  -0.72394  -0.70917
 Alpha  occ. eigenvalues --   -0.70725  -0.69957  -0.68823  -0.68157  -0.67581
 Alpha  occ. eigenvalues --   -0.67448  -0.66804  -0.66708  -0.66181  -0.65876
 Alpha  occ. eigenvalues --   -0.65759  -0.64939  -0.64098  -0.63943  -0.62209
 Alpha  occ. eigenvalues --   -0.61766  -0.61403  -0.61327  -0.60379  -0.60263
 Alpha  occ. eigenvalues --   -0.60114  -0.59846  -0.57818  -0.57662  -0.57427
 Alpha  occ. eigenvalues --   -0.57194  -0.56750  -0.56430  -0.56174  -0.55964
 Alpha  occ. eigenvalues --   -0.55485  -0.55295  -0.55007  -0.54815  -0.54638
 Alpha  occ. eigenvalues --   -0.54385  -0.54352  -0.54055  -0.53961  -0.53609
 Alpha  occ. eigenvalues --   -0.53587  -0.53286  -0.53143  -0.52978  -0.52960
 Alpha  occ. eigenvalues --   -0.52401  -0.52169  -0.52020  -0.51698  -0.51511
 Alpha  occ. eigenvalues --   -0.51456  -0.51306  -0.51066  -0.50977  -0.50902
 Alpha  occ. eigenvalues --   -0.50741  -0.50344  -0.49835  -0.49812  -0.49726
 Alpha  occ. eigenvalues --   -0.49491  -0.49063  -0.48962  -0.48751  -0.48611
 Alpha  occ. eigenvalues --   -0.48570  -0.48316  -0.48195  -0.48077  -0.47773
 Alpha  occ. eigenvalues --   -0.47635  -0.47393  -0.47227  -0.46980  -0.46726
 Alpha  occ. eigenvalues --   -0.46554  -0.46266  -0.46189  -0.46148  -0.46054
 Alpha  occ. eigenvalues --   -0.45699  -0.45582  -0.45443  -0.45176  -0.45044
 Alpha  occ. eigenvalues --   -0.44665  -0.44615  -0.44453  -0.44055  -0.44007
 Alpha  occ. eigenvalues --   -0.43923  -0.43750  -0.43205  -0.43027  -0.42883
 Alpha  occ. eigenvalues --   -0.42524  -0.42476  -0.42212  -0.41906  -0.41826
 Alpha  occ. eigenvalues --   -0.41641  -0.41319  -0.41162  -0.40764  -0.40545
 Alpha  occ. eigenvalues --   -0.40529  -0.40375  -0.39998  -0.39686  -0.39243
 Alpha  occ. eigenvalues --   -0.38951  -0.38853  -0.38512  -0.38427  -0.38180
 Alpha  occ. eigenvalues --   -0.37954  -0.37485  -0.36789  -0.36555  -0.36227
 Alpha  occ. eigenvalues --   -0.36060  -0.35727  -0.35403  -0.33272  -0.32900
 Alpha  occ. eigenvalues --   -0.32762  -0.32147  -0.31962  -0.31493  -0.25569
 Alpha  occ. eigenvalues --   -0.23209
 Alpha virt. eigenvalues --   -0.06720  -0.00023   0.02518   0.04989   0.05929
 Alpha virt. eigenvalues --    0.06709   0.07272   0.07635   0.08510   0.09489
 Alpha virt. eigenvalues --    0.10929   0.11664   0.11897   0.11945   0.12360

 Mulliken charges:
               1
     1  Mg   0.957360
     2  C   -0.070989
     3  C   -0.108190
     4  C   -0.053278
     5  C   -0.123167
     6  N   -0.292013
     7  C    0.005951
     8  C   -0.084751
     9  C   -0.112789
    10  C    0.062611
    11  C    0.050370
    12  C   -0.009612
    13  C   -0.010550
    14  C    0.233652
    15  O   -0.237642
    16  O   -0.371923
    17  N   -0.556077
    18  C    0.181741
    19  C   -0.168077
    20  C   -0.087036
    21  C    0.176084
    22  C    0.054254
    23  C    0.057665
    24  O   -0.218454
    25  C   -0.012104
    26  N   -0.299008
    27  C   -0.011031
    28  C   -0.076155
    29  C   -0.071526
    30  C    0.038311
    31  C    0.023851
    32  C   -0.055094
    33  C   -0.025491
    34  N   -0.417930
    35  C    0.200513
    36  C   -0.216850
    37  C   -0.065118
    38  C    0.171493
    39  C    0.106562
    40  C    0.161772
    41  O   -0.194220
    42  C   -0.072685
    43  C    0.253170
    44  O   -0.264942
    45  O   -0.379394
    46  C    0.142523
    47  C    0.265157
    48  C   -0.171716
    49  C   -0.186945
    50  C    0.028642
    51  C    0.020101
    52  C   -0.027729
    53  C    0.005699
    54  C   -0.199281
    55  C   -0.009128
    56  C   -0.003607
    57  C   -0.041701
    58  C    0.048849
    59  C   -0.213632
    60  C   -0.027209
    61  C    0.072376
    62  C   -0.063804
    63  C    0.006057
    64  C   -0.236051
    65  C    0.015658
    66  C    0.015791
    67  H   -0.002838
    68  H    0.017413
    69  H   -0.009488
    70  H    0.040656
    71  H    0.017790
    72  H    0.056526
    73  H    0.029878
    74  H    0.042523
    75  H    0.015535
    76  H    0.069503
    77  H    0.041334
    78  H    0.068631
    79  H    0.052914
    80  H    0.064453
    81  H    0.031587
    82  H    0.053077
    83  H    0.030531
    84  H    0.060731
    85  H    0.032956
    86  H    0.031983
    87  H    0.037639
    88  H    0.044998
    89  H    0.058221
    90  H    0.029773
    91  H    0.019514
    92  H    0.028289
    93  H    0.042772
    94  H    0.049845
    95  H    0.059139
    96  H    0.034141
    97  H    0.072518
    98  H    0.088730
    99  H    0.071210
   100  H    0.062067
   101  H    0.051213
   102  H    0.072207
   103  H    0.052399
   104  H    0.035982
   105  H    0.056750
   106  H    0.033815
   107  H    0.036360
   108  H    0.019922
   109  H    0.010583
   110  H    0.025586
   111  H    0.019727
   112  H    0.033613
   113  H    0.008886
   114  H    0.016632
   115  H    0.040692
   116  H    0.036743
   117  H    0.031358
   118  H    0.014507
   119  H    0.018349
   120  H    0.023931
   121  H    0.026741
   122  H    0.016706
   123  H    0.018573
   124  H    0.021898
   125  H    0.027951
   126  H    0.033320
   127  H    0.015956
   128  H    0.021747
   129  H    0.020747
   130  H    0.011676
   131  H    0.008703
   132  H    0.006966
   133  H    0.010510
   134  H    0.021736
   135  H    0.027356
   136  H    0.030338
   137  H    0.031226
   138  H    0.019389
   139  H    0.021854
   140  H    0.013486
 Sum of Mulliken charges =  -0.00000

 Dipole moment (field-independent basis, Debye):
    X=             -3.5898    Y=              2.9192    Z=              0.2729  Tot=              4.6350
 Quadrupole moment (field-independent basis, Debye-Ang):
   XX=           -369.8696   YY=           -420.6904   ZZ=           -408.3940
   XY=              2.0801   XZ=             13.6569   YZ=              0.9348

 Normal termination of Gaussian 16 at Thu May  5 12:47:07 2022.
