 Gaussian 16, Revision A.03,
 Gaussian 16:  ES64L-G16RevA.03 25-Dec-2016

 --------------------
 #p ZINDO=(nstates=5)
 --------------------

 ----------------------------
 step_851_chromophore_4 ZINDO
 ----------------------------
 Symbolic Z-matrix:
 Charge =  0 Multiplicity = 1

                         Standard orientation:
 ---------------------------------------------------------------------
 Center     Atomic      Atomic             Coordinates (Angstroms)
 Number     Number       Type             X           Y           Z
 ---------------------------------------------------------------------
      1         12           0        5.754474    0.649670    0.088941
      2          6           0        3.721050   -2.134285    0.143839
      3          6           0        3.100688    2.580571   -0.690132
      4          6           0        7.938526    3.124337   -0.071888
      5          6           0        8.472317   -1.661445    0.357442
      6          7           0        3.591527    0.200010   -0.276150
      7          6           0        2.973357   -0.945408   -0.114934
      8          6           0        1.483288   -0.791894   -0.338227
      9          6           0        1.386941    0.685728   -0.902285
     10          6           0        2.781529    1.218231   -0.523773
     11          6           0        0.943597    0.874756   -2.350265
     12          6           0        0.714190   -1.179437    0.993571
     13          6           0       -0.842257   -0.918522    0.983633
     14          6           0       -1.644841   -2.235893    1.067380
     15          8           0       -1.396175   -3.209760    1.741252
     16          8           0       -2.741255   -2.148491    0.242494
     17          7           0        5.520884    2.596666   -0.232679
     18          6           0        4.318222    3.253764   -0.581709
     19          6           0        4.561821    4.659660   -0.556291
     20          6           0        5.994968    4.849700   -0.425432
     21          6           0        6.561609    3.531387   -0.277098
     22          6           0        3.481563    5.783151   -0.585650
     23          6           0        6.856759    6.119593   -0.395696
     24          8           0        8.047988    6.149082   -0.200858
     25          6           0        6.169071    7.403592   -0.607937
     26          7           0        7.948147    0.704407    0.076662
     27          6           0        8.557536    1.858626    0.080983
     28          6           0       10.085113    1.660108    0.093950
     29          6           0       10.235776    0.142909    0.385176
     30          6           0        8.804540   -0.313135    0.327283
     31          6           0       10.813616    2.261771   -1.191766
     32          6           0       10.924455   -0.141579    1.761554
     33          6           0       12.459685   -0.301572    1.751125
     34          7           0        6.124226   -1.446340    0.119025
     35          6           0        7.265405   -2.237334    0.279103
     36          6           0        6.931008   -3.592647    0.459190
     37          6           0        5.517984   -3.639721    0.393153
     38          6           0        5.093206   -2.286362    0.222620
     39          6           0        7.894742   -4.732908    0.647821
     40          6           0        4.326056   -4.511311    0.416331
     41          8           0        4.197033   -5.703589    0.634769
     42          6           0        3.113491   -3.563542    0.294822
     43          6           0        2.275302   -3.866544   -0.844737
     44          8           0        2.635044   -3.918833   -2.025243
     45          8           0        1.041248   -4.267587   -0.428323
     46          6           0        0.066556   -4.909764   -1.354374
     47          6           0       -3.579545   -3.312452    0.042628
     48          6           0       -4.931876   -2.656579   -0.049023
     49          6           0       -6.107326   -3.311720    0.017050
     50          6           0       -6.400375   -4.828309   -0.042934
     51          6           0       -7.365499   -2.416980    0.101611
     52          6           0       -7.951170   -1.694311   -1.108168
     53          6           0       -7.933586   -0.069511   -1.164580
     54          6           0       -9.396119    0.428959   -1.079276
     55          6           0      -10.224103    0.342405   -2.476042
     56          6           0       -9.455389    1.829777   -0.428835
     57          6           0       -9.637519    1.743045    1.153816
     58          6           0      -10.217990    2.997512    1.716112
     59          6           0      -11.636306    2.696075    2.362750
     60          6           0      -11.823512    3.459402    3.767240
     61          6           0      -12.883094    2.976881    1.487342
     62          6           0      -13.759334    1.755676    1.278303
     63          6           0      -13.439219    0.911214    0.001761
     64          6           0      -14.620571    1.024398   -0.988445
     65          6           0      -15.826637    0.158010   -0.544279
     66          6           0      -14.107162    0.778339   -2.404376
     67          1           0        2.294378    3.225997   -1.043513
     68          1           0        8.703630    3.895797    0.036220
     69          1           0        9.298776   -2.257805    0.750464
     70          1           0        1.114574   -1.525509   -1.055719
     71          1           0        0.623541    1.246116   -0.362661
     72          1           0        1.764264    0.733012   -3.052610
     73          1           0        0.648563    1.923558   -2.358029
     74          1           0        0.046588    0.274452   -2.503156
     75          1           0        1.086541   -0.429405    1.692780
     76          1           0        0.982403   -2.174516    1.350476
     77          1           0       -1.038134   -0.335415    0.083323
     78          1           0       -1.035844   -0.230824    1.806672
     79          1           0        3.598365    6.308486   -1.533575
     80          1           0        3.521658    6.524431    0.211970
     81          1           0        2.530185    5.254196   -0.523775
     82          1           0        6.868459    8.178158   -0.292149
     83          1           0        5.262726    7.475220   -0.006755
     84          1           0        5.831775    7.531051   -1.636198
     85          1           0       10.360525    2.215335    0.990143
     86          1           0       10.890887   -0.266672   -0.384275
     87          1           0       11.692447    1.683158   -1.475990
     88          1           0       11.161166    3.222161   -0.810051
     89          1           0       10.156615    2.428880   -2.045631
     90          1           0       10.472078   -0.965998    2.312664
     91          1           0       10.685872    0.735676    2.363148
     92          1           0       12.791142   -0.701855    0.792861
     93          1           0       12.661882   -1.087151    2.479752
     94          1           0       12.882228    0.688319    1.920295
     95          1           0        7.472271   -5.393704    1.404195
     96          1           0        8.844774   -4.330718    1.000263
     97          1           0        7.899328   -5.242864   -0.316181
     98          1           0        2.538796   -3.641305    1.218231
     99          1           0        0.361414   -5.959146   -1.362755
    100          1           0        0.076100   -4.369375   -2.300923
    101          1           0       -0.950612   -4.854076   -0.966099
    102          1           0       -3.671103   -4.042954    0.846139
    103          1           0       -3.357550   -3.754509   -0.929352
    104          1           0       -4.916724   -1.566466   -0.040543
    105          1           0       -6.456386   -5.192245   -1.069189
    106          1           0       -7.364275   -5.025563    0.424772
    107          1           0       -5.666521   -5.442619    0.479037
    108          1           0       -7.196629   -1.590371    0.791375
    109          1           0       -8.160457   -3.035420    0.518494
    110          1           0       -8.985062   -2.038019   -1.135111
    111          1           0       -7.417220   -2.028737   -1.997551
    112          1           0       -7.332801    0.339795   -1.976428
    113          1           0       -7.499133    0.250530   -0.217448
    114          1           0       -9.885162   -0.207369   -0.341574
    115          1           0      -10.823576    1.240437   -2.625576
    116          1           0      -10.922306   -0.493436   -2.458497
    117          1           0       -9.556036    0.190081   -3.324068
    118          1           0      -10.168807    2.449656   -0.971113
    119          1           0       -8.476835    2.277280   -0.603292
    120          1           0       -8.651000    1.714226    1.618163
    121          1           0      -10.228159    0.897557    1.505203
    122          1           0      -10.412496    3.607333    0.833225
    123          1           0       -9.577301    3.471081    2.459299
    124          1           0      -11.609792    1.696171    2.794698
    125          1           0      -12.024438    2.677305    4.498790
    126          1           0      -12.581209    4.243228    3.746558
    127          1           0      -10.903996    3.931076    4.111572
    128          1           0      -12.643679    3.329612    0.483204
    129          1           0      -13.594489    3.578722    2.051666
    130          1           0      -14.793576    2.098395    1.232519
    131          1           0      -13.747206    1.078050    2.131368
    132          1           0      -13.511859   -0.091160    0.424352
    133          1           0      -12.447450    0.987675   -0.442955
    134          1           0      -15.021723    2.037155   -1.008928
    135          1           0      -16.040373   -0.496952   -1.389063
    136          1           0      -16.694827    0.793432   -0.367514
    137          1           0      -15.569618   -0.355102    0.381649
    138          1           0      -14.748451    1.325084   -3.095335
    139          1           0      -14.228162   -0.258540   -2.717065
    140          1           0      -13.074440    1.103634   -2.529569
 ---------------------------------------------------------------------

 SCF Done:  E(RZINDO/S) =  -474.381959634     A.U. after   20 cycles

 Excitation energies and oscillator strengths:

 Excited State   1:      Singlet-A      1.3178 eV  940.87 nm  f=0.5476  <S**2>=0.000
     175 ->178        -0.21695
     176 ->177         0.65591
 This state for optimization and/or second-order correction.
 Total Energy, E(CIS/TDA) =  -474.333532715
 Copying the excited state density for this state as the 1-particle RhoCI density.

 Excited State   2:      Singlet-A      1.9059 eV  650.54 nm  f=0.0466  <S**2>=0.000
     175 ->177         0.54867
     176 ->178         0.42093

 Excited State   3:      Singlet-A      2.9633 eV  418.39 nm  f=0.1702  <S**2>=0.000
     168 ->177         0.34486
     168 ->178        -0.10653
     168 ->179        -0.36754
     168 ->181         0.18546
     168 ->182         0.14062
     168 ->186        -0.18913
     175 ->177         0.13692
     176 ->178        -0.19946

 Excited State   4:      Singlet-A      3.0250 eV  409.87 nm  f=0.9753  <S**2>=0.000
     168 ->177         0.13622
     168 ->179        -0.14461
     171 ->177        -0.13814
     175 ->177        -0.33738
     176 ->178         0.47221
     176 ->179         0.20618

 Excited State   5:      Singlet-A      3.0720 eV  403.59 nm  f=0.0045  <S**2>=0.000
     170 ->177         0.27423
     170 ->179         0.28746
     170 ->181         0.39670
     170 ->182         0.13275
     170 ->186         0.22423
     170 ->187         0.20860
     170 ->200        -0.10791

 The electronic state is 1-A.
 Alpha  occ. eigenvalues --   -1.85917  -1.83072  -1.79899  -1.73354  -1.72073
 Alpha  occ. eigenvalues --   -1.71244  -1.65476  -1.59903  -1.59857  -1.58760
 Alpha  occ. eigenvalues --   -1.54980  -1.51879  -1.48595  -1.48019  -1.47396
 Alpha  occ. eigenvalues --   -1.44432  -1.43152  -1.39955  -1.38665  -1.38505
 Alpha  occ. eigenvalues --   -1.35937  -1.35326  -1.32088  -1.31180  -1.28664
 Alpha  occ. eigenvalues --   -1.27480  -1.24923  -1.22631  -1.21126  -1.19191
 Alpha  occ. eigenvalues --   -1.18270  -1.17078  -1.15290  -1.14229  -1.13421
 Alpha  occ. eigenvalues --   -1.11672  -1.10952  -1.09983  -1.05273  -1.03881
 Alpha  occ. eigenvalues --   -1.02945  -1.01277  -0.97945  -0.97469  -0.96662
 Alpha  occ. eigenvalues --   -0.94740  -0.94419  -0.94121  -0.93067  -0.91708
 Alpha  occ. eigenvalues --   -0.90614  -0.90184  -0.88724  -0.87691  -0.86361
 Alpha  occ. eigenvalues --   -0.86138  -0.85574  -0.83060  -0.82282  -0.80188
 Alpha  occ. eigenvalues --   -0.79642  -0.78791  -0.77807  -0.77541  -0.76495
 Alpha  occ. eigenvalues --   -0.75169  -0.74841  -0.74386  -0.73710  -0.73574
 Alpha  occ. eigenvalues --   -0.72212  -0.72138  -0.71176  -0.70526  -0.70461
 Alpha  occ. eigenvalues --   -0.70108  -0.69053  -0.68772  -0.68518  -0.68293
 Alpha  occ. eigenvalues --   -0.67296  -0.66916  -0.66467  -0.66218  -0.65573
 Alpha  occ. eigenvalues --   -0.65391  -0.64564  -0.64314  -0.64171  -0.63580
 Alpha  occ. eigenvalues --   -0.63459  -0.62925  -0.62492  -0.61990  -0.61644
 Alpha  occ. eigenvalues --   -0.61370  -0.61074  -0.60427  -0.60054  -0.59754
 Alpha  occ. eigenvalues --   -0.59631  -0.59336  -0.59178  -0.58648  -0.58148
 Alpha  occ. eigenvalues --   -0.57723  -0.57536  -0.57120  -0.56705  -0.56568
 Alpha  occ. eigenvalues --   -0.56336  -0.55991  -0.55959  -0.55673  -0.54811
 Alpha  occ. eigenvalues --   -0.54416  -0.53910  -0.53380  -0.53257  -0.53041
 Alpha  occ. eigenvalues --   -0.52563  -0.52268  -0.51892  -0.51642  -0.51206
 Alpha  occ. eigenvalues --   -0.50878  -0.50568  -0.50325  -0.50282  -0.49862
 Alpha  occ. eigenvalues --   -0.49702  -0.49531  -0.49421  -0.49237  -0.49070
 Alpha  occ. eigenvalues --   -0.48933  -0.48599  -0.48354  -0.47738  -0.47467
 Alpha  occ. eigenvalues --   -0.47356  -0.47304  -0.47188  -0.46967  -0.46287
 Alpha  occ. eigenvalues --   -0.46218  -0.45738  -0.45666  -0.45411  -0.45244
 Alpha  occ. eigenvalues --   -0.45101  -0.44873  -0.44699  -0.44329  -0.44161
 Alpha  occ. eigenvalues --   -0.43976  -0.43245  -0.42693  -0.42642  -0.42189
 Alpha  occ. eigenvalues --   -0.41784  -0.41443  -0.41201  -0.39456  -0.39012
 Alpha  occ. eigenvalues --   -0.38104  -0.36794  -0.35477  -0.35350  -0.34472
 Alpha  occ. eigenvalues --   -0.33271  -0.32379  -0.32071  -0.31747  -0.26120
 Alpha  occ. eigenvalues --   -0.21935
 Alpha virt. eigenvalues --   -0.08171  -0.02274  -0.00248   0.01835   0.01899
 Alpha virt. eigenvalues --    0.02496   0.02586   0.03169   0.04607   0.05105
 Alpha virt. eigenvalues --    0.06635   0.07092   0.07838   0.07976   0.08186

 Mulliken charges:
               1
     1  Mg   0.428279
     2  C   -0.062968
     3  C   -0.066542
     4  C   -0.072793
     5  C   -0.060141
     6  N   -0.250099
     7  C    0.150825
     8  C    0.001592
     9  C    0.000837
    10  C    0.101632
    11  C   -0.044721
    12  C   -0.032476
    13  C   -0.000289
    14  C    0.469792
    15  O   -0.505057
    16  O   -0.274149
    17  N   -0.343001
    18  C    0.086433
    19  C   -0.007582
    20  C   -0.063073
    21  C    0.127813
    22  C   -0.047270
    23  C    0.334019
    24  O   -0.521086
    25  C   -0.034196
    26  N   -0.251556
    27  C    0.131121
    28  C   -0.005680
    29  C    0.004602
    30  C    0.139049
    31  C   -0.051499
    32  C   -0.036347
    33  C   -0.059227
    34  N   -0.348628
    35  C    0.122886
    36  C    0.048138
    37  C   -0.058684
    38  C    0.138230
    39  C   -0.039452
    40  C    0.344593
    41  O   -0.505679
    42  C    0.057614
    43  C    0.500033
    44  O   -0.543746
    45  O   -0.282151
    46  C    0.076399
    47  C    0.103906
    48  C   -0.080646
    49  C   -0.021955
    50  C   -0.039666
    51  C   -0.028972
    52  C   -0.038995
    53  C   -0.036536
    54  C   -0.020673
    55  C   -0.064590
    56  C   -0.040198
    57  C   -0.037557
    58  C   -0.037909
    59  C   -0.027652
    60  C   -0.073327
    61  C   -0.031254
    62  C   -0.039237
    63  C   -0.043822
    64  C   -0.011330
    65  C   -0.058505
    66  C   -0.059813
    67  H    0.021404
    68  H    0.040022
    69  H    0.018721
    70  H    0.034620
    71  H    0.016187
    72  H    0.035887
    73  H    0.015676
    74  H    0.024730
    75  H    0.013881
    76  H    0.047909
    77  H    0.035661
    78  H    0.047073
    79  H    0.028856
    80  H    0.034975
    81  H    0.020298
    82  H    0.034773
    83  H    0.030242
    84  H    0.040252
    85  H    0.031093
    86  H    0.034463
    87  H    0.021192
    88  H    0.022375
    89  H    0.035028
    90  H    0.020359
    91  H    0.015776
    92  H    0.018016
    93  H    0.024111
    94  H    0.031046
    95  H    0.035615
    96  H    0.029289
    97  H    0.046791
    98  H    0.056746
    99  H    0.050232
   100  H    0.048252
   101  H    0.034885
   102  H    0.067645
   103  H    0.047864
   104  H    0.040410
   105  H    0.031618
   106  H    0.023155
   107  H    0.024424
   108  H    0.019701
   109  H    0.013008
   110  H    0.021218
   111  H    0.014289
   112  H    0.032496
   113  H    0.015329
   114  H    0.020547
   115  H    0.022695
   116  H    0.018561
   117  H    0.021639
   118  H    0.025891
   119  H    0.013518
   120  H    0.015273
   121  H    0.030122
   122  H    0.021195
   123  H    0.027539
   124  H    0.025341
   125  H    0.016854
   126  H    0.023091
   127  H    0.012336
   128  H    0.028447
   129  H    0.023863
   130  H    0.012759
   131  H    0.013949
   132  H    0.008408
   133  H    0.032923
   134  H    0.015450
   135  H    0.022240
   136  H    0.017561
   137  H    0.026501
   138  H    0.008766
   139  H    0.017265
   140  H    0.022612
 Sum of Mulliken charges =  -0.00000

 Dipole moment (field-independent basis, Debye):
    X=             -4.4835    Y=              3.6651    Z=              0.9489  Tot=              5.8682
 N-N= 4.279981016642D+03 E-N= 0.000000000000D+00  KE=-9.234514097701D+03
 Leave Link  601 at Thu May  5 13:03:59 2022, MaxMem=  6710886400 cpu:               0.7 elap:               0.0
 (Enter /sw/apps/gaussian-16.0/g16/l9999.exe)
 1\1\GINC-BP1-COMPUTE179\SP\RZINDO CIS\STO-3G\C55H74Mg1N4O6\OF15641\05-
 May-2022\0\\#p ZINDO=(nstates=5)\\step_851_chromophore_4 ZINDO\\0,1\Mg
 ,0,9.318,4.08,28.266\C,0,10.796,2.504,30.953\C,0,7.93,6.342,30.348\C,0
 ,7.878,5.299,25.553\C,0,10.425,1.268,26.351\N,0,9.358,4.337,30.49\C,0,
 10.073,3.666,31.361\C,0,9.912,4.243,32.752\C,0,8.739,5.287,32.54\C,0,8
 .728,5.383,31.003\C,0,7.403,5.016,33.226\C,0,11.324,4.739,33.277\C,0,1
 1.307,5.517,34.65\C,0,12.046,4.737,35.76\O,0,13.073,4.105,35.659\O,0,1

 Normal termination of Gaussian 16 at Thu May  5 13:03:59 2022.
