 Gaussian 16, Revision A.03,
 Gaussian 16:  ES64L-G16RevA.03 25-Dec-2016

 ------------------------------
 #p blyp/Def2SVP td=(nstates=5)
 ------------------------------

 ---------------------------------------------------
 step_1351_chromophore_27 TDDFT with blyp functional
 ---------------------------------------------------
 Symbolic Z-matrix:
 Charge =  0 Multiplicity = 1

                         Standard orientation:
 ---------------------------------------------------------------------
 Center     Atomic      Atomic             Coordinates (Angstroms)
 Number     Number       Type             X           Y           Z
 ---------------------------------------------------------------------
      1         12           0       -4.643742    0.657114    0.026820
      2          6           0       -3.794893   -2.630105    0.334867
      3          6           0       -1.201337    1.482159    0.031161
      4          6           0       -5.524608    3.884398    0.125780
      5          6           0       -8.014381   -0.193342    0.313498
      6          7           0       -2.689315   -0.460292    0.305955
      7          6           0       -2.589126   -1.855416    0.321706
      8          6           0       -1.149738   -2.260489   -0.042833
      9          6           0       -0.369364   -0.905939    0.057445
     10          6           0       -1.487921    0.109731    0.154677
     11          6           0        0.634214   -0.894202    1.235918
     12          6           0       -1.068024   -2.852308   -1.525830
     13          6           0       -0.105301   -4.072965   -1.701260
     14          6           0        1.293289   -3.762735   -2.149499
     15          8           0        1.735565   -3.613912   -3.314010
     16          8           0        2.170536   -3.987806   -1.071629
     17          7           0       -3.539652    2.454674    0.072514
     18          6           0       -2.141990    2.555203    0.076940
     19          6           0       -1.784775    4.023908   -0.028572
     20          6           0       -3.038930    4.636981    0.049655
     21          6           0       -4.108584    3.672517    0.027985
     22          6           0       -0.387494    4.628442   -0.079675
     23          6           0       -3.256545    6.147068    0.128985
     24          8           0       -4.366251    6.541623    0.321490
     25          6           0       -2.185941    7.113768   -0.229730
     26          7           0       -6.587385    1.719915    0.283205
     27          6           0       -6.658102    3.061257    0.180546
     28          6           0       -8.137480    3.547557    0.046932
     29          6           0       -8.904533    2.221974   -0.014009
     30          6           0       -7.814781    1.166270    0.277889
     31          6           0       -8.606010    4.416315    1.167710
     32          6           0       -9.586105    2.123199   -1.342226
     33          6           0      -10.720264    3.131790   -1.669654
     34          7           0       -5.687354   -0.966161    0.338540
     35          6           0       -7.082955   -1.240037    0.459842
     36          6           0       -7.342076   -2.708200    0.498892
     37          6           0       -6.068115   -3.311571    0.509920
     38          6           0       -5.109520   -2.214070    0.388619
     39          6           0       -8.679296   -3.338950    0.498319
     40          6           0       -5.279115   -4.550214    0.577651
     41          8           0       -5.653217   -5.764911    0.588627
     42          6           0       -3.812863   -4.183817    0.441369
     43          6           0       -3.100557   -4.559622    1.706481
     44          8           0       -3.414050   -4.258024    2.811178
     45          8           0       -2.059875   -5.408856    1.335067
     46          6           0       -1.234934   -5.656438    2.545506
     47          6           0        3.641366   -4.171261   -1.252335
     48          6           0        4.369900   -2.827248   -1.579134
     49          6           0        5.678929   -2.430051   -1.370291
     50          6           0        6.744002   -3.424185   -0.869247
     51          6           0        5.980397   -0.965776   -1.656877
     52          6           0        6.297417   -0.730505   -3.115597
     53          6           0        7.754153   -0.175098   -3.331249
     54          6           0        7.755543    1.189814   -3.965089
     55          6           0        7.486833    1.104455   -5.495577
     56          6           0        9.022888    1.985617   -3.518688
     57          6           0        8.905141    2.484545   -2.094444
     58          6           0       10.152737    2.218304   -1.211230
     59          6           0        9.833175    1.677585    0.254703
     60          6           0        9.942914    0.126160    0.210214
     61          6           0       10.711305    2.239779    1.374560
     62          6           0        9.980026    2.621228    2.681882
     63          6           0       10.680537    2.011539    3.988076
     64          6           0        9.835662    0.954409    4.810172
     65          6           0        9.569610    1.375181    6.300045
     66          6           0       10.436263   -0.448073    4.715204
     67          1           0       -0.163945    1.819417   -0.022010
     68          1           0       -5.866430    4.907788   -0.039827
     69          1           0       -9.034584   -0.559488    0.183327
     70          1           0       -0.715501   -3.025089    0.600803
     71          1           0        0.107272   -0.692245   -0.898686
     72          1           0        0.360591   -0.215161    2.043024
     73          1           0        1.673656   -0.628333    1.042285
     74          1           0        0.559924   -1.888902    1.677099
     75          1           0       -0.707641   -2.103116   -2.232046
     76          1           0       -2.033866   -3.268572   -1.811436
     77          1           0       -0.446672   -4.714112   -2.513670
     78          1           0       -0.050668   -4.671916   -0.793072
     79          1           0        0.323334    3.826701    0.117545
     80          1           0       -0.305873    5.263234    0.803012
     81          1           0       -0.288587    5.154844   -1.029298
     82          1           0       -1.930844    7.017225   -1.284344
     83          1           0       -1.247184    7.188622    0.320417
     84          1           0       -2.625849    8.110675   -0.192126
     85          1           0       -8.205758    4.093527   -0.894495
     86          1           0       -9.661118    2.236998    0.770335
     87          1           0       -7.906797    4.538086    1.994036
     88          1           0       -9.558649    4.118775    1.604240
     89          1           0       -8.665494    5.410123    0.725613
     90          1           0       -9.913107    1.092574   -1.483304
     91          1           0       -8.732463    2.256085   -2.006010
     92          1           0      -10.768907    3.864344   -0.863751
     93          1           0      -11.509108    2.391174   -1.801477
     94          1           0      -10.589497    3.592277   -2.648895
     95          1           0       -9.375750   -2.736083   -0.085065
     96          1           0       -9.080989   -3.374822    1.511258
     97          1           0       -8.705929   -4.320211    0.023475
     98          1           0       -3.437863   -4.606804   -0.490393
     99          1           0       -0.804310   -4.695617    2.829083
    100          1           0       -0.450419   -6.381462    2.329890
    101          1           0       -1.815076   -5.987580    3.406893
    102          1           0        3.774247   -4.881092   -2.068265
    103          1           0        3.976762   -4.671634   -0.343839
    104          1           0        3.740482   -2.023881   -1.962070
    105          1           0        7.641718   -2.881543   -0.572994
    106          1           0        7.031786   -3.949674   -1.779475
    107          1           0        6.435486   -4.183737   -0.150088
    108          1           0        6.764668   -0.534214   -1.034855
    109          1           0        5.114969   -0.345284   -1.424436
    110          1           0        5.603070   -0.085412   -3.653609
    111          1           0        6.281226   -1.729678   -3.550891
    112          1           0        8.353125   -0.858122   -3.932369
    113          1           0        8.373747   -0.061460   -2.441466
    114          1           0        6.838763    1.625659   -3.567341
    115          1           0        8.229411    1.702147   -6.023063
    116          1           0        6.507876    1.540339   -5.694989
    117          1           0        7.590928    0.079940   -5.852788
    118          1           0        9.103550    2.867868   -4.154382
    119          1           0        9.801714    1.243717   -3.689394
    120          1           0        8.002646    2.060386   -1.654718
    121          1           0        8.786082    3.566785   -2.153292
    122          1           0       10.706095    3.156643   -1.246276
    123          1           0       10.788735    1.514612   -1.747489
    124          1           0        8.786357    1.923461    0.434064
    125          1           0       10.539022   -0.145003    1.081730
    126          1           0       10.354629   -0.207150   -0.741650
    127          1           0        8.966642   -0.353870    0.149941
    128          1           0       11.045177    3.177963    0.930350
    129          1           0       11.642157    1.712419    1.579174
    130          1           0        8.937403    2.313319    2.596852
    131          1           0        9.919661    3.702045    2.799743
    132          1           0       10.997263    2.822972    4.644137
    133          1           0       11.602366    1.512255    3.687749
    134          1           0        8.856231    0.727694    4.390862
    135          1           0        9.315369    2.432386    6.231387
    136          1           0       10.465713    1.377652    6.920531
    137          1           0        8.869835    0.687745    6.776317
    138          1           0        9.609989   -1.060053    5.077729
    139          1           0       11.311800   -0.524545    5.359399
    140          1           0       10.692707   -0.743064    3.697615
 ---------------------------------------------------------------------

 SCF Done:  E(RB-LYP) =  -3007.37737999     A.U. after   21 cycles

 Excitation energies and oscillator strengths:

 Excited State   1:      Singlet-A      1.8449 eV  672.03 nm  f=0.2673  <S**2>=0.000
     245 -> 248        0.21389
     246 -> 247        0.67503
     246 <- 247       -0.13191
 This state for optimization and/or second-order correction.
 Total Energy, E(TD-HF/TD-DFT) =  -3007.30957997
 Copying the excited state density for this state as the 1-particle RhoCI density.

 Excited State   2:      Singlet-A      1.9762 eV  627.39 nm  f=0.0126  <S**2>=0.000
     244 -> 247        0.66324
     245 -> 247        0.21244

 Excited State   3:      Singlet-A      2.0133 eV  615.84 nm  f=0.0470  <S**2>=0.000
     243 -> 247        0.29738
     244 -> 247       -0.23428
     245 -> 247        0.54655
     246 -> 248       -0.20269

 Excited State   4:      Singlet-A      2.1147 eV  586.31 nm  f=0.0139  <S**2>=0.000
     243 -> 247        0.63388
     245 -> 247       -0.25767
     246 -> 248        0.14773

 Excited State   5:      Singlet-A      2.2653 eV  547.32 nm  f=0.0001  <S**2>=0.000
     242 -> 247        0.70705

 The electronic state is 1-A.
 Alpha  occ. eigenvalues --  -46.27250 -18.82522 -18.81286 -18.77780 -18.76854
 Alpha  occ. eigenvalues --  -18.75628 -18.75292 -14.03416 -14.02526 -14.01416
 Alpha  occ. eigenvalues --  -14.01342 -10.04284 -10.04087  -9.99694  -9.99656
 Alpha  occ. eigenvalues --   -9.98913  -9.97528  -9.97064  -9.96318  -9.96204
 Alpha  occ. eigenvalues --   -9.96098  -9.96038  -9.95861  -9.95847  -9.95010
 Alpha  occ. eigenvalues --   -9.94819  -9.94351  -9.94249  -9.94054  -9.94052
 Alpha  occ. eigenvalues --   -9.93946  -9.93888  -9.93829  -9.93813  -9.93588
 Alpha  occ. eigenvalues --   -9.93243  -9.93125  -9.92954  -9.92870  -9.92410
 Alpha  occ. eigenvalues --   -9.92394  -9.92357  -9.92309  -9.92304  -9.92236
 Alpha  occ. eigenvalues --   -9.92110  -9.92088  -9.92086  -9.92078  -9.92059
 Alpha  occ. eigenvalues --   -9.92024  -9.91897  -9.91730  -9.91590  -9.91491
 Alpha  occ. eigenvalues --   -9.91465  -9.91298  -9.91258  -9.91197  -9.91160
 Alpha  occ. eigenvalues --   -9.91129  -9.91018  -9.90966  -9.90777  -9.90738
 Alpha  occ. eigenvalues --   -9.90709  -2.91919  -1.72326  -1.71826  -1.71626
 Alpha  occ. eigenvalues --   -0.98579  -0.95516  -0.93497  -0.91319  -0.88596
 Alpha  occ. eigenvalues --   -0.87995  -0.86376  -0.85951  -0.84920  -0.84174
 Alpha  occ. eigenvalues --   -0.75344  -0.73935  -0.73346  -0.72885  -0.72610
 Alpha  occ. eigenvalues --   -0.71818  -0.71562  -0.70733  -0.70650  -0.70563
 Alpha  occ. eigenvalues --   -0.69975  -0.69293  -0.68081  -0.67523  -0.66947
 Alpha  occ. eigenvalues --   -0.66307  -0.65825  -0.65302  -0.64810  -0.64409
 Alpha  occ. eigenvalues --   -0.64104  -0.62892  -0.62358  -0.61975  -0.60832
 Alpha  occ. eigenvalues --   -0.60638  -0.60135  -0.60120  -0.59620  -0.59157
 Alpha  occ. eigenvalues --   -0.58186  -0.57547  -0.56946  -0.55933  -0.54423
 Alpha  occ. eigenvalues --   -0.53891  -0.53766  -0.52756  -0.52484  -0.51576
 Alpha  occ. eigenvalues --   -0.51108  -0.51044  -0.50410  -0.50215  -0.50125
 Alpha  occ. eigenvalues --   -0.49129  -0.48678  -0.48591  -0.48546  -0.47019
 Alpha  occ. eigenvalues --   -0.46233  -0.46178  -0.45726  -0.45470  -0.45282
 Alpha  occ. eigenvalues --   -0.44280  -0.43887  -0.43254  -0.42390  -0.42151
 Alpha  occ. eigenvalues --   -0.42018  -0.41898  -0.41773  -0.41618  -0.41401
 Alpha  occ. eigenvalues --   -0.41128  -0.40692  -0.40496  -0.40431  -0.40251
 Alpha  occ. eigenvalues --   -0.39834  -0.39699  -0.39470  -0.39195  -0.39174
 Alpha  occ. eigenvalues --   -0.39006  -0.38695  -0.38432  -0.38312  -0.38199
 Alpha  occ. eigenvalues --   -0.38134  -0.37922  -0.37690  -0.37542  -0.37453
 Alpha  occ. eigenvalues --   -0.37312  -0.36816  -0.36594  -0.36570  -0.36511
 Alpha  occ. eigenvalues --   -0.36332  -0.36191  -0.35776  -0.35693  -0.35563
 Alpha  occ. eigenvalues --   -0.35262  -0.35248  -0.34898  -0.34862  -0.34747
 Alpha  occ. eigenvalues --   -0.34648  -0.34465  -0.34291  -0.34104  -0.33980
 Alpha  occ. eigenvalues --   -0.33956  -0.33929  -0.33569  -0.33510  -0.33425
 Alpha  occ. eigenvalues --   -0.33161  -0.32919  -0.32814  -0.32543  -0.32456
 Alpha  occ. eigenvalues --   -0.32173  -0.32005  -0.31927  -0.31717  -0.31498
 Alpha  occ. eigenvalues --   -0.31293  -0.31230  -0.31156  -0.30842  -0.30670
 Alpha  occ. eigenvalues --   -0.30552  -0.30359  -0.30143  -0.30102  -0.30008
 Alpha  occ. eigenvalues --   -0.29740  -0.29491  -0.29357  -0.28937  -0.28840
 Alpha  occ. eigenvalues --   -0.28692  -0.28353  -0.28027  -0.27903  -0.27763
 Alpha  occ. eigenvalues --   -0.27560  -0.27247  -0.27026  -0.26858  -0.26761
 Alpha  occ. eigenvalues --   -0.26505  -0.26396  -0.25991  -0.25764  -0.25385
 Alpha  occ. eigenvalues --   -0.25339  -0.25096  -0.24369  -0.24195  -0.23746
 Alpha  occ. eigenvalues --   -0.23556  -0.23303  -0.22054  -0.21486  -0.21107
 Alpha  occ. eigenvalues --   -0.20754  -0.19547  -0.18831  -0.18365  -0.17133
 Alpha  occ. eigenvalues --   -0.15786
 Alpha virt. eigenvalues --   -0.11222  -0.07234  -0.06389  -0.04577  -0.04261
 Alpha virt. eigenvalues --   -0.02868  -0.02556  -0.02405  -0.01428   0.00305
 Alpha virt. eigenvalues --    0.01306   0.01734   0.01781   0.02081   0.02511

 Mulliken charges:
               1
     1  Mg   0.706090
     2  C   -0.077719
     3  C   -0.059476
     4  C    0.005294
     5  C   -0.092828
     6  N   -0.197523
     7  C   -0.039363
     8  C    0.028125
     9  C    0.008542
    10  C    0.029388
    11  C    0.140924
    12  C    0.100146
    13  C    0.128910
    14  C    0.082115
    15  O   -0.219215
    16  O   -0.313837
    17  N   -0.282609
    18  C    0.100142
    19  C   -0.187023
    20  C    0.045756
    21  C    0.087703
    22  C    0.205098
    23  C   -0.073785
    24  O   -0.134187
    25  C    0.118166
    26  N   -0.182030
    27  C   -0.040572
    28  C   -0.013744
    29  C    0.073425
    30  C    0.030923
    31  C    0.146023
    32  C    0.042892
    33  C    0.105778
    34  N   -0.342608
    35  C    0.138900
    36  C   -0.190860
    37  C    0.118820
    38  C    0.126890
    39  C    0.171551
    40  C   -0.045451
    41  O   -0.185062
    42  C    0.115126
    43  C    0.110374
    44  O   -0.132911
    45  O   -0.285287
    46  C    0.223695
    47  C    0.321914
    48  C   -0.087172
    49  C   -0.185514
    50  C    0.142259
    51  C    0.151522
    52  C    0.100859
    53  C    0.072606
    54  C   -0.146109
    55  C    0.134648
    56  C    0.128393
    57  C    0.065975
    58  C    0.089585
    59  C   -0.093509
    60  C    0.106073
    61  C    0.123867
    62  C    0.075051
    63  C    0.101629
    64  C   -0.081322
    65  C    0.086396
    66  C    0.080333
    67  H   -0.065627
    68  H   -0.046010
    69  H   -0.067100
    70  H   -0.021652
    71  H   -0.016828
    72  H   -0.013855
    73  H   -0.000538
    74  H   -0.018026
    75  H   -0.003078
    76  H   -0.011778
    77  H    0.005586
    78  H    0.002183
    79  H   -0.017503
    80  H    0.009017
    81  H    0.019559
    82  H    0.004482
    83  H    0.004044
    84  H   -0.018080
    85  H   -0.014658
    86  H   -0.044458
    87  H   -0.005634
    88  H   -0.006235
    89  H   -0.011012
    90  H   -0.032898
    91  H   -0.031451
    92  H    0.005824
    93  H   -0.001434
    94  H   -0.005589
    95  H   -0.014916
    96  H    0.012425
    97  H    0.009536
    98  H   -0.001584
    99  H    0.001331
   100  H    0.014021
   101  H    0.023074
   102  H    0.002622
   103  H    0.001075
   104  H   -0.025922
   105  H   -0.011654
   106  H    0.000884
   107  H    0.005131
   108  H   -0.032239
   109  H   -0.035094
   110  H   -0.017288
   111  H   -0.022020
   112  H   -0.043671
   113  H   -0.054513
   114  H   -0.048148
   115  H   -0.028648
   116  H   -0.011338
   117  H   -0.015839
   118  H   -0.038441
   119  H   -0.025305
   120  H   -0.020190
   121  H   -0.031078
   122  H   -0.038596
   123  H   -0.034539
   124  H   -0.032674
   125  H   -0.004671
   126  H   -0.012595
   127  H   -0.013604
   128  H   -0.051856
   129  H   -0.029262
   130  H   -0.027776
   131  H   -0.028737
   132  H   -0.038970
   133  H   -0.036032
   134  H   -0.033261
   135  H   -0.010439
   136  H   -0.021352
   137  H   -0.009795
   138  H   -0.022655
   139  H   -0.016035
   140  H   -0.008805
 Sum of Mulliken charges =  -0.00000

 Dipole moment (field-independent basis, Debye):
    X=              3.4489    Y=              3.4888    Z=             -1.1816  Tot=              5.0461
 Quadrupole moment (field-independent basis, Debye-Ang):
   XX=           -380.2164   YY=           -427.3896   ZZ=           -419.1751
   XY=            -19.2593   XZ=             20.5971   YZ=             -7.5734

 Normal termination of Gaussian 16 at Thu Apr 28 01:02:18 2022.
