 Gaussian 16, Revision A.03,
 Gaussian 16:  ES64L-G16RevA.03 25-Dec-2016

 -----------------------------------
 #p cam-b3lyp/Def2SVP td=(nstates=5)
 -----------------------------------

 --------------------------------------------------------
 step_1351_chromophore_27 TDDFT with cam-b3lyp functional
 --------------------------------------------------------
 Symbolic Z-matrix:
 Charge =  0 Multiplicity = 1

                         Standard orientation:
 ---------------------------------------------------------------------
 Center     Atomic      Atomic             Coordinates (Angstroms)
 Number     Number       Type             X           Y           Z
 ---------------------------------------------------------------------
      1         12           0       -4.643742    0.657114    0.026820
      2          6           0       -3.794893   -2.630105    0.334867
      3          6           0       -1.201337    1.482159    0.031161
      4          6           0       -5.524608    3.884398    0.125780
      5          6           0       -8.014381   -0.193342    0.313498
      6          7           0       -2.689315   -0.460292    0.305955
      7          6           0       -2.589126   -1.855416    0.321706
      8          6           0       -1.149738   -2.260489   -0.042833
      9          6           0       -0.369364   -0.905939    0.057445
     10          6           0       -1.487921    0.109731    0.154677
     11          6           0        0.634214   -0.894202    1.235918
     12          6           0       -1.068024   -2.852308   -1.525830
     13          6           0       -0.105301   -4.072965   -1.701260
     14          6           0        1.293289   -3.762735   -2.149499
     15          8           0        1.735565   -3.613912   -3.314010
     16          8           0        2.170536   -3.987806   -1.071629
     17          7           0       -3.539652    2.454674    0.072514
     18          6           0       -2.141990    2.555203    0.076940
     19          6           0       -1.784775    4.023908   -0.028572
     20          6           0       -3.038930    4.636981    0.049655
     21          6           0       -4.108584    3.672517    0.027985
     22          6           0       -0.387494    4.628442   -0.079675
     23          6           0       -3.256545    6.147068    0.128985
     24          8           0       -4.366251    6.541623    0.321490
     25          6           0       -2.185941    7.113768   -0.229730
     26          7           0       -6.587385    1.719915    0.283205
     27          6           0       -6.658102    3.061257    0.180546
     28          6           0       -8.137480    3.547557    0.046932
     29          6           0       -8.904533    2.221974   -0.014009
     30          6           0       -7.814781    1.166270    0.277889
     31          6           0       -8.606010    4.416315    1.167710
     32          6           0       -9.586105    2.123199   -1.342226
     33          6           0      -10.720264    3.131790   -1.669654
     34          7           0       -5.687354   -0.966161    0.338540
     35          6           0       -7.082955   -1.240037    0.459842
     36          6           0       -7.342076   -2.708200    0.498892
     37          6           0       -6.068115   -3.311571    0.509920
     38          6           0       -5.109520   -2.214070    0.388619
     39          6           0       -8.679296   -3.338950    0.498319
     40          6           0       -5.279115   -4.550214    0.577651
     41          8           0       -5.653217   -5.764911    0.588627
     42          6           0       -3.812863   -4.183817    0.441369
     43          6           0       -3.100557   -4.559622    1.706481
     44          8           0       -3.414050   -4.258024    2.811178
     45          8           0       -2.059875   -5.408856    1.335067
     46          6           0       -1.234934   -5.656438    2.545506
     47          6           0        3.641366   -4.171261   -1.252335
     48          6           0        4.369900   -2.827248   -1.579134
     49          6           0        5.678929   -2.430051   -1.370291
     50          6           0        6.744002   -3.424185   -0.869247
     51          6           0        5.980397   -0.965776   -1.656877
     52          6           0        6.297417   -0.730505   -3.115597
     53          6           0        7.754153   -0.175098   -3.331249
     54          6           0        7.755543    1.189814   -3.965089
     55          6           0        7.486833    1.104455   -5.495577
     56          6           0        9.022888    1.985617   -3.518688
     57          6           0        8.905141    2.484545   -2.094444
     58          6           0       10.152737    2.218304   -1.211230
     59          6           0        9.833175    1.677585    0.254703
     60          6           0        9.942914    0.126160    0.210214
     61          6           0       10.711305    2.239779    1.374560
     62          6           0        9.980026    2.621228    2.681882
     63          6           0       10.680537    2.011539    3.988076
     64          6           0        9.835662    0.954409    4.810172
     65          6           0        9.569610    1.375181    6.300045
     66          6           0       10.436263   -0.448073    4.715204
     67          1           0       -0.163945    1.819417   -0.022010
     68          1           0       -5.866430    4.907788   -0.039827
     69          1           0       -9.034584   -0.559488    0.183327
     70          1           0       -0.715501   -3.025089    0.600803
     71          1           0        0.107272   -0.692245   -0.898686
     72          1           0        0.360591   -0.215161    2.043024
     73          1           0        1.673656   -0.628333    1.042285
     74          1           0        0.559924   -1.888902    1.677099
     75          1           0       -0.707641   -2.103116   -2.232046
     76          1           0       -2.033866   -3.268572   -1.811436
     77          1           0       -0.446672   -4.714112   -2.513670
     78          1           0       -0.050668   -4.671916   -0.793072
     79          1           0        0.323334    3.826701    0.117545
     80          1           0       -0.305873    5.263234    0.803012
     81          1           0       -0.288587    5.154844   -1.029298
     82          1           0       -1.930844    7.017225   -1.284344
     83          1           0       -1.247184    7.188622    0.320417
     84          1           0       -2.625849    8.110675   -0.192126
     85          1           0       -8.205758    4.093527   -0.894495
     86          1           0       -9.661118    2.236998    0.770335
     87          1           0       -7.906797    4.538086    1.994036
     88          1           0       -9.558649    4.118775    1.604240
     89          1           0       -8.665494    5.410123    0.725613
     90          1           0       -9.913107    1.092574   -1.483304
     91          1           0       -8.732463    2.256085   -2.006010
     92          1           0      -10.768907    3.864344   -0.863751
     93          1           0      -11.509108    2.391174   -1.801477
     94          1           0      -10.589497    3.592277   -2.648895
     95          1           0       -9.375750   -2.736083   -0.085065
     96          1           0       -9.080989   -3.374822    1.511258
     97          1           0       -8.705929   -4.320211    0.023475
     98          1           0       -3.437863   -4.606804   -0.490393
     99          1           0       -0.804310   -4.695617    2.829083
    100          1           0       -0.450419   -6.381462    2.329890
    101          1           0       -1.815076   -5.987580    3.406893
    102          1           0        3.774247   -4.881092   -2.068265
    103          1           0        3.976762   -4.671634   -0.343839
    104          1           0        3.740482   -2.023881   -1.962070
    105          1           0        7.641718   -2.881543   -0.572994
    106          1           0        7.031786   -3.949674   -1.779475
    107          1           0        6.435486   -4.183737   -0.150088
    108          1           0        6.764668   -0.534214   -1.034855
    109          1           0        5.114969   -0.345284   -1.424436
    110          1           0        5.603070   -0.085412   -3.653609
    111          1           0        6.281226   -1.729678   -3.550891
    112          1           0        8.353125   -0.858122   -3.932369
    113          1           0        8.373747   -0.061460   -2.441466
    114          1           0        6.838763    1.625659   -3.567341
    115          1           0        8.229411    1.702147   -6.023063
    116          1           0        6.507876    1.540339   -5.694989
    117          1           0        7.590928    0.079940   -5.852788
    118          1           0        9.103550    2.867868   -4.154382
    119          1           0        9.801714    1.243717   -3.689394
    120          1           0        8.002646    2.060386   -1.654718
    121          1           0        8.786082    3.566785   -2.153292
    122          1           0       10.706095    3.156643   -1.246276
    123          1           0       10.788735    1.514612   -1.747489
    124          1           0        8.786357    1.923461    0.434064
    125          1           0       10.539022   -0.145003    1.081730
    126          1           0       10.354629   -0.207150   -0.741650
    127          1           0        8.966642   -0.353870    0.149941
    128          1           0       11.045177    3.177963    0.930350
    129          1           0       11.642157    1.712419    1.579174
    130          1           0        8.937403    2.313319    2.596852
    131          1           0        9.919661    3.702045    2.799743
    132          1           0       10.997263    2.822972    4.644137
    133          1           0       11.602366    1.512255    3.687749
    134          1           0        8.856231    0.727694    4.390862
    135          1           0        9.315369    2.432386    6.231387
    136          1           0       10.465713    1.377652    6.920531
    137          1           0        8.869835    0.687745    6.776317
    138          1           0        9.609989   -1.060053    5.077729
    139          1           0       11.311800   -0.524545    5.359399
    140          1           0       10.692707   -0.743064    3.697615
 ---------------------------------------------------------------------

 SCF Done:  E(RCAM-B3LYP) =  -3007.16564115     A.U. after   18 cycles

 Excitation energies and oscillator strengths:

 Excited State   1:      Singlet-A      1.7688 eV  700.95 nm  f=0.3493  <S**2>=0.000
     245 -> 248       -0.20507
     246 -> 247        0.67775
     245 <- 248       -0.10984
 This state for optimization and/or second-order correction.
 Total Energy, E(TD-HF/TD-DFT) =  -3007.10063918
 Copying the excited state density for this state as the 1-particle RhoCI density.

 Excited State   2:      Singlet-A      2.2602 eV  548.54 nm  f=0.0670  <S**2>=0.000
     245 -> 247        0.61483
     246 -> 248        0.33893

 Excited State   3:      Singlet-A      3.4148 eV  363.08 nm  f=0.3181  <S**2>=0.000
     241 -> 247       -0.37592
     241 -> 248       -0.11501
     241 -> 249       -0.29186
     241 -> 251        0.11332
     245 -> 247       -0.21175
     246 -> 248        0.40533

 Excited State   4:      Singlet-A      3.4480 eV  359.58 nm  f=0.4028  <S**2>=0.000
     241 -> 247        0.28149
     241 -> 248        0.10309
     241 -> 249        0.25474
     242 -> 247       -0.21099
     245 -> 247       -0.23763
     246 -> 248        0.44817

 Excited State   5:      Singlet-A      3.6381 eV  340.80 nm  f=0.0319  <S**2>=0.000
     242 -> 247       -0.30253
     243 -> 247        0.59952

 The electronic state is 1-A.
 Alpha  occ. eigenvalues --  -46.88771 -19.25496 -19.24125 -19.20949 -19.19894
 Alpha  occ. eigenvalues --  -19.18987 -19.18497 -14.42366 -14.41270 -14.39866
 Alpha  occ. eigenvalues --  -14.39857 -10.39736 -10.39539 -10.35035 -10.34904
 Alpha  occ. eigenvalues --  -10.33055 -10.31587 -10.31531 -10.30840 -10.30830
 Alpha  occ. eigenvalues --  -10.30528 -10.30389 -10.30270 -10.30050 -10.29238
 Alpha  occ. eigenvalues --  -10.28916 -10.28864 -10.28722 -10.28235 -10.28166
 Alpha  occ. eigenvalues --  -10.28158 -10.28056 -10.28019 -10.27853 -10.27801
 Alpha  occ. eigenvalues --  -10.27469 -10.26990 -10.26738 -10.26557 -10.26540
 Alpha  occ. eigenvalues --  -10.26235 -10.26232 -10.26186 -10.26146 -10.26133
 Alpha  occ. eigenvalues --  -10.26097 -10.25993 -10.25929 -10.25892 -10.25871
 Alpha  occ. eigenvalues --  -10.25848 -10.25823 -10.25443 -10.25357 -10.25176
 Alpha  occ. eigenvalues --  -10.25056 -10.25041 -10.24949 -10.24918 -10.24836
 Alpha  occ. eigenvalues --  -10.24826 -10.24692 -10.24626 -10.24479 -10.24370
 Alpha  occ. eigenvalues --  -10.24322  -3.17346  -1.92229  -1.91809  -1.91658
 Alpha  occ. eigenvalues --   -1.17245  -1.13905  -1.12119  -1.09287  -1.06896
 Alpha  occ. eigenvalues --   -1.05793  -1.04064  -1.03651  -1.02561  -1.01582
 Alpha  occ. eigenvalues --   -0.92465  -0.90861  -0.90026  -0.89682  -0.89394
 Alpha  occ. eigenvalues --   -0.88541  -0.88302  -0.87352  -0.87255  -0.87197
 Alpha  occ. eigenvalues --   -0.86482  -0.85708  -0.84368  -0.83619  -0.83111
 Alpha  occ. eigenvalues --   -0.82366  -0.82069  -0.81310  -0.80667  -0.80199
 Alpha  occ. eigenvalues --   -0.79845  -0.78742  -0.77962  -0.77449  -0.76254
 Alpha  occ. eigenvalues --   -0.76040  -0.75506  -0.75407  -0.74958  -0.74443
 Alpha  occ. eigenvalues --   -0.73247  -0.72517  -0.71865  -0.70761  -0.68980
 Alpha  occ. eigenvalues --   -0.68469  -0.68351  -0.67202  -0.66968  -0.65848
 Alpha  occ. eigenvalues --   -0.65298  -0.65195  -0.64507  -0.64210  -0.64127
 Alpha  occ. eigenvalues --   -0.63103  -0.62504  -0.62372  -0.62280  -0.60762
 Alpha  occ. eigenvalues --   -0.59852  -0.59659  -0.59302  -0.59076  -0.58709
 Alpha  occ. eigenvalues --   -0.57554  -0.57235  -0.56499  -0.55703  -0.55317
 Alpha  occ. eigenvalues --   -0.55194  -0.54976  -0.54557  -0.54516  -0.54214
 Alpha  occ. eigenvalues --   -0.53870  -0.53407  -0.53336  -0.53251  -0.53195
 Alpha  occ. eigenvalues --   -0.52639  -0.52174  -0.52042  -0.51955  -0.51785
 Alpha  occ. eigenvalues --   -0.51509  -0.51275  -0.51143  -0.50884  -0.50614
 Alpha  occ. eigenvalues --   -0.50485  -0.50316  -0.50166  -0.50018  -0.49787
 Alpha  occ. eigenvalues --   -0.49633  -0.49299  -0.48771  -0.48765  -0.48546
 Alpha  occ. eigenvalues --   -0.48534  -0.48263  -0.48220  -0.48005  -0.47682
 Alpha  occ. eigenvalues --   -0.47526  -0.47400  -0.47001  -0.46851  -0.46694
 Alpha  occ. eigenvalues --   -0.46514  -0.46381  -0.46126  -0.46017  -0.45870
 Alpha  occ. eigenvalues --   -0.45739  -0.45633  -0.45346  -0.45180  -0.45106
 Alpha  occ. eigenvalues --   -0.44813  -0.44706  -0.44628  -0.44168  -0.44081
 Alpha  occ. eigenvalues --   -0.43963  -0.43786  -0.43489  -0.43327  -0.43000
 Alpha  occ. eigenvalues --   -0.42878  -0.42748  -0.42679  -0.42403  -0.42246
 Alpha  occ. eigenvalues --   -0.41874  -0.41809  -0.41673  -0.41362  -0.41218
 Alpha  occ. eigenvalues --   -0.41138  -0.40934  -0.40512  -0.40254  -0.39965
 Alpha  occ. eigenvalues --   -0.39761  -0.39579  -0.38967  -0.38862  -0.38683
 Alpha  occ. eigenvalues --   -0.38427  -0.38204  -0.37951  -0.37859  -0.37649
 Alpha  occ. eigenvalues --   -0.37614  -0.37276  -0.36875  -0.36737  -0.36384
 Alpha  occ. eigenvalues --   -0.36168  -0.35753  -0.35512  -0.35467  -0.34633
 Alpha  occ. eigenvalues --   -0.34470  -0.33760  -0.33031  -0.31555  -0.30980
 Alpha  occ. eigenvalues --   -0.30755  -0.30433  -0.30132  -0.29147  -0.23852
 Alpha  occ. eigenvalues --   -0.21020
 Alpha virt. eigenvalues --   -0.08105  -0.02229   0.00064   0.02117   0.02507
 Alpha virt. eigenvalues --    0.03388   0.04724   0.05357   0.05930   0.06993
 Alpha virt. eigenvalues --    0.07915   0.08082   0.08138   0.08546   0.08590

 Mulliken charges:
               1
     1  Mg   0.837931
     2  C   -0.106981
     3  C   -0.070358
     4  C   -0.019915
     5  C   -0.103115
     6  N   -0.264394
     7  C    0.000365
     8  C   -0.016202
     9  C   -0.050218
    10  C    0.048618
    11  C    0.084151
    12  C    0.047886
    13  C    0.056007
    14  C    0.167459
    15  O   -0.259067
    16  O   -0.381091
    17  N   -0.371171
    18  C    0.112391
    19  C   -0.188831
    20  C   -0.026229
    21  C    0.119710
    22  C    0.145904
    23  C    0.006803
    24  O   -0.174431
    25  C    0.031297
    26  N   -0.252542
    27  C   -0.011724
    28  C   -0.069318
    29  C    0.018421
    30  C    0.048750
    31  C    0.083101
    32  C   -0.006666
    33  C    0.041037
    34  N   -0.429843
    35  C    0.142567
    36  C   -0.186690
    37  C    0.039275
    38  C    0.162454
    39  C    0.118238
    40  C    0.056604
    41  O   -0.222764
    42  C    0.039200
    43  C    0.195792
    44  O   -0.169165
    45  O   -0.348035
    46  C    0.178663
    47  C    0.295977
    48  C   -0.107809
    49  C   -0.212605
    50  C    0.084982
    51  C    0.095415
    52  C    0.043266
    53  C    0.028174
    54  C   -0.197103
    55  C    0.073422
    56  C    0.072224
    57  C    0.011081
    58  C    0.038754
    59  C   -0.147647
    60  C    0.057310
    61  C    0.063689
    62  C    0.024188
    63  C    0.041282
    64  C   -0.139773
    65  C    0.030301
    66  C    0.027604
    67  H   -0.030698
    68  H   -0.009079
    69  H   -0.032972
    70  H    0.008879
    71  H    0.016633
    72  H    0.013219
    73  H    0.023659
    74  H    0.006017
    75  H    0.026491
    76  H    0.017753
    77  H    0.039075
    78  H    0.036474
    79  H    0.010683
    80  H    0.034936
    81  H    0.045488
    82  H    0.033491
    83  H    0.033513
    84  H    0.019199
    85  H    0.020143
    86  H   -0.008552
    87  H    0.022561
    88  H    0.017744
    89  H    0.013461
    90  H   -0.004594
    91  H   -0.004816
    92  H    0.026089
    93  H    0.022486
    94  H    0.019306
    95  H    0.008580
    96  H    0.038708
    97  H    0.036613
    98  H    0.041274
    99  H    0.022596
   100  H    0.038907
   101  H    0.049151
   102  H    0.032031
   103  H    0.028426
   104  H    0.003790
   105  H    0.011249
   106  H    0.024677
   107  H    0.028800
   108  H   -0.006207
   109  H   -0.002723
   110  H    0.010299
   111  H    0.009188
   112  H   -0.014178
   113  H   -0.032198
   114  H   -0.016558
   115  H   -0.002891
   116  H    0.012343
   117  H    0.008581
   118  H   -0.007694
   119  H    0.001671
   120  H    0.003460
   121  H   -0.000832
   122  H   -0.008639
   123  H   -0.006582
   124  H   -0.001346
   125  H    0.015825
   126  H    0.008970
   127  H    0.003444
   128  H   -0.019689
   129  H   -0.000882
   130  H   -0.000773
   131  H    0.000552
   132  H   -0.008546
   133  H   -0.007265
   134  H   -0.003308
   135  H    0.012937
   136  H    0.001675
   137  H    0.013957
   138  H    0.000917
   139  H    0.006622
   140  H    0.011877
 Sum of Mulliken charges =  -0.00000

 Dipole moment (field-independent basis, Debye):
    X=              3.9945    Y=              4.0638    Z=             -1.2591  Tot=              5.8357
 Quadrupole moment (field-independent basis, Debye-Ang):
   XX=           -381.4100   YY=           -422.9886   ZZ=           -419.8316
   XY=            -20.3582   XZ=             21.9009   YZ=             -8.2594

 Normal termination of Gaussian 16 at Wed Apr 27 23:54:53 2022.
