 Gaussian 16, Revision A.03,
 Gaussian 16:  ES64L-G16RevA.03 25-Dec-2016

 ---------------------------------
 #p PBE1PBE/Def2SVP td=(nstates=5)
 ---------------------------------

 ------------------------------------------------------
 step_1351_chromophore_27 TDDFT with PBE1PBE functional
 ------------------------------------------------------
 Symbolic Z-matrix:
 Charge =  0 Multiplicity = 1

                         Standard orientation:
 ---------------------------------------------------------------------
 Center     Atomic      Atomic             Coordinates (Angstroms)
 Number     Number       Type             X           Y           Z
 ---------------------------------------------------------------------
      1         12           0       -4.643742    0.657114    0.026820
      2          6           0       -3.794893   -2.630105    0.334867
      3          6           0       -1.201337    1.482159    0.031161
      4          6           0       -5.524608    3.884398    0.125780
      5          6           0       -8.014381   -0.193342    0.313498
      6          7           0       -2.689315   -0.460292    0.305955
      7          6           0       -2.589126   -1.855416    0.321706
      8          6           0       -1.149738   -2.260489   -0.042833
      9          6           0       -0.369364   -0.905939    0.057445
     10          6           0       -1.487921    0.109731    0.154677
     11          6           0        0.634214   -0.894202    1.235918
     12          6           0       -1.068024   -2.852308   -1.525830
     13          6           0       -0.105301   -4.072965   -1.701260
     14          6           0        1.293289   -3.762735   -2.149499
     15          8           0        1.735565   -3.613912   -3.314010
     16          8           0        2.170536   -3.987806   -1.071629
     17          7           0       -3.539652    2.454674    0.072514
     18          6           0       -2.141990    2.555203    0.076940
     19          6           0       -1.784775    4.023908   -0.028572
     20          6           0       -3.038930    4.636981    0.049655
     21          6           0       -4.108584    3.672517    0.027985
     22          6           0       -0.387494    4.628442   -0.079675
     23          6           0       -3.256545    6.147068    0.128985
     24          8           0       -4.366251    6.541623    0.321490
     25          6           0       -2.185941    7.113768   -0.229730
     26          7           0       -6.587385    1.719915    0.283205
     27          6           0       -6.658102    3.061257    0.180546
     28          6           0       -8.137480    3.547557    0.046932
     29          6           0       -8.904533    2.221974   -0.014009
     30          6           0       -7.814781    1.166270    0.277889
     31          6           0       -8.606010    4.416315    1.167710
     32          6           0       -9.586105    2.123199   -1.342226
     33          6           0      -10.720264    3.131790   -1.669654
     34          7           0       -5.687354   -0.966161    0.338540
     35          6           0       -7.082955   -1.240037    0.459842
     36          6           0       -7.342076   -2.708200    0.498892
     37          6           0       -6.068115   -3.311571    0.509920
     38          6           0       -5.109520   -2.214070    0.388619
     39          6           0       -8.679296   -3.338950    0.498319
     40          6           0       -5.279115   -4.550214    0.577651
     41          8           0       -5.653217   -5.764911    0.588627
     42          6           0       -3.812863   -4.183817    0.441369
     43          6           0       -3.100557   -4.559622    1.706481
     44          8           0       -3.414050   -4.258024    2.811178
     45          8           0       -2.059875   -5.408856    1.335067
     46          6           0       -1.234934   -5.656438    2.545506
     47          6           0        3.641366   -4.171261   -1.252335
     48          6           0        4.369900   -2.827248   -1.579134
     49          6           0        5.678929   -2.430051   -1.370291
     50          6           0        6.744002   -3.424185   -0.869247
     51          6           0        5.980397   -0.965776   -1.656877
     52          6           0        6.297417   -0.730505   -3.115597
     53          6           0        7.754153   -0.175098   -3.331249
     54          6           0        7.755543    1.189814   -3.965089
     55          6           0        7.486833    1.104455   -5.495577
     56          6           0        9.022888    1.985617   -3.518688
     57          6           0        8.905141    2.484545   -2.094444
     58          6           0       10.152737    2.218304   -1.211230
     59          6           0        9.833175    1.677585    0.254703
     60          6           0        9.942914    0.126160    0.210214
     61          6           0       10.711305    2.239779    1.374560
     62          6           0        9.980026    2.621228    2.681882
     63          6           0       10.680537    2.011539    3.988076
     64          6           0        9.835662    0.954409    4.810172
     65          6           0        9.569610    1.375181    6.300045
     66          6           0       10.436263   -0.448073    4.715204
     67          1           0       -0.163945    1.819417   -0.022010
     68          1           0       -5.866430    4.907788   -0.039827
     69          1           0       -9.034584   -0.559488    0.183327
     70          1           0       -0.715501   -3.025089    0.600803
     71          1           0        0.107272   -0.692245   -0.898686
     72          1           0        0.360591   -0.215161    2.043024
     73          1           0        1.673656   -0.628333    1.042285
     74          1           0        0.559924   -1.888902    1.677099
     75          1           0       -0.707641   -2.103116   -2.232046
     76          1           0       -2.033866   -3.268572   -1.811436
     77          1           0       -0.446672   -4.714112   -2.513670
     78          1           0       -0.050668   -4.671916   -0.793072
     79          1           0        0.323334    3.826701    0.117545
     80          1           0       -0.305873    5.263234    0.803012
     81          1           0       -0.288587    5.154844   -1.029298
     82          1           0       -1.930844    7.017225   -1.284344
     83          1           0       -1.247184    7.188622    0.320417
     84          1           0       -2.625849    8.110675   -0.192126
     85          1           0       -8.205758    4.093527   -0.894495
     86          1           0       -9.661118    2.236998    0.770335
     87          1           0       -7.906797    4.538086    1.994036
     88          1           0       -9.558649    4.118775    1.604240
     89          1           0       -8.665494    5.410123    0.725613
     90          1           0       -9.913107    1.092574   -1.483304
     91          1           0       -8.732463    2.256085   -2.006010
     92          1           0      -10.768907    3.864344   -0.863751
     93          1           0      -11.509108    2.391174   -1.801477
     94          1           0      -10.589497    3.592277   -2.648895
     95          1           0       -9.375750   -2.736083   -0.085065
     96          1           0       -9.080989   -3.374822    1.511258
     97          1           0       -8.705929   -4.320211    0.023475
     98          1           0       -3.437863   -4.606804   -0.490393
     99          1           0       -0.804310   -4.695617    2.829083
    100          1           0       -0.450419   -6.381462    2.329890
    101          1           0       -1.815076   -5.987580    3.406893
    102          1           0        3.774247   -4.881092   -2.068265
    103          1           0        3.976762   -4.671634   -0.343839
    104          1           0        3.740482   -2.023881   -1.962070
    105          1           0        7.641718   -2.881543   -0.572994
    106          1           0        7.031786   -3.949674   -1.779475
    107          1           0        6.435486   -4.183737   -0.150088
    108          1           0        6.764668   -0.534214   -1.034855
    109          1           0        5.114969   -0.345284   -1.424436
    110          1           0        5.603070   -0.085412   -3.653609
    111          1           0        6.281226   -1.729678   -3.550891
    112          1           0        8.353125   -0.858122   -3.932369
    113          1           0        8.373747   -0.061460   -2.441466
    114          1           0        6.838763    1.625659   -3.567341
    115          1           0        8.229411    1.702147   -6.023063
    116          1           0        6.507876    1.540339   -5.694989
    117          1           0        7.590928    0.079940   -5.852788
    118          1           0        9.103550    2.867868   -4.154382
    119          1           0        9.801714    1.243717   -3.689394
    120          1           0        8.002646    2.060386   -1.654718
    121          1           0        8.786082    3.566785   -2.153292
    122          1           0       10.706095    3.156643   -1.246276
    123          1           0       10.788735    1.514612   -1.747489
    124          1           0        8.786357    1.923461    0.434064
    125          1           0       10.539022   -0.145003    1.081730
    126          1           0       10.354629   -0.207150   -0.741650
    127          1           0        8.966642   -0.353870    0.149941
    128          1           0       11.045177    3.177963    0.930350
    129          1           0       11.642157    1.712419    1.579174
    130          1           0        8.937403    2.313319    2.596852
    131          1           0        9.919661    3.702045    2.799743
    132          1           0       10.997263    2.822972    4.644137
    133          1           0       11.602366    1.512255    3.687749
    134          1           0        8.856231    0.727694    4.390862
    135          1           0        9.315369    2.432386    6.231387
    136          1           0       10.465713    1.377652    6.920531
    137          1           0        8.869835    0.687745    6.776317
    138          1           0        9.609989   -1.060053    5.077729
    139          1           0       11.311800   -0.524545    5.359399
    140          1           0       10.692707   -0.743064    3.697615
 ---------------------------------------------------------------------

 SCF Done:  E(RPBE1PBE) =  -3005.35434030     A.U. after   15 cycles

 Excitation energies and oscillator strengths:

 Excited State   1:      Singlet-A      1.9143 eV  647.68 nm  f=0.3412  <S**2>=0.000
     245 -> 248        0.19699
     246 -> 247        0.68401
 This state for optimization and/or second-order correction.
 Total Energy, E(TD-HF/TD-DFT) =  -3005.28399185
 Copying the excited state density for this state as the 1-particle RhoCI density.

 Excited State   2:      Singlet-A      2.2643 eV  547.56 nm  f=0.0757  <S**2>=0.000
     245 -> 247        0.63377
     246 -> 248       -0.29985

 Excited State   3:      Singlet-A      3.0308 eV  409.08 nm  f=0.0021  <S**2>=0.000
     243 -> 247        0.63135
     243 -> 248       -0.12686
     243 -> 249       -0.23981

 Excited State   4:      Singlet-A      3.2210 eV  384.93 nm  f=0.1985  <S**2>=0.000
     240 -> 247        0.10267
     241 -> 247        0.41605
     241 -> 249        0.10100
     242 -> 247       -0.18094
     245 -> 247        0.17988
     246 -> 248        0.43551
     246 -> 249        0.15252

 Excited State   5:      Singlet-A      3.2446 eV  382.12 nm  f=0.1276  <S**2>=0.000
     241 -> 247       -0.31034
     242 -> 247        0.43829
     245 -> 247        0.14056
     246 -> 248        0.35893
     246 -> 249        0.16749

 The electronic state is 1-A.
 Alpha  occ. eigenvalues --  -46.92201 -19.26154 -19.24874 -19.21134 -19.20200
 Alpha  occ. eigenvalues --  -19.19100 -19.18813 -14.41854 -14.40818 -14.39586
 Alpha  occ. eigenvalues --  -14.39483 -10.36812 -10.36549 -10.32255 -10.31948
 Alpha  occ. eigenvalues --  -10.30461 -10.29411 -10.28823 -10.28463 -10.28436
 Alpha  occ. eigenvalues --  -10.28205 -10.28170 -10.27945 -10.27870 -10.27057
 Alpha  occ. eigenvalues --  -10.26775 -10.26526 -10.26436 -10.25993 -10.25924
 Alpha  occ. eigenvalues --  -10.25835 -10.25807 -10.25499 -10.25400 -10.25355
 Alpha  occ. eigenvalues --  -10.25056 -10.24799 -10.24591 -10.24111 -10.24024
 Alpha  occ. eigenvalues --  -10.23937 -10.23929 -10.23813 -10.23740 -10.23609
 Alpha  occ. eigenvalues --  -10.23576 -10.23530 -10.23510 -10.23496 -10.23456
 Alpha  occ. eigenvalues --  -10.23399 -10.23375 -10.22987 -10.22930 -10.22749
 Alpha  occ. eigenvalues --  -10.22733 -10.22533 -10.22517 -10.22497 -10.22394
 Alpha  occ. eigenvalues --  -10.22258 -10.22214 -10.22053 -10.22029 -10.21763
 Alpha  occ. eigenvalues --  -10.21684  -3.14354  -1.87177  -1.86736  -1.86589
 Alpha  occ. eigenvalues --   -1.11983  -1.08712  -1.06789  -1.04125  -1.01654
 Alpha  occ. eigenvalues --   -1.00675  -0.98689  -0.98252  -0.97167  -0.96308
 Alpha  occ. eigenvalues --   -0.86859  -0.84959  -0.84345  -0.83882  -0.83536
 Alpha  occ. eigenvalues --   -0.82652  -0.82584  -0.81647  -0.81490  -0.81347
 Alpha  occ. eigenvalues --   -0.80831  -0.79968  -0.78522  -0.77932  -0.77419
 Alpha  occ. eigenvalues --   -0.76558  -0.76190  -0.75549  -0.74872  -0.74517
 Alpha  occ. eigenvalues --   -0.74093  -0.72996  -0.72244  -0.71757  -0.70570
 Alpha  occ. eigenvalues --   -0.70217  -0.69775  -0.69577  -0.69082  -0.68617
 Alpha  occ. eigenvalues --   -0.67584  -0.66973  -0.66293  -0.65113  -0.63350
 Alpha  occ. eigenvalues --   -0.62970  -0.62606  -0.61470  -0.61300  -0.60334
 Alpha  occ. eigenvalues --   -0.59571  -0.59489  -0.59042  -0.58734  -0.58314
 Alpha  occ. eigenvalues --   -0.57263  -0.56943  -0.56860  -0.56700  -0.55241
 Alpha  occ. eigenvalues --   -0.54353  -0.54038  -0.53875  -0.53559  -0.53317
 Alpha  occ. eigenvalues --   -0.52236  -0.51684  -0.51077  -0.50262  -0.49931
 Alpha  occ. eigenvalues --   -0.49611  -0.49495  -0.49108  -0.48945  -0.48727
 Alpha  occ. eigenvalues --   -0.48346  -0.48015  -0.47739  -0.47724  -0.47581
 Alpha  occ. eigenvalues --   -0.47231  -0.46694  -0.46614  -0.46480  -0.46409
 Alpha  occ. eigenvalues --   -0.46002  -0.45800  -0.45695  -0.45420  -0.45226
 Alpha  occ. eigenvalues --   -0.45030  -0.44925  -0.44647  -0.44604  -0.44359
 Alpha  occ. eigenvalues --   -0.44242  -0.43919  -0.43439  -0.43366  -0.43177
 Alpha  occ. eigenvalues --   -0.43142  -0.42914  -0.42792  -0.42598  -0.42268
 Alpha  occ. eigenvalues --   -0.42199  -0.42032  -0.41678  -0.41557  -0.41274
 Alpha  occ. eigenvalues --   -0.41175  -0.41078  -0.40869  -0.40758  -0.40595
 Alpha  occ. eigenvalues --   -0.40420  -0.40279  -0.40104  -0.39956  -0.39757
 Alpha  occ. eigenvalues --   -0.39503  -0.39432  -0.39383  -0.38920  -0.38815
 Alpha  occ. eigenvalues --   -0.38760  -0.38647  -0.38238  -0.38127  -0.37873
 Alpha  occ. eigenvalues --   -0.37682  -0.37549  -0.37429  -0.37248  -0.37066
 Alpha  occ. eigenvalues --   -0.36806  -0.36580  -0.36513  -0.36135  -0.36067
 Alpha  occ. eigenvalues --   -0.35962  -0.35802  -0.35345  -0.35120  -0.34909
 Alpha  occ. eigenvalues --   -0.34626  -0.34477  -0.33790  -0.33652  -0.33637
 Alpha  occ. eigenvalues --   -0.33201  -0.33185  -0.32884  -0.32661  -0.32507
 Alpha  occ. eigenvalues --   -0.32454  -0.32079  -0.31934  -0.31536  -0.31428
 Alpha  occ. eigenvalues --   -0.31076  -0.30670  -0.30441  -0.30331  -0.29678
 Alpha  occ. eigenvalues --   -0.29599  -0.28667  -0.28557  -0.27053  -0.26116
 Alpha  occ. eigenvalues --   -0.25814  -0.25757  -0.25537  -0.24438  -0.20807
 Alpha  occ. eigenvalues --   -0.18690
 Alpha virt. eigenvalues --   -0.10694  -0.05667  -0.04163  -0.01915  -0.01211
 Alpha virt. eigenvalues --   -0.00585   0.00368   0.00706   0.01413   0.03301
 Alpha virt. eigenvalues --    0.04344   0.04383   0.04639   0.04966   0.05229

 Mulliken charges:
               1
     1  Mg   0.986816
     2  C   -0.134281
     3  C   -0.058215
     4  C   -0.019039
     5  C   -0.105548
     6  N   -0.367238
     7  C    0.087207
     8  C   -0.093891
     9  C   -0.128826
    10  C    0.088239
    11  C    0.029908
    12  C   -0.002606
    13  C   -0.024061
    14  C    0.238256
    15  O   -0.291257
    16  O   -0.410151
    17  N   -0.486735
    18  C    0.136022
    19  C   -0.207435
    20  C   -0.089307
    21  C    0.161143
    22  C    0.077332
    23  C    0.064452
    24  O   -0.212066
    25  C   -0.041282
    26  N   -0.354024
    27  C    0.030745
    28  C   -0.150737
    29  C   -0.059308
    30  C    0.093075
    31  C    0.029715
    32  C   -0.068820
    33  C   -0.031942
    34  N   -0.551627
    35  C    0.165356
    36  C   -0.206851
    37  C   -0.008068
    38  C    0.211314
    39  C    0.066435
    40  C    0.156072
    41  O   -0.265688
    42  C   -0.073972
    43  C    0.284328
    44  O   -0.203603
    45  O   -0.378051
    46  C    0.118139
    47  C    0.256316
    48  C   -0.112271
    49  C   -0.264689
    50  C    0.021306
    51  C    0.026864
    52  C   -0.019074
    53  C   -0.028523
    54  C   -0.281808
    55  C    0.015423
    56  C    0.010966
    57  C   -0.055121
    58  C   -0.012312
    59  C   -0.231275
    60  C   -0.009440
    61  C    0.003408
    62  C   -0.033710
    63  C   -0.015996
    64  C   -0.228215
    65  C   -0.032332
    66  C   -0.037990
    67  H    0.001303
    68  H    0.024039
    69  H   -0.000055
    70  H    0.050097
    71  H    0.053096
    72  H    0.040722
    73  H    0.049797
    74  H    0.033611
    75  H    0.057996
    76  H    0.051691
    77  H    0.071438
    78  H    0.068644
    79  H    0.038940
    80  H    0.063047
    81  H    0.072239
    82  H    0.060778
    83  H    0.058109
    84  H    0.046792
    85  H    0.056423
    86  H    0.029419
    87  H    0.050149
    88  H    0.043356
    89  H    0.040557
    90  H    0.028703
    91  H    0.030066
    92  H    0.054601
    93  H    0.050081
    94  H    0.047553
    95  H    0.035346
    96  H    0.067140
    97  H    0.064016
    98  H    0.077806
    99  H    0.045896
   100  H    0.060981
   101  H    0.071750
   102  H    0.058868
   103  H    0.053888
   104  H    0.032544
   105  H    0.040517
   106  H    0.052939
   107  H    0.054433
   108  H    0.031681
   109  H    0.029858
   110  H    0.040825
   111  H    0.044108
   112  H    0.018761
   113  H    0.009914
   114  H    0.023467
   115  H    0.025099
   116  H    0.039048
   117  H    0.035437
   118  H    0.025818
   119  H    0.033948
   120  H    0.036283
   121  H    0.033241
   122  H    0.023077
   123  H    0.025447
   124  H    0.035831
   125  H    0.047220
   126  H    0.034491
   127  H    0.035630
   128  H    0.015951
   129  H    0.029233
   130  H    0.030584
   131  H    0.032733
   132  H    0.023462
   133  H    0.025161
   134  H    0.034649
   135  H    0.041540
   136  H    0.029352
   137  H    0.040885
   138  H    0.029432
   139  H    0.034524
   140  H    0.042540
 Sum of Mulliken charges =  -0.00000

 Dipole moment (field-independent basis, Debye):
    X=              3.7880    Y=              3.9385    Z=             -1.3473  Tot=              5.6282
 Quadrupole moment (field-independent basis, Debye-Ang):
   XX=           -374.4167   YY=           -420.4540   ZZ=           -417.3962
   XY=            -20.3859   XZ=             22.1473   YZ=             -8.3669

 Normal termination of Gaussian 16 at Thu Apr 28 00:18:24 2022.
