 Gaussian 16, Revision A.03,
 Gaussian 16:  ES64L-G16RevA.03 25-Dec-2016

 --------------------------------
 #p wB97XD/Def2SVP td=(nstates=5)
 --------------------------------

 -----------------------------------------------------
 step_1351_chromophore_27 TDDFT with wB97XD functional
 -----------------------------------------------------
 Symbolic Z-matrix:
 Charge =  0 Multiplicity = 1

                         Standard orientation:
 ---------------------------------------------------------------------
 Center     Atomic      Atomic             Coordinates (Angstroms)
 Number     Number       Type             X           Y           Z
 ---------------------------------------------------------------------
      1         12           0       -4.643742    0.657114    0.026820
      2          6           0       -3.794893   -2.630105    0.334867
      3          6           0       -1.201337    1.482159    0.031161
      4          6           0       -5.524608    3.884398    0.125780
      5          6           0       -8.014381   -0.193342    0.313498
      6          7           0       -2.689315   -0.460292    0.305955
      7          6           0       -2.589126   -1.855416    0.321706
      8          6           0       -1.149738   -2.260489   -0.042833
      9          6           0       -0.369364   -0.905939    0.057445
     10          6           0       -1.487921    0.109731    0.154677
     11          6           0        0.634214   -0.894202    1.235918
     12          6           0       -1.068024   -2.852308   -1.525830
     13          6           0       -0.105301   -4.072965   -1.701260
     14          6           0        1.293289   -3.762735   -2.149499
     15          8           0        1.735565   -3.613912   -3.314010
     16          8           0        2.170536   -3.987806   -1.071629
     17          7           0       -3.539652    2.454674    0.072514
     18          6           0       -2.141990    2.555203    0.076940
     19          6           0       -1.784775    4.023908   -0.028572
     20          6           0       -3.038930    4.636981    0.049655
     21          6           0       -4.108584    3.672517    0.027985
     22          6           0       -0.387494    4.628442   -0.079675
     23          6           0       -3.256545    6.147068    0.128985
     24          8           0       -4.366251    6.541623    0.321490
     25          6           0       -2.185941    7.113768   -0.229730
     26          7           0       -6.587385    1.719915    0.283205
     27          6           0       -6.658102    3.061257    0.180546
     28          6           0       -8.137480    3.547557    0.046932
     29          6           0       -8.904533    2.221974   -0.014009
     30          6           0       -7.814781    1.166270    0.277889
     31          6           0       -8.606010    4.416315    1.167710
     32          6           0       -9.586105    2.123199   -1.342226
     33          6           0      -10.720264    3.131790   -1.669654
     34          7           0       -5.687354   -0.966161    0.338540
     35          6           0       -7.082955   -1.240037    0.459842
     36          6           0       -7.342076   -2.708200    0.498892
     37          6           0       -6.068115   -3.311571    0.509920
     38          6           0       -5.109520   -2.214070    0.388619
     39          6           0       -8.679296   -3.338950    0.498319
     40          6           0       -5.279115   -4.550214    0.577651
     41          8           0       -5.653217   -5.764911    0.588627
     42          6           0       -3.812863   -4.183817    0.441369
     43          6           0       -3.100557   -4.559622    1.706481
     44          8           0       -3.414050   -4.258024    2.811178
     45          8           0       -2.059875   -5.408856    1.335067
     46          6           0       -1.234934   -5.656438    2.545506
     47          6           0        3.641366   -4.171261   -1.252335
     48          6           0        4.369900   -2.827248   -1.579134
     49          6           0        5.678929   -2.430051   -1.370291
     50          6           0        6.744002   -3.424185   -0.869247
     51          6           0        5.980397   -0.965776   -1.656877
     52          6           0        6.297417   -0.730505   -3.115597
     53          6           0        7.754153   -0.175098   -3.331249
     54          6           0        7.755543    1.189814   -3.965089
     55          6           0        7.486833    1.104455   -5.495577
     56          6           0        9.022888    1.985617   -3.518688
     57          6           0        8.905141    2.484545   -2.094444
     58          6           0       10.152737    2.218304   -1.211230
     59          6           0        9.833175    1.677585    0.254703
     60          6           0        9.942914    0.126160    0.210214
     61          6           0       10.711305    2.239779    1.374560
     62          6           0        9.980026    2.621228    2.681882
     63          6           0       10.680537    2.011539    3.988076
     64          6           0        9.835662    0.954409    4.810172
     65          6           0        9.569610    1.375181    6.300045
     66          6           0       10.436263   -0.448073    4.715204
     67          1           0       -0.163945    1.819417   -0.022010
     68          1           0       -5.866430    4.907788   -0.039827
     69          1           0       -9.034584   -0.559488    0.183327
     70          1           0       -0.715501   -3.025089    0.600803
     71          1           0        0.107272   -0.692245   -0.898686
     72          1           0        0.360591   -0.215161    2.043024
     73          1           0        1.673656   -0.628333    1.042285
     74          1           0        0.559924   -1.888902    1.677099
     75          1           0       -0.707641   -2.103116   -2.232046
     76          1           0       -2.033866   -3.268572   -1.811436
     77          1           0       -0.446672   -4.714112   -2.513670
     78          1           0       -0.050668   -4.671916   -0.793072
     79          1           0        0.323334    3.826701    0.117545
     80          1           0       -0.305873    5.263234    0.803012
     81          1           0       -0.288587    5.154844   -1.029298
     82          1           0       -1.930844    7.017225   -1.284344
     83          1           0       -1.247184    7.188622    0.320417
     84          1           0       -2.625849    8.110675   -0.192126
     85          1           0       -8.205758    4.093527   -0.894495
     86          1           0       -9.661118    2.236998    0.770335
     87          1           0       -7.906797    4.538086    1.994036
     88          1           0       -9.558649    4.118775    1.604240
     89          1           0       -8.665494    5.410123    0.725613
     90          1           0       -9.913107    1.092574   -1.483304
     91          1           0       -8.732463    2.256085   -2.006010
     92          1           0      -10.768907    3.864344   -0.863751
     93          1           0      -11.509108    2.391174   -1.801477
     94          1           0      -10.589497    3.592277   -2.648895
     95          1           0       -9.375750   -2.736083   -0.085065
     96          1           0       -9.080989   -3.374822    1.511258
     97          1           0       -8.705929   -4.320211    0.023475
     98          1           0       -3.437863   -4.606804   -0.490393
     99          1           0       -0.804310   -4.695617    2.829083
    100          1           0       -0.450419   -6.381462    2.329890
    101          1           0       -1.815076   -5.987580    3.406893
    102          1           0        3.774247   -4.881092   -2.068265
    103          1           0        3.976762   -4.671634   -0.343839
    104          1           0        3.740482   -2.023881   -1.962070
    105          1           0        7.641718   -2.881543   -0.572994
    106          1           0        7.031786   -3.949674   -1.779475
    107          1           0        6.435486   -4.183737   -0.150088
    108          1           0        6.764668   -0.534214   -1.034855
    109          1           0        5.114969   -0.345284   -1.424436
    110          1           0        5.603070   -0.085412   -3.653609
    111          1           0        6.281226   -1.729678   -3.550891
    112          1           0        8.353125   -0.858122   -3.932369
    113          1           0        8.373747   -0.061460   -2.441466
    114          1           0        6.838763    1.625659   -3.567341
    115          1           0        8.229411    1.702147   -6.023063
    116          1           0        6.507876    1.540339   -5.694989
    117          1           0        7.590928    0.079940   -5.852788
    118          1           0        9.103550    2.867868   -4.154382
    119          1           0        9.801714    1.243717   -3.689394
    120          1           0        8.002646    2.060386   -1.654718
    121          1           0        8.786082    3.566785   -2.153292
    122          1           0       10.706095    3.156643   -1.246276
    123          1           0       10.788735    1.514612   -1.747489
    124          1           0        8.786357    1.923461    0.434064
    125          1           0       10.539022   -0.145003    1.081730
    126          1           0       10.354629   -0.207150   -0.741650
    127          1           0        8.966642   -0.353870    0.149941
    128          1           0       11.045177    3.177963    0.930350
    129          1           0       11.642157    1.712419    1.579174
    130          1           0        8.937403    2.313319    2.596852
    131          1           0        9.919661    3.702045    2.799743
    132          1           0       10.997263    2.822972    4.644137
    133          1           0       11.602366    1.512255    3.687749
    134          1           0        8.856231    0.727694    4.390862
    135          1           0        9.315369    2.432386    6.231387
    136          1           0       10.465713    1.377652    6.920531
    137          1           0        8.869835    0.687745    6.776317
    138          1           0        9.609989   -1.060053    5.077729
    139          1           0       11.311800   -0.524545    5.359399
    140          1           0       10.692707   -0.743064    3.697615
 ---------------------------------------------------------------------

 SCF Done:  E(RwB97XD) =  -3007.86485088     A.U. after   20 cycles

 Excitation energies and oscillator strengths:

 Excited State   1:      Singlet-A      1.7136 eV  723.53 nm  f=0.3466  <S**2>=0.000
     245 -> 248       -0.21074
     246 -> 247        0.67580
     245 <- 248       -0.11950
 This state for optimization and/or second-order correction.
 Total Energy, E(TD-HF/TD-DFT) =  -3007.80187763
 Copying the excited state density for this state as the 1-particle RhoCI density.

 Excited State   2:      Singlet-A      2.2045 eV  562.43 nm  f=0.0652  <S**2>=0.000
     245 -> 247        0.61346
     246 -> 248        0.34065

 Excited State   3:      Singlet-A      3.4322 eV  361.24 nm  f=0.4618  <S**2>=0.000
     241 -> 247       -0.30038
     241 -> 249       -0.20724
     242 -> 249       -0.16789
     245 -> 247       -0.25124
     246 -> 248        0.47862

 Excited State   4:      Singlet-A      3.4664 eV  357.67 nm  f=0.2795  <S**2>=0.000
     241 -> 247        0.23021
     241 -> 248        0.10366
     241 -> 249        0.26771
     242 -> 247        0.32147
     242 -> 249        0.18441
     245 -> 247       -0.19401
     246 -> 248        0.36672

 Excited State   5:      Singlet-A      3.6541 eV  339.30 nm  f=0.0396  <S**2>=0.000
     241 -> 247       -0.15662
     242 -> 247        0.33600
     243 -> 247        0.55713

 The electronic state is 1-A.
 Alpha  occ. eigenvalues --  -46.95121 -19.30724 -19.29399 -19.25856 -19.24871
 Alpha  occ. eigenvalues --  -19.23999 -19.23588 -14.46971 -14.45845 -14.44484
 Alpha  occ. eigenvalues --  -14.44475 -10.43587 -10.43380 -10.39083 -10.38860
 Alpha  occ. eigenvalues --  -10.36958 -10.35574 -10.35344 -10.34952 -10.34875
 Alpha  occ. eigenvalues --  -10.34589 -10.34470 -10.34297 -10.34035 -10.33233
 Alpha  occ. eigenvalues --  -10.33050 -10.33007 -10.32824 -10.32306 -10.32244
 Alpha  occ. eigenvalues --  -10.32215 -10.32108 -10.31982 -10.31832 -10.31785
 Alpha  occ. eigenvalues --  -10.31555 -10.31022 -10.30755 -10.30650 -10.30387
 Alpha  occ. eigenvalues --  -10.30239 -10.30233 -10.30126 -10.30115 -10.30094
 Alpha  occ. eigenvalues --  -10.29987 -10.29959 -10.29844 -10.29815 -10.29767
 Alpha  occ. eigenvalues --  -10.29763 -10.29757 -10.29358 -10.29293 -10.29112
 Alpha  occ. eigenvalues --  -10.29022 -10.28910 -10.28877 -10.28874 -10.28762
 Alpha  occ. eigenvalues --  -10.28656 -10.28626 -10.28467 -10.28425 -10.28203
 Alpha  occ. eigenvalues --  -10.28127  -3.21140  -1.94711  -1.94270  -1.94117
 Alpha  occ. eigenvalues --   -1.19386  -1.16093  -1.14335  -1.11491  -1.09135
 Alpha  occ. eigenvalues --   -1.08020  -1.06060  -1.05652  -1.04626  -1.03609
 Alpha  occ. eigenvalues --   -0.94451  -0.92637  -0.91870  -0.91525  -0.91203
 Alpha  occ. eigenvalues --   -0.90328  -0.90253  -0.89298  -0.89135  -0.89022
 Alpha  occ. eigenvalues --   -0.88426  -0.87618  -0.86195  -0.85500  -0.85056
 Alpha  occ. eigenvalues --   -0.84223  -0.83986  -0.83228  -0.82527  -0.82140
 Alpha  occ. eigenvalues --   -0.81745  -0.80728  -0.79875  -0.79347  -0.78186
 Alpha  occ. eigenvalues --   -0.77898  -0.77355  -0.77291  -0.76780  -0.76288
 Alpha  occ. eigenvalues --   -0.75179  -0.74504  -0.73834  -0.72707  -0.70895
 Alpha  occ. eigenvalues --   -0.70464  -0.70247  -0.69100  -0.68938  -0.67834
 Alpha  occ. eigenvalues --   -0.67151  -0.67098  -0.66513  -0.66149  -0.66012
 Alpha  occ. eigenvalues --   -0.64927  -0.64365  -0.64349  -0.64288  -0.62767
 Alpha  occ. eigenvalues --   -0.61798  -0.61565  -0.61291  -0.61044  -0.60697
 Alpha  occ. eigenvalues --   -0.59572  -0.59148  -0.58499  -0.57684  -0.57271
 Alpha  occ. eigenvalues --   -0.57069  -0.56915  -0.56453  -0.56404  -0.56133
 Alpha  occ. eigenvalues --   -0.55771  -0.55357  -0.55196  -0.55187  -0.55109
 Alpha  occ. eigenvalues --   -0.54589  -0.54045  -0.53985  -0.53839  -0.53711
 Alpha  occ. eigenvalues --   -0.53394  -0.53187  -0.53073  -0.52843  -0.52507
 Alpha  occ. eigenvalues --   -0.52389  -0.52248  -0.52026  -0.51917  -0.51691
 Alpha  occ. eigenvalues --   -0.51553  -0.51231  -0.50715  -0.50694  -0.50451
 Alpha  occ. eigenvalues --   -0.50425  -0.50241  -0.50106  -0.49936  -0.49591
 Alpha  occ. eigenvalues --   -0.49463  -0.49365  -0.48924  -0.48775  -0.48548
 Alpha  occ. eigenvalues --   -0.48408  -0.48287  -0.48052  -0.47935  -0.47789
 Alpha  occ. eigenvalues --   -0.47631  -0.47508  -0.47277  -0.47052  -0.47022
 Alpha  occ. eigenvalues --   -0.46683  -0.46619  -0.46553  -0.46110  -0.45956
 Alpha  occ. eigenvalues --   -0.45876  -0.45702  -0.45379  -0.45277  -0.44967
 Alpha  occ. eigenvalues --   -0.44850  -0.44694  -0.44573  -0.44390  -0.44147
 Alpha  occ. eigenvalues --   -0.43821  -0.43707  -0.43635  -0.43228  -0.43160
 Alpha  occ. eigenvalues --   -0.43030  -0.42838  -0.42400  -0.42160  -0.41876
 Alpha  occ. eigenvalues --   -0.41644  -0.41494  -0.40821  -0.40713  -0.40581
 Alpha  occ. eigenvalues --   -0.40266  -0.40122  -0.39836  -0.39704  -0.39616
 Alpha  occ. eigenvalues --   -0.39489  -0.39113  -0.39011  -0.38597  -0.38309
 Alpha  occ. eigenvalues --   -0.38096  -0.37629  -0.37460  -0.37391  -0.36478
 Alpha  occ. eigenvalues --   -0.36459  -0.35684  -0.35317  -0.33715  -0.32991
 Alpha  occ. eigenvalues --   -0.32760  -0.32594  -0.32306  -0.31186  -0.25781
 Alpha  occ. eigenvalues --   -0.22835
 Alpha virt. eigenvalues --   -0.06453  -0.00334   0.02112   0.04584   0.05219
 Alpha virt. eigenvalues --    0.05713   0.07039   0.07514   0.08174   0.09806
 Alpha virt. eigenvalues --    0.10788   0.11149   0.11208   0.11630   0.11832

 Mulliken charges:
               1
     1  Mg   0.976801
     2  C   -0.125122
     3  C   -0.077320
     4  C   -0.034529
     5  C   -0.114272
     6  N   -0.332121
     7  C    0.046004
     8  C   -0.057184
     9  C   -0.102733
    10  C    0.072144
    11  C    0.039056
    12  C    0.009212
    13  C   -0.004535
    14  C    0.221389
    15  O   -0.287253
    16  O   -0.409704
    17  N   -0.454829
    18  C    0.130595
    19  C   -0.201619
    20  C   -0.075581
    21  C    0.148961
    22  C    0.094961
    23  C    0.057503
    24  O   -0.206534
    25  C   -0.031895
    26  N   -0.320951
    27  C    0.016816
    28  C   -0.122551
    29  C   -0.029579
    30  C    0.072665
    31  C    0.035599
    32  C   -0.048770
    33  C   -0.017791
    34  N   -0.519714
    35  C    0.156486
    36  C   -0.202026
    37  C   -0.004629
    38  C    0.193979
    39  C    0.075650
    40  C    0.134514
    41  O   -0.256742
    42  C   -0.033302
    43  C    0.263217
    44  O   -0.199625
    45  O   -0.377493
    46  C    0.135407
    47  C    0.271594
    48  C   -0.126871
    49  C   -0.245655
    50  C    0.035910
    51  C    0.051266
    52  C   -0.003731
    53  C   -0.001683
    54  C   -0.247163
    55  C    0.023917
    56  C    0.029973
    57  C   -0.035274
    58  C    0.003672
    59  C   -0.202433
    60  C    0.011350
    61  C    0.020444
    62  C   -0.019015
    63  C   -0.001612
    64  C   -0.201626
    65  C   -0.018732
    66  C   -0.022070
    67  H   -0.005182
    68  H    0.018309
    69  H   -0.008332
    70  H    0.026991
    71  H    0.041935
    72  H    0.034873
    73  H    0.045676
    74  H    0.027791
    75  H    0.050365
    76  H    0.041475
    77  H    0.066952
    78  H    0.062907
    79  H    0.034779
    80  H    0.056576
    81  H    0.067744
    82  H    0.055955
    83  H    0.054423
    84  H    0.045649
    85  H    0.045139
    86  H    0.017988
    87  H    0.045361
    88  H    0.037946
    89  H    0.035480
    90  H    0.019749
    91  H    0.017786
    92  H    0.046703
    93  H    0.044702
    94  H    0.042467
    95  H    0.028873
    96  H    0.062264
    97  H    0.060431
    98  H    0.071131
    99  H    0.040231
   100  H    0.058380
   101  H    0.067304
   102  H    0.054552
   103  H    0.049969
   104  H    0.027911
   105  H    0.034457
   106  H    0.046085
   107  H    0.049865
   108  H    0.015687
   109  H    0.023108
   110  H    0.033269
   111  H    0.033582
   112  H    0.010005
   113  H   -0.018748
   114  H    0.006722
   115  H    0.019308
   116  H    0.034215
   117  H    0.029556
   118  H    0.018407
   119  H    0.022696
   120  H    0.020951
   121  H    0.026626
   122  H    0.015664
   123  H    0.013282
   124  H    0.022114
   125  H    0.037475
   126  H    0.027777
   127  H    0.024689
   128  H    0.005925
   129  H    0.020619
   130  H    0.020256
   131  H    0.026638
   132  H    0.016782
   133  H    0.014331
   134  H    0.022654
   135  H    0.034489
   136  H    0.022527
   137  H    0.035973
   138  H    0.022777
   139  H    0.027771
   140  H    0.034393
 Sum of Mulliken charges =  -0.00000

 Dipole moment (field-independent basis, Debye):
    X=              4.0878    Y=              4.1708    Z=             -1.3290  Tot=              5.9893
 Quadrupole moment (field-independent basis, Debye-Ang):
   XX=           -376.9854   YY=           -418.4200   ZZ=           -417.0662
   XY=            -20.8219   XZ=             22.5201   YZ=             -8.5740

 Normal termination of Gaussian 16 at Thu Apr 28 00:49:28 2022.
