 Gaussian 16, Revision A.03,
 Gaussian 16:  ES64L-G16RevA.03 25-Dec-2016

 --------------------
 #p ZINDO=(nstates=5)
 --------------------

 ------------------------------
 step_1351_chromophore_27 ZINDO
 ------------------------------
 Symbolic Z-matrix:
 Charge =  0 Multiplicity = 1

                         Standard orientation:
 ---------------------------------------------------------------------
 Center     Atomic      Atomic             Coordinates (Angstroms)
 Number     Number       Type             X           Y           Z
 ---------------------------------------------------------------------
      1         12           0       -4.643742    0.657114    0.026820
      2          6           0       -3.794893   -2.630105    0.334867
      3          6           0       -1.201337    1.482159    0.031161
      4          6           0       -5.524608    3.884398    0.125780
      5          6           0       -8.014381   -0.193342    0.313498
      6          7           0       -2.689315   -0.460292    0.305955
      7          6           0       -2.589126   -1.855416    0.321706
      8          6           0       -1.149738   -2.260489   -0.042833
      9          6           0       -0.369364   -0.905939    0.057445
     10          6           0       -1.487921    0.109731    0.154677
     11          6           0        0.634214   -0.894202    1.235918
     12          6           0       -1.068024   -2.852308   -1.525830
     13          6           0       -0.105301   -4.072965   -1.701260
     14          6           0        1.293289   -3.762735   -2.149499
     15          8           0        1.735565   -3.613912   -3.314010
     16          8           0        2.170536   -3.987806   -1.071629
     17          7           0       -3.539652    2.454674    0.072514
     18          6           0       -2.141990    2.555203    0.076940
     19          6           0       -1.784775    4.023908   -0.028572
     20          6           0       -3.038930    4.636981    0.049655
     21          6           0       -4.108584    3.672517    0.027985
     22          6           0       -0.387494    4.628442   -0.079675
     23          6           0       -3.256545    6.147068    0.128985
     24          8           0       -4.366251    6.541623    0.321490
     25          6           0       -2.185941    7.113768   -0.229730
     26          7           0       -6.587385    1.719915    0.283205
     27          6           0       -6.658102    3.061257    0.180546
     28          6           0       -8.137480    3.547557    0.046932
     29          6           0       -8.904533    2.221974   -0.014009
     30          6           0       -7.814781    1.166270    0.277889
     31          6           0       -8.606010    4.416315    1.167710
     32          6           0       -9.586105    2.123199   -1.342226
     33          6           0      -10.720264    3.131790   -1.669654
     34          7           0       -5.687354   -0.966161    0.338540
     35          6           0       -7.082955   -1.240037    0.459842
     36          6           0       -7.342076   -2.708200    0.498892
     37          6           0       -6.068115   -3.311571    0.509920
     38          6           0       -5.109520   -2.214070    0.388619
     39          6           0       -8.679296   -3.338950    0.498319
     40          6           0       -5.279115   -4.550214    0.577651
     41          8           0       -5.653217   -5.764911    0.588627
     42          6           0       -3.812863   -4.183817    0.441369
     43          6           0       -3.100557   -4.559622    1.706481
     44          8           0       -3.414050   -4.258024    2.811178
     45          8           0       -2.059875   -5.408856    1.335067
     46          6           0       -1.234934   -5.656438    2.545506
     47          6           0        3.641366   -4.171261   -1.252335
     48          6           0        4.369900   -2.827248   -1.579134
     49          6           0        5.678929   -2.430051   -1.370291
     50          6           0        6.744002   -3.424185   -0.869247
     51          6           0        5.980397   -0.965776   -1.656877
     52          6           0        6.297417   -0.730505   -3.115597
     53          6           0        7.754153   -0.175098   -3.331249
     54          6           0        7.755543    1.189814   -3.965089
     55          6           0        7.486833    1.104455   -5.495577
     56          6           0        9.022888    1.985617   -3.518688
     57          6           0        8.905141    2.484545   -2.094444
     58          6           0       10.152737    2.218304   -1.211230
     59          6           0        9.833175    1.677585    0.254703
     60          6           0        9.942914    0.126160    0.210214
     61          6           0       10.711305    2.239779    1.374560
     62          6           0        9.980026    2.621228    2.681882
     63          6           0       10.680537    2.011539    3.988076
     64          6           0        9.835662    0.954409    4.810172
     65          6           0        9.569610    1.375181    6.300045
     66          6           0       10.436263   -0.448073    4.715204
     67          1           0       -0.163945    1.819417   -0.022010
     68          1           0       -5.866430    4.907788   -0.039827
     69          1           0       -9.034584   -0.559488    0.183327
     70          1           0       -0.715501   -3.025089    0.600803
     71          1           0        0.107272   -0.692245   -0.898686
     72          1           0        0.360591   -0.215161    2.043024
     73          1           0        1.673656   -0.628333    1.042285
     74          1           0        0.559924   -1.888902    1.677099
     75          1           0       -0.707641   -2.103116   -2.232046
     76          1           0       -2.033866   -3.268572   -1.811436
     77          1           0       -0.446672   -4.714112   -2.513670
     78          1           0       -0.050668   -4.671916   -0.793072
     79          1           0        0.323334    3.826701    0.117545
     80          1           0       -0.305873    5.263234    0.803012
     81          1           0       -0.288587    5.154844   -1.029298
     82          1           0       -1.930844    7.017225   -1.284344
     83          1           0       -1.247184    7.188622    0.320417
     84          1           0       -2.625849    8.110675   -0.192126
     85          1           0       -8.205758    4.093527   -0.894495
     86          1           0       -9.661118    2.236998    0.770335
     87          1           0       -7.906797    4.538086    1.994036
     88          1           0       -9.558649    4.118775    1.604240
     89          1           0       -8.665494    5.410123    0.725613
     90          1           0       -9.913107    1.092574   -1.483304
     91          1           0       -8.732463    2.256085   -2.006010
     92          1           0      -10.768907    3.864344   -0.863751
     93          1           0      -11.509108    2.391174   -1.801477
     94          1           0      -10.589497    3.592277   -2.648895
     95          1           0       -9.375750   -2.736083   -0.085065
     96          1           0       -9.080989   -3.374822    1.511258
     97          1           0       -8.705929   -4.320211    0.023475
     98          1           0       -3.437863   -4.606804   -0.490393
     99          1           0       -0.804310   -4.695617    2.829083
    100          1           0       -0.450419   -6.381462    2.329890
    101          1           0       -1.815076   -5.987580    3.406893
    102          1           0        3.774247   -4.881092   -2.068265
    103          1           0        3.976762   -4.671634   -0.343839
    104          1           0        3.740482   -2.023881   -1.962070
    105          1           0        7.641718   -2.881543   -0.572994
    106          1           0        7.031786   -3.949674   -1.779475
    107          1           0        6.435486   -4.183737   -0.150088
    108          1           0        6.764668   -0.534214   -1.034855
    109          1           0        5.114969   -0.345284   -1.424436
    110          1           0        5.603070   -0.085412   -3.653609
    111          1           0        6.281226   -1.729678   -3.550891
    112          1           0        8.353125   -0.858122   -3.932369
    113          1           0        8.373747   -0.061460   -2.441466
    114          1           0        6.838763    1.625659   -3.567341
    115          1           0        8.229411    1.702147   -6.023063
    116          1           0        6.507876    1.540339   -5.694989
    117          1           0        7.590928    0.079940   -5.852788
    118          1           0        9.103550    2.867868   -4.154382
    119          1           0        9.801714    1.243717   -3.689394
    120          1           0        8.002646    2.060386   -1.654718
    121          1           0        8.786082    3.566785   -2.153292
    122          1           0       10.706095    3.156643   -1.246276
    123          1           0       10.788735    1.514612   -1.747489
    124          1           0        8.786357    1.923461    0.434064
    125          1           0       10.539022   -0.145003    1.081730
    126          1           0       10.354629   -0.207150   -0.741650
    127          1           0        8.966642   -0.353870    0.149941
    128          1           0       11.045177    3.177963    0.930350
    129          1           0       11.642157    1.712419    1.579174
    130          1           0        8.937403    2.313319    2.596852
    131          1           0        9.919661    3.702045    2.799743
    132          1           0       10.997263    2.822972    4.644137
    133          1           0       11.602366    1.512255    3.687749
    134          1           0        8.856231    0.727694    4.390862
    135          1           0        9.315369    2.432386    6.231387
    136          1           0       10.465713    1.377652    6.920531
    137          1           0        8.869835    0.687745    6.776317
    138          1           0        9.609989   -1.060053    5.077729
    139          1           0       11.311800   -0.524545    5.359399
    140          1           0       10.692707   -0.743064    3.697615
 ---------------------------------------------------------------------

 SCF Done:  E(RZINDO/S) =  -474.101994791     A.U. after   20 cycles

 Excitation energies and oscillator strengths:

 Excited State   1:      Singlet-A      1.2960 eV  956.64 nm  f=0.5433  <S**2>=0.000
     175 ->178        -0.20255
     176 ->177         0.65880
 This state for optimization and/or second-order correction.
 Total Energy, E(CIS/TDA) =  -474.054366254
 Copying the excited state density for this state as the 1-particle RhoCI density.

 Excited State   2:      Singlet-A      1.8869 eV  657.08 nm  f=0.0036  <S**2>=0.000
     175 ->177         0.49520
     176 ->178         0.47993

 Excited State   3:      Singlet-A      2.8383 eV  436.83 nm  f=0.5286  <S**2>=0.000
     175 ->177        -0.33662
     176 ->178         0.41204
     176 ->179         0.39757
     176 ->181        -0.12654

 Excited State   4:      Singlet-A      2.9493 eV  420.39 nm  f=0.0009  <S**2>=0.000
     168 ->177        -0.26076
     168 ->179         0.31580
     168 ->181         0.40695
     168 ->186         0.20337
     168 ->187        -0.13930

 Excited State   5:      Singlet-A      2.9709 eV  417.33 nm  f=0.0018  <S**2>=0.000
     169 ->177         0.29693
     169 ->178         0.23431
     169 ->179         0.38844
     169 ->181        -0.26544
     169 ->186         0.20495
     169 ->187         0.12386
     169 ->200        -0.11603

 The electronic state is 1-A.
 Alpha  occ. eigenvalues --   -1.82571  -1.81255  -1.79449  -1.73397  -1.71101
 Alpha  occ. eigenvalues --   -1.68615  -1.67036  -1.61985  -1.59909  -1.57379
 Alpha  occ. eigenvalues --   -1.54031  -1.50778  -1.49809  -1.47230  -1.46368
 Alpha  occ. eigenvalues --   -1.43967  -1.42879  -1.40604  -1.39045  -1.38403
 Alpha  occ. eigenvalues --   -1.35847  -1.33796  -1.32409  -1.31436  -1.28832
 Alpha  occ. eigenvalues --   -1.27405  -1.24511  -1.22013  -1.19458  -1.17828
 Alpha  occ. eigenvalues --   -1.16349  -1.15419  -1.15346  -1.14102  -1.13778
 Alpha  occ. eigenvalues --   -1.12846  -1.11187  -1.10792  -1.05304  -1.03331
 Alpha  occ. eigenvalues --   -1.02615  -1.01283  -0.98856  -0.98069  -0.96734
 Alpha  occ. eigenvalues --   -0.95507  -0.94705  -0.93991  -0.93237  -0.92693
 Alpha  occ. eigenvalues --   -0.92005  -0.90927  -0.88622  -0.87978  -0.86682
 Alpha  occ. eigenvalues --   -0.86513  -0.83478  -0.83292  -0.82733  -0.80780
 Alpha  occ. eigenvalues --   -0.79673  -0.79406  -0.77717  -0.76940  -0.76689
 Alpha  occ. eigenvalues --   -0.75836  -0.75383  -0.74212  -0.73720  -0.73622
 Alpha  occ. eigenvalues --   -0.73341  -0.73062  -0.72047  -0.71785  -0.71567
 Alpha  occ. eigenvalues --   -0.71421  -0.69905  -0.69059  -0.67973  -0.67789
 Alpha  occ. eigenvalues --   -0.67581  -0.67244  -0.67142  -0.66453  -0.65936
 Alpha  occ. eigenvalues --   -0.65789  -0.64558  -0.64403  -0.63948  -0.63455
 Alpha  occ. eigenvalues --   -0.62625  -0.62390  -0.62298  -0.61845  -0.61342
 Alpha  occ. eigenvalues --   -0.60872  -0.60527  -0.60423  -0.60211  -0.60002
 Alpha  occ. eigenvalues --   -0.59159  -0.58851  -0.58612  -0.58306  -0.57950
 Alpha  occ. eigenvalues --   -0.57647  -0.57399  -0.57291  -0.57210  -0.56826
 Alpha  occ. eigenvalues --   -0.56706  -0.56495  -0.55480  -0.55343  -0.54923
 Alpha  occ. eigenvalues --   -0.54536  -0.54300  -0.53868  -0.53188  -0.53110
 Alpha  occ. eigenvalues --   -0.52732  -0.52277  -0.51935  -0.51869  -0.51665
 Alpha  occ. eigenvalues --   -0.51577  -0.51119  -0.50814  -0.50635  -0.50319
 Alpha  occ. eigenvalues --   -0.50042  -0.49998  -0.49598  -0.49370  -0.48909
 Alpha  occ. eigenvalues --   -0.48714  -0.48451  -0.48041  -0.47955  -0.47733
 Alpha  occ. eigenvalues --   -0.47570  -0.47410  -0.46933  -0.46815  -0.46348
 Alpha  occ. eigenvalues --   -0.46045  -0.45792  -0.45754  -0.45594  -0.45428
 Alpha  occ. eigenvalues --   -0.45240  -0.45104  -0.44147  -0.44081  -0.43911
 Alpha  occ. eigenvalues --   -0.43631  -0.43485  -0.43152  -0.42866  -0.42727
 Alpha  occ. eigenvalues --   -0.42447  -0.42225  -0.41547  -0.39296  -0.39002
 Alpha  occ. eigenvalues --   -0.38347  -0.37508  -0.35334  -0.35110  -0.34775
 Alpha  occ. eigenvalues --   -0.33820  -0.32788  -0.32349  -0.31349  -0.26583
 Alpha  occ. eigenvalues --   -0.21661
 Alpha virt. eigenvalues --   -0.08026  -0.02799  -0.00416   0.00710   0.01304
 Alpha virt. eigenvalues --    0.02118   0.02414   0.03167   0.04226   0.04778
 Alpha virt. eigenvalues --    0.06213   0.07193   0.07289   0.07699   0.08054

 Mulliken charges:
               1
     1  Mg   0.434675
     2  C   -0.033676
     3  C   -0.086624
     4  C   -0.075943
     5  C   -0.057318
     6  N   -0.278655
     7  C    0.082745
     8  C    0.006963
     9  C    0.006635
    10  C    0.157365
    11  C   -0.051551
    12  C   -0.025295
    13  C    0.008142
    14  C    0.466578
    15  O   -0.520528
    16  O   -0.299899
    17  N   -0.320472
    18  C    0.103099
    19  C    0.001355
    20  C   -0.031515
    21  C    0.157621
    22  C   -0.038523
    23  C    0.329021
    24  O   -0.502973
    25  C   -0.033437
    26  N   -0.269917
    27  C    0.146373
    28  C    0.012464
    29  C    0.008780
    30  C    0.109492
    31  C   -0.047902
    32  C   -0.030271
    33  C   -0.065440
    34  N   -0.319603
    35  C    0.072307
    36  C    0.038207
    37  C   -0.054754
    38  C    0.104486
    39  C   -0.031522
    40  C    0.338628
    41  O   -0.545146
    42  C    0.052151
    43  C    0.498486
    44  O   -0.500226
    45  O   -0.280949
    46  C    0.071989
    47  C    0.112440
    48  C   -0.101344
    49  C   -0.003997
    50  C   -0.043503
    51  C   -0.008976
    52  C   -0.030435
    53  C   -0.040027
    54  C   -0.022007
    55  C   -0.061067
    56  C   -0.032239
    57  C   -0.034488
    58  C   -0.042586
    59  C   -0.010590
    60  C   -0.066743
    61  C   -0.031576
    62  C   -0.036425
    63  C   -0.038276
    64  C   -0.018814
    65  C   -0.059640
    66  C   -0.057229
    67  H    0.030709
    68  H    0.034440
    69  H    0.018256
    70  H    0.038438
    71  H    0.033931
    72  H    0.019887
    73  H    0.026663
    74  H    0.021621
    75  H    0.037037
    76  H    0.027925
    77  H    0.044207
    78  H    0.041538
    79  H    0.027979
    80  H    0.033490
    81  H    0.044796
    82  H    0.034801
    83  H    0.039429
    84  H    0.026460
    85  H    0.033947
    86  H    0.024479
    87  H    0.024631
    88  H    0.023183
    89  H    0.015181
    90  H    0.013023
    91  H    0.013719
    92  H    0.034881
    93  H    0.027172
    94  H    0.022991
    95  H    0.017755
    96  H    0.037745
    97  H    0.034537
    98  H    0.058342
    99  H    0.033827
   100  H    0.030377
   101  H    0.053097
   102  H    0.050395
   103  H    0.040122
   104  H    0.034925
   105  H    0.021791
   106  H    0.027337
   107  H    0.035996
   108  H    0.021308
   109  H    0.016138
   110  H    0.031531
   111  H    0.019975
   112  H    0.011914
   113  H    0.015876
   114  H    0.011841
   115  H    0.013355
   116  H    0.020800
   117  H    0.023857
   118  H    0.016261
   119  H    0.027441
   120  H    0.021690
   121  H    0.014427
   122  H    0.015040
   123  H    0.019097
   124  H    0.022985
   125  H    0.027125
   126  H    0.020546
   127  H    0.015591
   128  H    0.004900
   129  H    0.029489
   130  H    0.020181
   131  H    0.018845
   132  H    0.018791
   133  H    0.019485
   134  H    0.018765
   135  H    0.020136
   136  H    0.015653
   137  H    0.026161
   138  H    0.013572
   139  H    0.019481
   140  H    0.018781
 Sum of Mulliken charges =  -0.00000

 Dipole moment (field-independent basis, Debye):
    X=              6.4456    Y=              5.9659    Z=             -2.7276  Tot=              9.1966
 N-N= 4.402208495159D+03 E-N= 0.000000000000D+00  KE=-9.478304676206D+03
 Leave Link  601 at Thu Apr 28 01:02:26 2022, MaxMem=  6710886400 cpu:               0.8 elap:               0.1
 (Enter /sw/apps/gaussian-16.0/g16/l9999.exe)
 1\1\GINC-BP1-COMPUTE070\SP\RZINDO CIS\STO-3G\C55H74Mg1N4O6\OF15641\28-
 Apr-2022\0\\#p ZINDO=(nstates=5)\\step_1351_chromophore_27 ZINDO\\0,1\
 Mg,0,-5.763,25.149,26.677\C,0,-3.906,26.797,29.013\C,0,-6.88,22.944,29
 .211\C,0,-7.248,23.329,24.293\C,0,-4.408,27.174,24.181\N,0,-5.316,24.8
 16,28.876\C,0,-4.571,25.704,29.659\C,0,-4.934,25.495,31.14\C,0,-5.735,
 24.149,31.117\C,0,-5.983,23.941,29.638\C,0,-4.973,23.002,31.824\C,0,-5
 .846,26.687,31.691\C,0,-5.521,27.152,33.149\C,0,-6.33,26.525,34.247\O,

 Normal termination of Gaussian 16 at Thu Apr 28 01:02:26 2022.
