 Gaussian 16, Revision A.03,
 Gaussian 16:  ES64L-G16RevA.03 25-Dec-2016

 ------------------------------
 #p blyp/Def2SVP td=(nstates=5)
 ------------------------------

 ---------------------------------------------------
 step_1801_chromophore_18 TDDFT with blyp functional
 ---------------------------------------------------
 Symbolic Z-matrix:
 Charge =  0 Multiplicity = 1

                         Standard orientation:
 ---------------------------------------------------------------------
 Center     Atomic      Atomic             Coordinates (Angstroms)
 Number     Number       Type             X           Y           Z
 ---------------------------------------------------------------------
      1         12           0        5.282515    1.118763    0.063819
      2          6           0        4.346359   -2.342382    0.237432
      3          6           0        1.829134    1.895439    0.013556
      4          6           0        6.113006    4.393257   -0.256059
      5          6           0        8.547091    0.235177    0.014486
      6          7           0        3.351223   -0.052817    0.101757
      7          6           0        3.265386   -1.395710    0.223006
      8          6           0        1.815903   -1.886637    0.464622
      9          6           0        0.973319   -0.532411    0.312008
     10          6           0        2.083146    0.521133    0.167332
     11          6           0       -0.000641   -0.534474   -0.855218
     12          6           0        1.638897   -2.570212    1.885530
     13          6           0        0.780060   -3.851905    1.919454
     14          6           0       -0.101260   -4.180858    0.661369
     15          8           0        0.364830   -4.486123   -0.418244
     16          8           0       -1.424466   -4.013633    0.932034
     17          7           0        4.088798    2.883419   -0.165686
     18          6           0        2.720753    2.931371   -0.181590
     19          6           0        2.361259    4.336968   -0.286384
     20          6           0        3.548807    5.129465   -0.349464
     21          6           0        4.718832    4.148309   -0.269780
     22          6           0        0.863544    4.719493   -0.172975
     23          6           0        3.688744    6.579055   -0.492233
     24          8           0        4.727607    7.188120   -0.664905
     25          6           0        2.506871    7.431012   -0.398259
     26          7           0        7.090356    2.157190   -0.247252
     27          6           0        7.175902    3.500400   -0.138938
     28          6           0        8.627372    3.989137   -0.081153
     29          6           0        9.439096    2.679022   -0.004802
     30          6           0        8.267212    1.595647   -0.037366
     31          6           0        9.153870    4.796258   -1.262267
     32          6           0       10.348944    2.565970    1.219593
     33          6           0        9.631789    2.196320    2.551969
     34          7           0        6.307534   -0.636617    0.071997
     35          6           0        7.647673   -0.856238    0.019162
     36          6           0        7.913546   -2.255310    0.104222
     37          6           0        6.671031   -2.853943    0.106193
     38          6           0        5.696352   -1.837338    0.165794
     39          6           0        9.324721   -2.895432    0.091911
     40          6           0        6.045472   -4.189057    0.127078
     41          8           0        6.595872   -5.271712    0.000115
     42          6           0        4.513385   -3.871104    0.231602
     43          6           0        3.959068   -4.614377   -0.946824
     44          8           0        3.858306   -4.163183   -2.064627
     45          8           0        3.646539   -5.904461   -0.676103
     46          6           0        2.720739   -6.646071   -1.589637
     47          6           0       -2.284875   -4.390888   -0.221005
     48          6           0       -3.000304   -3.180949   -0.486814
     49          6           0       -4.101745   -3.008693   -1.263294
     50          6           0       -4.780738   -4.090164   -2.152606
     51          6           0       -4.744249   -1.619358   -1.161009
     52          6           0       -6.251504   -1.555020   -0.956544
     53          6           0       -6.742736   -0.169544   -0.440443
     54          6           0       -7.477718   -0.296062    0.890028
     55          6           0       -6.498565    0.088223    2.051572
     56          6           0       -8.835179    0.463670    0.847546
     57          6           0      -10.040250   -0.440562    0.368709
     58          6           0      -11.047978   -0.631454    1.528407
     59          6           0      -12.118058    0.482102    1.701216
     60          6           0      -12.772515    0.487953    3.089853
     61          6           0      -13.075637    0.468703    0.479840
     62          6           0      -13.403582    1.944543    0.032633
     63          6           0      -14.503265    1.747070   -1.042356
     64          6           0      -15.703603    2.725625   -0.953102
     65          6           0      -16.974967    1.951746   -0.479455
     66          6           0      -15.901823    3.507991   -2.280226
     67          1           0        0.745905    2.036099    0.023300
     68          1           0        6.289334    5.469687   -0.214020
     69          1           0        9.528616   -0.239429    0.068630
     70          1           0        1.627953   -2.464676   -0.439903
     71          1           0        0.409080   -0.229035    1.193366
     72          1           0       -0.867291    0.032901   -0.516980
     73          1           0       -0.356769   -1.512381   -1.177376
     74          1           0        0.316420    0.137716   -1.652677
     75          1           0        1.109635   -1.959868    2.617325
     76          1           0        2.666685   -2.730725    2.209361
     77          1           0        0.106243   -3.796901    2.773968
     78          1           0        1.507089   -4.658072    2.014936
     79          1           0        0.766925    5.352215    0.709637
     80          1           0        0.196134    3.865949   -0.052098
     81          1           0        0.426274    5.366702   -0.933367
     82          1           0        1.884147    7.457343   -1.292465
     83          1           0        2.689034    8.504261   -0.344869
     84          1           0        1.905205    7.241562    0.490919
     85          1           0        8.774382    4.647693    0.775091
     86          1           0       10.033800    2.453183   -0.889870
     87          1           0        8.636197    5.753115   -1.203503
     88          1           0        9.074663    4.360855   -2.258308
     89          1           0       10.217354    4.954919   -1.087327
     90          1           0       10.764555    3.572169    1.285639
     91          1           0       11.128889    1.854893    0.946354
     92          1           0        8.565136    2.018116    2.416966
     93          1           0        9.709454    3.141497    3.089759
     94          1           0       10.065268    1.384333    3.135808
     95          1           0        9.274697   -3.732147    0.788639
     96          1           0       10.159504   -2.311114    0.478496
     97          1           0        9.698727   -3.255146   -0.867263
     98          1           0        4.156257   -4.373801    1.129751
     99          1           0        2.099397   -5.903995   -2.090687
    100          1           0        2.056610   -7.331753   -1.062109
    101          1           0        3.296871   -7.125680   -2.380513
    102          1           0       -3.035803   -5.125868    0.070471
    103          1           0       -1.832524   -4.897461   -1.072455
    104          1           0       -2.699239   -2.376136    0.184455
    105          1           0       -4.873888   -3.734289   -3.177957
    106          1           0       -5.763733   -4.484841   -1.892805
    107          1           0       -4.091007   -4.931605   -2.225974
    108          1           0       -4.442770   -1.104563   -2.073503
    109          1           0       -4.288921   -1.143994   -0.292219
    110          1           0       -6.644580   -2.357603   -0.333808
    111          1           0       -6.810937   -1.769723   -1.867221
    112          1           0       -7.309200    0.351385   -1.213336
    113          1           0       -5.796685    0.370850   -0.434442
    114          1           0       -7.712843   -1.337071    1.111118
    115          1           0       -6.398889   -0.851429    2.594930
    116          1           0       -6.796852    0.896017    2.719884
    117          1           0       -5.496320    0.274336    1.664226
    118          1           0       -8.816324    1.324039    0.180076
    119          1           0       -9.055329    0.853341    1.841749
    120          1           0       -9.685090   -1.378462   -0.059591
    121          1           0      -10.470678    0.093456   -0.479604
    122          1           0      -10.510089   -0.813868    2.459041
    123          1           0      -11.560144   -1.563933    1.292140
    124          1           0      -11.620383    1.452190    1.685094
    125          1           0      -12.752448   -0.542868    3.444720
    126          1           0      -13.846439    0.627019    2.962393
    127          1           0      -12.211022    1.042802    3.841505
    128          1           0      -13.991029    0.102705    0.943750
    129          1           0      -12.622212   -0.043423   -0.368608
    130          1           0      -12.601405    2.481751   -0.473815
    131          1           0      -13.771415    2.568137    0.847795
    132          1           0      -14.703667    0.676111   -1.055334
    133          1           0      -13.921354    1.815075   -1.961580
    134          1           0      -15.484181    3.402199   -0.126739
    135          1           0      -17.148895    2.117162    0.583729
    136          1           0      -16.902296    0.878733   -0.661214
    137          1           0      -17.813268    2.371570   -1.035318
    138          1           0      -14.986487    3.724483   -2.830141
    139          1           0      -16.431736    4.392081   -1.925274
    140          1           0      -16.623917    3.096329   -2.986375
 ---------------------------------------------------------------------

 SCF Done:  E(RB-LYP) =  -3007.36761224     A.U. after   20 cycles

 Excitation energies and oscillator strengths:

 Excited State   1:      Singlet-A      1.7735 eV  699.08 nm  f=0.0630  <S**2>=0.000
     244 -> 247        0.59543
     245 -> 247       -0.18759
     246 -> 247       -0.32558
 This state for optimization and/or second-order correction.
 Total Energy, E(TD-HF/TD-DFT) =  -3007.30243569
 Copying the excited state density for this state as the 1-particle RhoCI density.

 Excited State   2:      Singlet-A      1.8445 eV  672.20 nm  f=0.2591  <S**2>=0.000
     244 -> 247        0.32156
     245 -> 248       -0.17630
     246 -> 247        0.60724
     246 <- 247       -0.13310

 Excited State   3:      Singlet-A      2.0651 eV  600.37 nm  f=0.0652  <S**2>=0.000
     243 -> 247        0.10759
     244 -> 247        0.19152
     245 -> 247        0.60667
     246 -> 248        0.25807

 Excited State   4:      Singlet-A      2.0999 eV  590.44 nm  f=0.0032  <S**2>=0.000
     243 -> 247        0.69756

 Excited State   5:      Singlet-A      2.4209 eV  512.14 nm  f=0.0002  <S**2>=0.000
     241 -> 247        0.70170

 The electronic state is 1-A.
 Alpha  occ. eigenvalues --  -46.26827 -18.84016 -18.80119 -18.78113 -18.76167
 Alpha  occ. eigenvalues --  -18.74916 -18.74526 -14.03410 -14.03251 -14.01065
 Alpha  occ. eigenvalues --  -14.00504 -10.05297 -10.02708  -9.99908  -9.98588
 Alpha  occ. eigenvalues --   -9.98324  -9.96879  -9.96719  -9.96401  -9.96326
 Alpha  occ. eigenvalues --   -9.96213  -9.96209  -9.95453  -9.94764  -9.94565
 Alpha  occ. eigenvalues --   -9.94408  -9.94271  -9.94193  -9.94173  -9.94108
 Alpha  occ. eigenvalues --   -9.93848  -9.93687  -9.93584  -9.93397  -9.93274
 Alpha  occ. eigenvalues --   -9.93156  -9.93039  -9.92979  -9.92792  -9.92690
 Alpha  occ. eigenvalues --   -9.92497  -9.92294  -9.92267  -9.92265  -9.92247
 Alpha  occ. eigenvalues --   -9.92219  -9.92187  -9.91860  -9.91837  -9.91776
 Alpha  occ. eigenvalues --   -9.91742  -9.91566  -9.91532  -9.91525  -9.91409
 Alpha  occ. eigenvalues --   -9.91243  -9.91227  -9.91155  -9.91111  -9.91104
 Alpha  occ. eigenvalues --   -9.91057  -9.91019  -9.90934  -9.90689  -9.90574
 Alpha  occ. eigenvalues --   -9.90124  -2.91441  -1.71879  -1.71327  -1.71141
 Alpha  occ. eigenvalues --   -0.99579  -0.96424  -0.91606  -0.91559  -0.91333
 Alpha  occ. eigenvalues --   -0.88060  -0.87270  -0.86294  -0.85121  -0.83501
 Alpha  occ. eigenvalues --   -0.74960  -0.74127  -0.73141  -0.72551  -0.72475
 Alpha  occ. eigenvalues --   -0.72054  -0.71771  -0.70946  -0.70829  -0.69659
 Alpha  occ. eigenvalues --   -0.69370  -0.69282  -0.68461  -0.67307  -0.67112
 Alpha  occ. eigenvalues --   -0.66640  -0.65625  -0.65310  -0.64569  -0.64497
 Alpha  occ. eigenvalues --   -0.64077  -0.62089  -0.61973  -0.61262  -0.61237
 Alpha  occ. eigenvalues --   -0.60479  -0.60103  -0.59878  -0.59771  -0.58725
 Alpha  occ. eigenvalues --   -0.58036  -0.57563  -0.57033  -0.55811  -0.55262
 Alpha  occ. eigenvalues --   -0.53889  -0.53437  -0.52794  -0.52159  -0.51747
 Alpha  occ. eigenvalues --   -0.51461  -0.51153  -0.51118  -0.50596  -0.50382
 Alpha  occ. eigenvalues --   -0.50143  -0.49784  -0.48071  -0.47420  -0.47385
 Alpha  occ. eigenvalues --   -0.46293  -0.45740  -0.45407  -0.45111  -0.44223
 Alpha  occ. eigenvalues --   -0.43990  -0.43556  -0.43089  -0.42685  -0.42513
 Alpha  occ. eigenvalues --   -0.42393  -0.42186  -0.41732  -0.41321  -0.41127
 Alpha  occ. eigenvalues --   -0.40957  -0.40586  -0.40494  -0.40223  -0.39850
 Alpha  occ. eigenvalues --   -0.39723  -0.39595  -0.39440  -0.39135  -0.39087
 Alpha  occ. eigenvalues --   -0.38869  -0.38655  -0.38467  -0.38282  -0.38153
 Alpha  occ. eigenvalues --   -0.37928  -0.37467  -0.37345  -0.37305  -0.37103
 Alpha  occ. eigenvalues --   -0.36887  -0.36724  -0.36526  -0.36321  -0.36171
 Alpha  occ. eigenvalues --   -0.36099  -0.35834  -0.35773  -0.35577  -0.35246
 Alpha  occ. eigenvalues --   -0.35198  -0.35167  -0.35010  -0.34934  -0.34869
 Alpha  occ. eigenvalues --   -0.34416  -0.34148  -0.34040  -0.33980  -0.33819
 Alpha  occ. eigenvalues --   -0.33759  -0.33671  -0.33520  -0.33477  -0.32979
 Alpha  occ. eigenvalues --   -0.32947  -0.32774  -0.32627  -0.32622  -0.32419
 Alpha  occ. eigenvalues --   -0.32204  -0.32125  -0.31898  -0.31888  -0.31825
 Alpha  occ. eigenvalues --   -0.31713  -0.31587  -0.31281  -0.31063  -0.30703
 Alpha  occ. eigenvalues --   -0.30634  -0.30549  -0.30440  -0.30036  -0.29465
 Alpha  occ. eigenvalues --   -0.29446  -0.29259  -0.29218  -0.28747  -0.28621
 Alpha  occ. eigenvalues --   -0.28409  -0.28065  -0.27899  -0.27739  -0.27709
 Alpha  occ. eigenvalues --   -0.27549  -0.27229  -0.27151  -0.27091  -0.26552
 Alpha  occ. eigenvalues --   -0.26405  -0.25956  -0.25669  -0.25341  -0.25083
 Alpha  occ. eigenvalues --   -0.24960  -0.24662  -0.23894  -0.23483  -0.23242
 Alpha  occ. eigenvalues --   -0.23102  -0.22884  -0.22046  -0.20898  -0.20331
 Alpha  occ. eigenvalues --   -0.20242  -0.20179  -0.18944  -0.17875  -0.17287
 Alpha  occ. eigenvalues --   -0.15688
 Alpha virt. eigenvalues --   -0.11347  -0.06822  -0.05884  -0.04384  -0.03803
 Alpha virt. eigenvalues --   -0.02773  -0.01778  -0.01096  -0.00746   0.00443
 Alpha virt. eigenvalues --    0.01350   0.01808   0.02072   0.02407   0.02517

 Mulliken charges:
               1
     1  Mg   0.680784
     2  C    0.044589
     3  C   -0.059618
     4  C   -0.034988
     5  C   -0.040859
     6  N   -0.186879
     7  C   -0.120316
     8  C    0.050695
     9  C   -0.016155
    10  C   -0.044597
    11  C    0.120509
    12  C    0.115151
    13  C    0.140129
    14  C    0.076762
    15  O   -0.191537
    16  O   -0.254503
    17  N   -0.305241
    18  C    0.206764
    19  C   -0.122703
    20  C    0.053093
    21  C    0.073131
    22  C    0.162874
    23  C   -0.084514
    24  O   -0.162008
    25  C    0.128688
    26  N   -0.199091
    27  C    0.070761
    28  C    0.036495
    29  C    0.015038
    30  C    0.056243
    31  C    0.114477
    32  C    0.079778
    33  C    0.066861
    34  N   -0.272891
    35  C    0.032267
    36  C   -0.141264
    37  C    0.077937
    38  C    0.060527
    39  C    0.141890
    40  C   -0.051760
    41  O   -0.113757
    42  C    0.071668
    43  C    0.093950
    44  O   -0.177080
    45  O   -0.276703
    46  C    0.223693
    47  C    0.313235
    48  C   -0.129503
    49  C   -0.134699
    50  C    0.131565
    51  C    0.140743
    52  C    0.032743
    53  C    0.125986
    54  C   -0.067929
    55  C    0.107243
    56  C    0.094027
    57  C    0.067147
    58  C    0.100660
    59  C   -0.064202
    60  C    0.140548
    61  C    0.082649
    62  C    0.012905
    63  C    0.091252
    64  C   -0.060341
    65  C    0.102797
    66  C    0.100857
    67  H   -0.075499
    68  H   -0.042193
    69  H   -0.079258
    70  H    0.011451
    71  H   -0.023050
    72  H   -0.028064
    73  H    0.019929
    74  H   -0.009110
    75  H   -0.012379
    76  H   -0.010639
    77  H   -0.011361
    78  H    0.006251
    79  H   -0.005185
    80  H   -0.016505
    81  H   -0.006601
    82  H    0.000064
    83  H   -0.029345
    84  H   -0.007690
    85  H   -0.027352
    86  H   -0.022487
    87  H   -0.000367
    88  H   -0.003540
    89  H   -0.014593
    90  H   -0.020478
    91  H   -0.019321
    92  H    0.005147
    93  H   -0.013538
    94  H    0.002484
    95  H    0.001978
    96  H   -0.019230
    97  H    0.014643
    98  H   -0.008606
    99  H    0.020326
   100  H    0.016646
   101  H    0.013528
   102  H   -0.001720
   103  H    0.022082
   104  H   -0.020885
   105  H   -0.005131
   106  H    0.014033
   107  H   -0.027480
   108  H   -0.011493
   109  H   -0.031034
   110  H   -0.036280
   111  H   -0.039481
   112  H   -0.038422
   113  H   -0.040461
   114  H   -0.025992
   115  H   -0.024465
   116  H   -0.008253
   117  H   -0.023424
   118  H   -0.034673
   119  H   -0.036649
   120  H   -0.030285
   121  H   -0.036835
   122  H   -0.039993
   123  H   -0.044630
   124  H   -0.043749
   125  H   -0.038603
   126  H   -0.025761
   127  H   -0.003543
   128  H   -0.027002
   129  H   -0.009437
   130  H   -0.023498
   131  H   -0.026029
   132  H   -0.034806
   133  H   -0.054528
   134  H   -0.028843
   135  H   -0.016026
   136  H   -0.009356
   137  H   -0.025077
   138  H   -0.005534
   139  H   -0.022146
   140  H   -0.016616
 Sum of Mulliken charges =  -0.00000

 Dipole moment (field-independent basis, Debye):
    X=             -5.3931    Y=              0.2510    Z=              3.0763  Tot=              6.2139
 Quadrupole moment (field-independent basis, Debye-Ang):
   XX=           -386.1978   YY=           -432.5000   ZZ=           -406.0565
   XY=             21.2018   XZ=             19.0987   YZ=              1.6770

 Normal termination of Gaussian 16 at Wed May  4 14:56:45 2022.
