 Gaussian 16, Revision A.03,
 Gaussian 16:  ES64L-G16RevA.03 25-Dec-2016

 -----------------------------------
 #p cam-b3lyp/Def2SVP td=(nstates=5)
 -----------------------------------

 --------------------------------------------------------
 step_1801_chromophore_18 TDDFT with cam-b3lyp functional
 --------------------------------------------------------
 Symbolic Z-matrix:
 Charge =  0 Multiplicity = 1

                         Standard orientation:
 ---------------------------------------------------------------------
 Center     Atomic      Atomic             Coordinates (Angstroms)
 Number     Number       Type             X           Y           Z
 ---------------------------------------------------------------------
      1         12           0        5.282515    1.118763    0.063819
      2          6           0        4.346359   -2.342382    0.237432
      3          6           0        1.829134    1.895439    0.013556
      4          6           0        6.113006    4.393257   -0.256059
      5          6           0        8.547091    0.235177    0.014486
      6          7           0        3.351223   -0.052817    0.101757
      7          6           0        3.265386   -1.395710    0.223006
      8          6           0        1.815903   -1.886637    0.464622
      9          6           0        0.973319   -0.532411    0.312008
     10          6           0        2.083146    0.521133    0.167332
     11          6           0       -0.000641   -0.534474   -0.855218
     12          6           0        1.638897   -2.570212    1.885530
     13          6           0        0.780060   -3.851905    1.919454
     14          6           0       -0.101260   -4.180858    0.661369
     15          8           0        0.364830   -4.486123   -0.418244
     16          8           0       -1.424466   -4.013633    0.932034
     17          7           0        4.088798    2.883419   -0.165686
     18          6           0        2.720753    2.931371   -0.181590
     19          6           0        2.361259    4.336968   -0.286384
     20          6           0        3.548807    5.129465   -0.349464
     21          6           0        4.718832    4.148309   -0.269780
     22          6           0        0.863544    4.719493   -0.172975
     23          6           0        3.688744    6.579055   -0.492233
     24          8           0        4.727607    7.188120   -0.664905
     25          6           0        2.506871    7.431012   -0.398259
     26          7           0        7.090356    2.157190   -0.247252
     27          6           0        7.175902    3.500400   -0.138938
     28          6           0        8.627372    3.989137   -0.081153
     29          6           0        9.439096    2.679022   -0.004802
     30          6           0        8.267212    1.595647   -0.037366
     31          6           0        9.153870    4.796258   -1.262267
     32          6           0       10.348944    2.565970    1.219593
     33          6           0        9.631789    2.196320    2.551969
     34          7           0        6.307534   -0.636617    0.071997
     35          6           0        7.647673   -0.856238    0.019162
     36          6           0        7.913546   -2.255310    0.104222
     37          6           0        6.671031   -2.853943    0.106193
     38          6           0        5.696352   -1.837338    0.165794
     39          6           0        9.324721   -2.895432    0.091911
     40          6           0        6.045472   -4.189057    0.127078
     41          8           0        6.595872   -5.271712    0.000115
     42          6           0        4.513385   -3.871104    0.231602
     43          6           0        3.959068   -4.614377   -0.946824
     44          8           0        3.858306   -4.163183   -2.064627
     45          8           0        3.646539   -5.904461   -0.676103
     46          6           0        2.720739   -6.646071   -1.589637
     47          6           0       -2.284875   -4.390888   -0.221005
     48          6           0       -3.000304   -3.180949   -0.486814
     49          6           0       -4.101745   -3.008693   -1.263294
     50          6           0       -4.780738   -4.090164   -2.152606
     51          6           0       -4.744249   -1.619358   -1.161009
     52          6           0       -6.251504   -1.555020   -0.956544
     53          6           0       -6.742736   -0.169544   -0.440443
     54          6           0       -7.477718   -0.296062    0.890028
     55          6           0       -6.498565    0.088223    2.051572
     56          6           0       -8.835179    0.463670    0.847546
     57          6           0      -10.040250   -0.440562    0.368709
     58          6           0      -11.047978   -0.631454    1.528407
     59          6           0      -12.118058    0.482102    1.701216
     60          6           0      -12.772515    0.487953    3.089853
     61          6           0      -13.075637    0.468703    0.479840
     62          6           0      -13.403582    1.944543    0.032633
     63          6           0      -14.503265    1.747070   -1.042356
     64          6           0      -15.703603    2.725625   -0.953102
     65          6           0      -16.974967    1.951746   -0.479455
     66          6           0      -15.901823    3.507991   -2.280226
     67          1           0        0.745905    2.036099    0.023300
     68          1           0        6.289334    5.469687   -0.214020
     69          1           0        9.528616   -0.239429    0.068630
     70          1           0        1.627953   -2.464676   -0.439903
     71          1           0        0.409080   -0.229035    1.193366
     72          1           0       -0.867291    0.032901   -0.516980
     73          1           0       -0.356769   -1.512381   -1.177376
     74          1           0        0.316420    0.137716   -1.652677
     75          1           0        1.109635   -1.959868    2.617325
     76          1           0        2.666685   -2.730725    2.209361
     77          1           0        0.106243   -3.796901    2.773968
     78          1           0        1.507089   -4.658072    2.014936
     79          1           0        0.766925    5.352215    0.709637
     80          1           0        0.196134    3.865949   -0.052098
     81          1           0        0.426274    5.366702   -0.933367
     82          1           0        1.884147    7.457343   -1.292465
     83          1           0        2.689034    8.504261   -0.344869
     84          1           0        1.905205    7.241562    0.490919
     85          1           0        8.774382    4.647693    0.775091
     86          1           0       10.033800    2.453183   -0.889870
     87          1           0        8.636197    5.753115   -1.203503
     88          1           0        9.074663    4.360855   -2.258308
     89          1           0       10.217354    4.954919   -1.087327
     90          1           0       10.764555    3.572169    1.285639
     91          1           0       11.128889    1.854893    0.946354
     92          1           0        8.565136    2.018116    2.416966
     93          1           0        9.709454    3.141497    3.089759
     94          1           0       10.065268    1.384333    3.135808
     95          1           0        9.274697   -3.732147    0.788639
     96          1           0       10.159504   -2.311114    0.478496
     97          1           0        9.698727   -3.255146   -0.867263
     98          1           0        4.156257   -4.373801    1.129751
     99          1           0        2.099397   -5.903995   -2.090687
    100          1           0        2.056610   -7.331753   -1.062109
    101          1           0        3.296871   -7.125680   -2.380513
    102          1           0       -3.035803   -5.125868    0.070471
    103          1           0       -1.832524   -4.897461   -1.072455
    104          1           0       -2.699239   -2.376136    0.184455
    105          1           0       -4.873888   -3.734289   -3.177957
    106          1           0       -5.763733   -4.484841   -1.892805
    107          1           0       -4.091007   -4.931605   -2.225974
    108          1           0       -4.442770   -1.104563   -2.073503
    109          1           0       -4.288921   -1.143994   -0.292219
    110          1           0       -6.644580   -2.357603   -0.333808
    111          1           0       -6.810937   -1.769723   -1.867221
    112          1           0       -7.309200    0.351385   -1.213336
    113          1           0       -5.796685    0.370850   -0.434442
    114          1           0       -7.712843   -1.337071    1.111118
    115          1           0       -6.398889   -0.851429    2.594930
    116          1           0       -6.796852    0.896017    2.719884
    117          1           0       -5.496320    0.274336    1.664226
    118          1           0       -8.816324    1.324039    0.180076
    119          1           0       -9.055329    0.853341    1.841749
    120          1           0       -9.685090   -1.378462   -0.059591
    121          1           0      -10.470678    0.093456   -0.479604
    122          1           0      -10.510089   -0.813868    2.459041
    123          1           0      -11.560144   -1.563933    1.292140
    124          1           0      -11.620383    1.452190    1.685094
    125          1           0      -12.752448   -0.542868    3.444720
    126          1           0      -13.846439    0.627019    2.962393
    127          1           0      -12.211022    1.042802    3.841505
    128          1           0      -13.991029    0.102705    0.943750
    129          1           0      -12.622212   -0.043423   -0.368608
    130          1           0      -12.601405    2.481751   -0.473815
    131          1           0      -13.771415    2.568137    0.847795
    132          1           0      -14.703667    0.676111   -1.055334
    133          1           0      -13.921354    1.815075   -1.961580
    134          1           0      -15.484181    3.402199   -0.126739
    135          1           0      -17.148895    2.117162    0.583729
    136          1           0      -16.902296    0.878733   -0.661214
    137          1           0      -17.813268    2.371570   -1.035318
    138          1           0      -14.986487    3.724483   -2.830141
    139          1           0      -16.431736    4.392081   -1.925274
    140          1           0      -16.623917    3.096329   -2.986375
 ---------------------------------------------------------------------

 SCF Done:  E(RCAM-B3LYP) =  -3007.16346232     A.U. after   19 cycles

 Excitation energies and oscillator strengths:

 Excited State   1:      Singlet-A      1.7107 eV  724.76 nm  f=0.3916  <S**2>=0.000
     245 -> 248        0.18417
     246 -> 247        0.68502
     245 <- 248        0.10998
 This state for optimization and/or second-order correction.
 Total Energy, E(TD-HF/TD-DFT) =  -3007.10059591
 Copying the excited state density for this state as the 1-particle RhoCI density.

 Excited State   2:      Singlet-A      2.2712 eV  545.89 nm  f=0.0922  <S**2>=0.000
     245 -> 247        0.62754
     246 -> 248       -0.31534

 Excited State   3:      Singlet-A      3.4524 eV  359.13 nm  f=0.0919  <S**2>=0.000
     244 -> 247        0.61836
     245 -> 247        0.11093
     246 -> 248        0.28602

 Excited State   4:      Singlet-A      3.5050 eV  353.73 nm  f=0.4055  <S**2>=0.000
     241 -> 247        0.23481
     242 -> 247       -0.30451
     244 -> 247       -0.22677
     245 -> 247        0.22799
     246 -> 248        0.48301

 Excited State   5:      Singlet-A      3.5632 eV  347.96 nm  f=0.0022  <S**2>=0.000
     240 -> 247        0.56604
     240 -> 249        0.28938
     240 -> 250        0.21297
     241 -> 247       -0.13212

 The electronic state is 1-A.
 Alpha  occ. eigenvalues --  -46.88348 -19.26920 -19.22981 -19.21104 -19.19452
 Alpha  occ. eigenvalues --  -19.17954 -19.17724 -14.42263 -14.42086 -14.39533
 Alpha  occ. eigenvalues --  -14.38874 -10.40629 -10.38038 -10.35320 -10.33694
 Alpha  occ. eigenvalues --  -10.32339 -10.31454 -10.30873 -10.30790 -10.30717
 Alpha  occ. eigenvalues --  -10.30598 -10.30567 -10.29692 -10.28993 -10.28951
 Alpha  occ. eigenvalues --  -10.28819 -10.28774 -10.28555 -10.28202 -10.28067
 Alpha  occ. eigenvalues --  -10.27815 -10.27785 -10.27782 -10.27594 -10.27120
 Alpha  occ. eigenvalues --  -10.27116 -10.27031 -10.26964 -10.26931 -10.26845
 Alpha  occ. eigenvalues --  -10.26317 -10.26276 -10.26192 -10.26076 -10.25994
 Alpha  occ. eigenvalues --  -10.25991 -10.25924 -10.25799 -10.25531 -10.25381
 Alpha  occ. eigenvalues --  -10.25311 -10.25271 -10.25247 -10.25214 -10.25137
 Alpha  occ. eigenvalues --  -10.24925 -10.24907 -10.24856 -10.24738 -10.24723
 Alpha  occ. eigenvalues --  -10.24713 -10.24710 -10.24703 -10.24613 -10.24536
 Alpha  occ. eigenvalues --  -10.23789  -3.16867  -1.91782  -1.91326  -1.91162
 Alpha  occ. eigenvalues --   -1.18063  -1.14957  -1.10022  -1.09762  -1.09507
 Alpha  occ. eigenvalues --   -1.05912  -1.04985  -1.03927  -1.02732  -1.00941
 Alpha  occ. eigenvalues --   -0.92110  -0.91009  -0.89958  -0.89215  -0.89202
 Alpha  occ. eigenvalues --   -0.88747  -0.88463  -0.87510  -0.87407  -0.86244
 Alpha  occ. eigenvalues --   -0.85872  -0.85719  -0.84750  -0.83484  -0.83234
 Alpha  occ. eigenvalues --   -0.82708  -0.81641  -0.81346  -0.80383  -0.80286
 Alpha  occ. eigenvalues --   -0.79982  -0.77716  -0.77663  -0.76683  -0.76672
 Alpha  occ. eigenvalues --   -0.75853  -0.75440  -0.75135  -0.75067  -0.73932
 Alpha  occ. eigenvalues --   -0.73067  -0.72589  -0.71919  -0.70631  -0.69920
 Alpha  occ. eigenvalues --   -0.68604  -0.67978  -0.67238  -0.66487  -0.66060
 Alpha  occ. eigenvalues --   -0.65450  -0.65167  -0.65024  -0.64681  -0.64477
 Alpha  occ. eigenvalues --   -0.64092  -0.63793  -0.61874  -0.61022  -0.60962
 Alpha  occ. eigenvalues --   -0.59861  -0.59303  -0.58950  -0.58503  -0.57781
 Alpha  occ. eigenvalues --   -0.57387  -0.57008  -0.56588  -0.55840  -0.55577
 Alpha  occ. eigenvalues --   -0.55486  -0.54962  -0.54548  -0.54464  -0.53939
 Alpha  occ. eigenvalues --   -0.53805  -0.53365  -0.53259  -0.52784  -0.52719
 Alpha  occ. eigenvalues --   -0.52581  -0.52514  -0.52166  -0.51945  -0.51599
 Alpha  occ. eigenvalues --   -0.51262  -0.51058  -0.50884  -0.50839  -0.50555
 Alpha  occ. eigenvalues --   -0.50414  -0.49896  -0.49740  -0.49552  -0.49471
 Alpha  occ. eigenvalues --   -0.49256  -0.49056  -0.48930  -0.48744  -0.48579
 Alpha  occ. eigenvalues --   -0.48497  -0.48303  -0.47902  -0.47772  -0.47554
 Alpha  occ. eigenvalues --   -0.47308  -0.47085  -0.46973  -0.46865  -0.46784
 Alpha  occ. eigenvalues --   -0.46386  -0.46041  -0.45898  -0.45731  -0.45633
 Alpha  occ. eigenvalues --   -0.45517  -0.45470  -0.45341  -0.45127  -0.44734
 Alpha  occ. eigenvalues --   -0.44539  -0.44413  -0.44314  -0.44225  -0.43905
 Alpha  occ. eigenvalues --   -0.43834  -0.43653  -0.43595  -0.43488  -0.43300
 Alpha  occ. eigenvalues --   -0.43229  -0.43184  -0.42921  -0.42526  -0.42440
 Alpha  occ. eigenvalues --   -0.42031  -0.41955  -0.41626  -0.41203  -0.40995
 Alpha  occ. eigenvalues --   -0.40697  -0.40482  -0.40312  -0.39989  -0.39785
 Alpha  occ. eigenvalues --   -0.39647  -0.39394  -0.39142  -0.38847  -0.38694
 Alpha  occ. eigenvalues --   -0.38536  -0.38085  -0.38001  -0.37937  -0.37710
 Alpha  occ. eigenvalues --   -0.37069  -0.36656  -0.36584  -0.36374  -0.35828
 Alpha  occ. eigenvalues --   -0.35682  -0.35160  -0.35118  -0.35002  -0.33759
 Alpha  occ. eigenvalues --   -0.33587  -0.33300  -0.32707  -0.31253  -0.30849
 Alpha  occ. eigenvalues --   -0.30315  -0.30268  -0.29810  -0.29492  -0.24053
 Alpha  occ. eigenvalues --   -0.20883
 Alpha virt. eigenvalues --   -0.08400  -0.01694   0.00639   0.02567   0.03146
 Alpha virt. eigenvalues --    0.04060   0.04516   0.05898   0.06958   0.07093
 Alpha virt. eigenvalues --    0.07825   0.08408   0.08580   0.08771   0.08943

 Mulliken charges:
               1
     1  Mg   0.813998
     2  C    0.017619
     3  C   -0.081117
     4  C   -0.051284
     5  C   -0.046374
     6  N   -0.258548
     7  C   -0.062720
     8  C   -0.017942
     9  C   -0.059064
    10  C   -0.019354
    11  C    0.061205
    12  C    0.065249
    13  C    0.076765
    14  C    0.151002
    15  O   -0.234508
    16  O   -0.319021
    17  N   -0.391259
    18  C    0.217214
    19  C   -0.129519
    20  C   -0.022352
    21  C    0.100293
    22  C    0.109160
    23  C   -0.003245
    24  O   -0.203769
    25  C    0.040542
    26  N   -0.270549
    27  C    0.086526
    28  C   -0.023536
    29  C   -0.031804
    30  C    0.063639
    31  C    0.060980
    32  C    0.027347
    33  C    0.004896
    34  N   -0.365925
    35  C    0.043148
    36  C   -0.146152
    37  C    0.001534
    38  C    0.094329
    39  C    0.096939
    40  C    0.047184
    41  O   -0.150452
    42  C   -0.001813
    43  C    0.180047
    44  O   -0.213235
    45  O   -0.341082
    46  C    0.188046
    47  C    0.273480
    48  C   -0.149588
    49  C   -0.154130
    50  C    0.074560
    51  C    0.085430
    52  C   -0.019649
    53  C    0.068163
    54  C   -0.126798
    55  C    0.053106
    56  C    0.044878
    57  C    0.013662
    58  C    0.042752
    59  C   -0.113732
    60  C    0.077272
    61  C    0.023385
    62  C   -0.031052
    63  C    0.035288
    64  C   -0.123457
    65  C    0.046154
    66  C    0.041147
    67  H   -0.040991
    68  H   -0.001584
    69  H   -0.043074
    70  H    0.047745
    71  H    0.010809
    72  H   -0.005519
    73  H    0.041290
    74  H    0.019768
    75  H    0.017554
    76  H    0.020062
    77  H    0.023619
    78  H    0.034713
    79  H    0.020007
    80  H    0.011816
    81  H    0.020101
    82  H    0.029833
    83  H    0.008384
    84  H    0.019881
    85  H    0.007601
    86  H    0.013729
    87  H    0.023435
    88  H    0.021479
    89  H    0.008785
    90  H    0.006725
    91  H    0.008071
    92  H    0.026373
    93  H    0.009737
    94  H    0.026783
    95  H    0.027731
    96  H    0.005750
    97  H    0.040756
    98  H    0.032668
    99  H    0.043991
   100  H    0.038332
   101  H    0.036772
   102  H    0.026776
   103  H    0.054406
   104  H    0.012105
   105  H    0.019880
   106  H    0.037421
   107  H   -0.003659
   108  H    0.016156
   109  H   -0.005419
   110  H   -0.008627
   111  H   -0.010814
   112  H   -0.007877
   113  H   -0.010274
   114  H    0.004716
   115  H   -0.000169
   116  H    0.015902
   117  H   -0.001582
   118  H   -0.006347
   119  H   -0.009281
   120  H   -0.002531
   121  H   -0.009210
   122  H   -0.010884
   123  H   -0.014724
   124  H   -0.012946
   125  H   -0.012849
   126  H   -0.000571
   127  H    0.021232
   128  H    0.000769
   129  H    0.017383
   130  H    0.003102
   131  H   -0.000548
   132  H   -0.005214
   133  H   -0.023836
   134  H    0.002479
   135  H    0.007651
   136  H    0.013420
   137  H   -0.000698
   138  H    0.017932
   139  H    0.002264
   140  H    0.007425
 Sum of Mulliken charges =  -0.00000

 Dipole moment (field-independent basis, Debye):
    X=             -5.7446    Y=              0.4756    Z=              3.2591  Tot=              6.6218
 Quadrupole moment (field-independent basis, Debye-Ang):
   XX=           -385.7501   YY=           -428.5022   ZZ=           -406.1386
   XY=             21.7487   XZ=             20.3823   YZ=              1.4296

 Normal termination of Gaussian 16 at Wed May  4 13:57:52 2022.
