 Gaussian 16, Revision A.03,
 Gaussian 16:  ES64L-G16RevA.03 25-Dec-2016

 ---------------------------------
 #p PBE1PBE/Def2SVP td=(nstates=5)
 ---------------------------------

 ------------------------------------------------------
 step_1801_chromophore_18 TDDFT with PBE1PBE functional
 ------------------------------------------------------
 Symbolic Z-matrix:
 Charge =  0 Multiplicity = 1

                         Standard orientation:
 ---------------------------------------------------------------------
 Center     Atomic      Atomic             Coordinates (Angstroms)
 Number     Number       Type             X           Y           Z
 ---------------------------------------------------------------------
      1         12           0        5.282515    1.118763    0.063819
      2          6           0        4.346359   -2.342382    0.237432
      3          6           0        1.829134    1.895439    0.013556
      4          6           0        6.113006    4.393257   -0.256059
      5          6           0        8.547091    0.235177    0.014486
      6          7           0        3.351223   -0.052817    0.101757
      7          6           0        3.265386   -1.395710    0.223006
      8          6           0        1.815903   -1.886637    0.464622
      9          6           0        0.973319   -0.532411    0.312008
     10          6           0        2.083146    0.521133    0.167332
     11          6           0       -0.000641   -0.534474   -0.855218
     12          6           0        1.638897   -2.570212    1.885530
     13          6           0        0.780060   -3.851905    1.919454
     14          6           0       -0.101260   -4.180858    0.661369
     15          8           0        0.364830   -4.486123   -0.418244
     16          8           0       -1.424466   -4.013633    0.932034
     17          7           0        4.088798    2.883419   -0.165686
     18          6           0        2.720753    2.931371   -0.181590
     19          6           0        2.361259    4.336968   -0.286384
     20          6           0        3.548807    5.129465   -0.349464
     21          6           0        4.718832    4.148309   -0.269780
     22          6           0        0.863544    4.719493   -0.172975
     23          6           0        3.688744    6.579055   -0.492233
     24          8           0        4.727607    7.188120   -0.664905
     25          6           0        2.506871    7.431012   -0.398259
     26          7           0        7.090356    2.157190   -0.247252
     27          6           0        7.175902    3.500400   -0.138938
     28          6           0        8.627372    3.989137   -0.081153
     29          6           0        9.439096    2.679022   -0.004802
     30          6           0        8.267212    1.595647   -0.037366
     31          6           0        9.153870    4.796258   -1.262267
     32          6           0       10.348944    2.565970    1.219593
     33          6           0        9.631789    2.196320    2.551969
     34          7           0        6.307534   -0.636617    0.071997
     35          6           0        7.647673   -0.856238    0.019162
     36          6           0        7.913546   -2.255310    0.104222
     37          6           0        6.671031   -2.853943    0.106193
     38          6           0        5.696352   -1.837338    0.165794
     39          6           0        9.324721   -2.895432    0.091911
     40          6           0        6.045472   -4.189057    0.127078
     41          8           0        6.595872   -5.271712    0.000115
     42          6           0        4.513385   -3.871104    0.231602
     43          6           0        3.959068   -4.614377   -0.946824
     44          8           0        3.858306   -4.163183   -2.064627
     45          8           0        3.646539   -5.904461   -0.676103
     46          6           0        2.720739   -6.646071   -1.589637
     47          6           0       -2.284875   -4.390888   -0.221005
     48          6           0       -3.000304   -3.180949   -0.486814
     49          6           0       -4.101745   -3.008693   -1.263294
     50          6           0       -4.780738   -4.090164   -2.152606
     51          6           0       -4.744249   -1.619358   -1.161009
     52          6           0       -6.251504   -1.555020   -0.956544
     53          6           0       -6.742736   -0.169544   -0.440443
     54          6           0       -7.477718   -0.296062    0.890028
     55          6           0       -6.498565    0.088223    2.051572
     56          6           0       -8.835179    0.463670    0.847546
     57          6           0      -10.040250   -0.440562    0.368709
     58          6           0      -11.047978   -0.631454    1.528407
     59          6           0      -12.118058    0.482102    1.701216
     60          6           0      -12.772515    0.487953    3.089853
     61          6           0      -13.075637    0.468703    0.479840
     62          6           0      -13.403582    1.944543    0.032633
     63          6           0      -14.503265    1.747070   -1.042356
     64          6           0      -15.703603    2.725625   -0.953102
     65          6           0      -16.974967    1.951746   -0.479455
     66          6           0      -15.901823    3.507991   -2.280226
     67          1           0        0.745905    2.036099    0.023300
     68          1           0        6.289334    5.469687   -0.214020
     69          1           0        9.528616   -0.239429    0.068630
     70          1           0        1.627953   -2.464676   -0.439903
     71          1           0        0.409080   -0.229035    1.193366
     72          1           0       -0.867291    0.032901   -0.516980
     73          1           0       -0.356769   -1.512381   -1.177376
     74          1           0        0.316420    0.137716   -1.652677
     75          1           0        1.109635   -1.959868    2.617325
     76          1           0        2.666685   -2.730725    2.209361
     77          1           0        0.106243   -3.796901    2.773968
     78          1           0        1.507089   -4.658072    2.014936
     79          1           0        0.766925    5.352215    0.709637
     80          1           0        0.196134    3.865949   -0.052098
     81          1           0        0.426274    5.366702   -0.933367
     82          1           0        1.884147    7.457343   -1.292465
     83          1           0        2.689034    8.504261   -0.344869
     84          1           0        1.905205    7.241562    0.490919
     85          1           0        8.774382    4.647693    0.775091
     86          1           0       10.033800    2.453183   -0.889870
     87          1           0        8.636197    5.753115   -1.203503
     88          1           0        9.074663    4.360855   -2.258308
     89          1           0       10.217354    4.954919   -1.087327
     90          1           0       10.764555    3.572169    1.285639
     91          1           0       11.128889    1.854893    0.946354
     92          1           0        8.565136    2.018116    2.416966
     93          1           0        9.709454    3.141497    3.089759
     94          1           0       10.065268    1.384333    3.135808
     95          1           0        9.274697   -3.732147    0.788639
     96          1           0       10.159504   -2.311114    0.478496
     97          1           0        9.698727   -3.255146   -0.867263
     98          1           0        4.156257   -4.373801    1.129751
     99          1           0        2.099397   -5.903995   -2.090687
    100          1           0        2.056610   -7.331753   -1.062109
    101          1           0        3.296871   -7.125680   -2.380513
    102          1           0       -3.035803   -5.125868    0.070471
    103          1           0       -1.832524   -4.897461   -1.072455
    104          1           0       -2.699239   -2.376136    0.184455
    105          1           0       -4.873888   -3.734289   -3.177957
    106          1           0       -5.763733   -4.484841   -1.892805
    107          1           0       -4.091007   -4.931605   -2.225974
    108          1           0       -4.442770   -1.104563   -2.073503
    109          1           0       -4.288921   -1.143994   -0.292219
    110          1           0       -6.644580   -2.357603   -0.333808
    111          1           0       -6.810937   -1.769723   -1.867221
    112          1           0       -7.309200    0.351385   -1.213336
    113          1           0       -5.796685    0.370850   -0.434442
    114          1           0       -7.712843   -1.337071    1.111118
    115          1           0       -6.398889   -0.851429    2.594930
    116          1           0       -6.796852    0.896017    2.719884
    117          1           0       -5.496320    0.274336    1.664226
    118          1           0       -8.816324    1.324039    0.180076
    119          1           0       -9.055329    0.853341    1.841749
    120          1           0       -9.685090   -1.378462   -0.059591
    121          1           0      -10.470678    0.093456   -0.479604
    122          1           0      -10.510089   -0.813868    2.459041
    123          1           0      -11.560144   -1.563933    1.292140
    124          1           0      -11.620383    1.452190    1.685094
    125          1           0      -12.752448   -0.542868    3.444720
    126          1           0      -13.846439    0.627019    2.962393
    127          1           0      -12.211022    1.042802    3.841505
    128          1           0      -13.991029    0.102705    0.943750
    129          1           0      -12.622212   -0.043423   -0.368608
    130          1           0      -12.601405    2.481751   -0.473815
    131          1           0      -13.771415    2.568137    0.847795
    132          1           0      -14.703667    0.676111   -1.055334
    133          1           0      -13.921354    1.815075   -1.961580
    134          1           0      -15.484181    3.402199   -0.126739
    135          1           0      -17.148895    2.117162    0.583729
    136          1           0      -16.902296    0.878733   -0.661214
    137          1           0      -17.813268    2.371570   -1.035318
    138          1           0      -14.986487    3.724483   -2.830141
    139          1           0      -16.431736    4.392081   -1.925274
    140          1           0      -16.623917    3.096329   -2.986375
 ---------------------------------------------------------------------

 SCF Done:  E(RPBE1PBE) =  -3005.35132161     A.U. after   15 cycles

 Excitation energies and oscillator strengths:

 Excited State   1:      Singlet-A      1.8743 eV  661.50 nm  f=0.3811  <S**2>=0.000
     245 -> 248        0.17650
     246 -> 247        0.69211
     246 <- 247       -0.10619
 This state for optimization and/or second-order correction.
 Total Energy, E(TD-HF/TD-DFT) =  -3005.28244264
 Copying the excited state density for this state as the 1-particle RhoCI density.

 Excited State   2:      Singlet-A      2.2806 eV  543.65 nm  f=0.0929  <S**2>=0.000
     245 -> 247        0.64111
     246 -> 248       -0.28568

 Excited State   3:      Singlet-A      2.9861 eV  415.21 nm  f=0.0001  <S**2>=0.000
     242 -> 247        0.12847
     244 -> 247        0.65895
     244 -> 249       -0.14678

 Excited State   4:      Singlet-A      3.0887 eV  401.41 nm  f=0.0005  <S**2>=0.000
     241 -> 247        0.65548
     241 -> 249        0.15722
     242 -> 247        0.13927

 Excited State   5:      Singlet-A      3.1096 eV  398.72 nm  f=0.0023  <S**2>=0.000
     240 -> 247       -0.11805
     241 -> 247       -0.12221
     242 -> 247        0.64517
     243 -> 247       -0.15984
     244 -> 247       -0.13826

 The electronic state is 1-A.
 Alpha  occ. eigenvalues --  -46.91743 -19.27625 -19.23629 -19.21361 -19.19648
 Alpha  occ. eigenvalues --  -19.18174 -19.17929 -14.41810 -14.41569 -14.39231
 Alpha  occ. eigenvalues --  -14.38537 -10.37658 -10.35047 -10.32466 -10.30755
 Alpha  occ. eigenvalues --  -10.29742 -10.29197 -10.28645 -10.28569 -10.28342
 Alpha  occ. eigenvalues --  -10.28339 -10.27947 -10.27390 -10.26652 -10.26614
 Alpha  occ. eigenvalues --  -10.26517 -10.26472 -10.26438 -10.25694 -10.25686
 Alpha  occ. eigenvalues --  -10.25644 -10.25629 -10.25468 -10.25263 -10.24924
 Alpha  occ. eigenvalues --  -10.24802 -10.24776 -10.24516 -10.24509 -10.24381
 Alpha  occ. eigenvalues --  -10.23949 -10.23937 -10.23818 -10.23676 -10.23649
 Alpha  occ. eigenvalues --  -10.23548 -10.23507 -10.23332 -10.23000 -10.22881
 Alpha  occ. eigenvalues --  -10.22843 -10.22831 -10.22824 -10.22763 -10.22728
 Alpha  occ. eigenvalues --  -10.22499 -10.22486 -10.22444 -10.22412 -10.22293
 Alpha  occ. eigenvalues --  -10.22136 -10.22104 -10.22005 -10.21957 -10.21925
 Alpha  occ. eigenvalues --  -10.21375  -3.13845  -1.86702  -1.86222  -1.86062
 Alpha  occ. eigenvalues --   -1.12866  -1.09719  -1.04748  -1.04482  -1.04355
 Alpha  occ. eigenvalues --   -1.00742  -0.99630  -0.98615  -0.97352  -0.95608
 Alpha  occ. eigenvalues --   -0.86443  -0.85163  -0.84048  -0.83494  -0.83366
 Alpha  occ. eigenvalues --   -0.82940  -0.82784  -0.81820  -0.81536  -0.80516
 Alpha  occ. eigenvalues --   -0.80167  -0.79963  -0.78971  -0.77795  -0.77445
 Alpha  occ. eigenvalues --   -0.76955  -0.75861  -0.75523  -0.74648  -0.74541
 Alpha  occ. eigenvalues --   -0.74234  -0.71979  -0.71923  -0.70973  -0.70843
 Alpha  occ. eigenvalues --   -0.70149  -0.69533  -0.69481  -0.69221  -0.68115
 Alpha  occ. eigenvalues --   -0.67421  -0.66984  -0.66380  -0.64931  -0.64272
 Alpha  occ. eigenvalues --   -0.63036  -0.62222  -0.61735  -0.60739  -0.60241
 Alpha  occ. eigenvalues --   -0.59928  -0.59608  -0.59566  -0.59227  -0.58623
 Alpha  occ. eigenvalues --   -0.58601  -0.57961  -0.56092  -0.55597  -0.55421
 Alpha  occ. eigenvalues --   -0.54441  -0.53885  -0.53530  -0.53081  -0.52165
 Alpha  occ. eigenvalues --   -0.51948  -0.51518  -0.51145  -0.50376  -0.50168
 Alpha  occ. eigenvalues --   -0.49950  -0.49288  -0.49092  -0.49055  -0.48441
 Alpha  occ. eigenvalues --   -0.48280  -0.47874  -0.47804  -0.47389  -0.47284
 Alpha  occ. eigenvalues --   -0.47131  -0.47057  -0.46710  -0.46254  -0.46184
 Alpha  occ. eigenvalues --   -0.45757  -0.45611  -0.45449  -0.45390  -0.45035
 Alpha  occ. eigenvalues --   -0.44968  -0.44464  -0.44368  -0.44131  -0.44036
 Alpha  occ. eigenvalues --   -0.43807  -0.43675  -0.43533  -0.43368  -0.43142
 Alpha  occ. eigenvalues --   -0.43043  -0.42929  -0.42553  -0.42399  -0.42190
 Alpha  occ. eigenvalues --   -0.41920  -0.41675  -0.41632  -0.41590  -0.41397
 Alpha  occ. eigenvalues --   -0.41065  -0.40746  -0.40667  -0.40484  -0.40311
 Alpha  occ. eigenvalues --   -0.40270  -0.40066  -0.40051  -0.39785  -0.39537
 Alpha  occ. eigenvalues --   -0.39252  -0.39164  -0.39060  -0.39045  -0.38619
 Alpha  occ. eigenvalues --   -0.38581  -0.38474  -0.38408  -0.38291  -0.38033
 Alpha  occ. eigenvalues --   -0.38012  -0.37966  -0.37769  -0.37365  -0.37250
 Alpha  occ. eigenvalues --   -0.36885  -0.36682  -0.36376  -0.35940  -0.35769
 Alpha  occ. eigenvalues --   -0.35495  -0.35264  -0.35103  -0.34783  -0.34633
 Alpha  occ. eigenvalues --   -0.34547  -0.34260  -0.34026  -0.33718  -0.33569
 Alpha  occ. eigenvalues --   -0.33475  -0.33004  -0.32837  -0.32743  -0.32603
 Alpha  occ. eigenvalues --   -0.32149  -0.31615  -0.31509  -0.31191  -0.30913
 Alpha  occ. eigenvalues --   -0.30564  -0.30030  -0.30012  -0.29876  -0.29017
 Alpha  occ. eigenvalues --   -0.28873  -0.28586  -0.27504  -0.26909  -0.25904
 Alpha  occ. eigenvalues --   -0.25725  -0.25157  -0.25122  -0.24953  -0.20999
 Alpha  occ. eigenvalues --   -0.18575
 Alpha virt. eigenvalues --   -0.10903  -0.05189  -0.03591  -0.01816  -0.00582
 Alpha virt. eigenvalues --    0.00163   0.00455   0.01724   0.02430   0.03337
 Alpha virt. eigenvalues --    0.04247   0.04506   0.05189   0.05409   0.05541

 Mulliken charges:
               1
     1  Mg   0.962447
     2  C    0.019695
     3  C   -0.084431
     4  C   -0.044282
     5  C   -0.036056
     6  N   -0.364027
     7  C    0.011486
     8  C   -0.094072
     9  C   -0.131378
    10  C    0.025391
    11  C    0.002408
    12  C    0.016226
    13  C    0.002251
    14  C    0.214473
    15  O   -0.266408
    16  O   -0.350121
    17  N   -0.505965
    18  C    0.247447
    19  C   -0.154416
    20  C   -0.083304
    21  C    0.141752
    22  C    0.051850
    23  C    0.045155
    24  O   -0.242985
    25  C   -0.030521
    26  N   -0.378958
    27  C    0.118463
    28  C   -0.102073
    29  C   -0.097979
    30  C    0.090364
    31  C    0.002394
    32  C   -0.035975
    33  C   -0.067934
    34  N   -0.499037
    35  C    0.072657
    36  C   -0.166914
    37  C   -0.046289
    38  C    0.141705
    39  C    0.048510
    40  C    0.135853
    41  O   -0.196607
    42  C   -0.107720
    43  C    0.274258
    44  O   -0.248705
    45  O   -0.375279
    46  C    0.134397
    47  C    0.231531
    48  C   -0.164409
    49  C   -0.193355
    50  C    0.013858
    51  C    0.013372
    52  C   -0.075124
    53  C    0.014509
    54  C   -0.216065
    55  C   -0.002848
    56  C   -0.007783
    57  C   -0.045054
    58  C   -0.022920
    59  C   -0.189082
    60  C    0.014467
    61  C   -0.044783
    62  C   -0.087569
    63  C   -0.013514
    64  C   -0.219846
    65  C   -0.012344
    66  C   -0.021821
    67  H   -0.006498
    68  H    0.029956
    69  H   -0.008638
    70  H    0.087766
    71  H    0.047049
    72  H    0.021542
    73  H    0.071146
    74  H    0.048127
    75  H    0.048342
    76  H    0.054368
    77  H    0.055323
    78  H    0.067753
    79  H    0.048373
    80  H    0.039037
    81  H    0.047601
    82  H    0.056223
    83  H    0.036570
    84  H    0.046083
    85  H    0.044289
    86  H    0.050279
    87  H    0.051823
    88  H    0.049007
    89  H    0.038090
    90  H    0.040679
    91  H    0.039828
    92  H    0.057813
    93  H    0.037319
    94  H    0.054031
    95  H    0.055316
    96  H    0.030686
    97  H    0.067346
    98  H    0.070336
    99  H    0.065044
   100  H    0.059524
   101  H    0.058858
   102  H    0.054530
   103  H    0.078800
   104  H    0.041955
   105  H    0.047603
   106  H    0.062782
   107  H    0.024558
   108  H    0.049974
   109  H    0.028151
   110  H    0.023157
   111  H    0.022310
   112  H    0.024212
   113  H    0.022830
   114  H    0.042274
   115  H    0.027498
   116  H    0.041983
   117  H    0.025357
   118  H    0.025887
   119  H    0.023327
   120  H    0.029303
   121  H    0.023336
   122  H    0.022396
   123  H    0.019646
   124  H    0.026521
   125  H    0.015964
   126  H    0.026813
   127  H    0.048104
   128  H    0.036275
   129  H    0.049423
   130  H    0.035409
   131  H    0.031632
   132  H    0.026747
   133  H    0.009429
   134  H    0.039863
   135  H    0.035057
   136  H    0.039858
   137  H    0.027135
   138  H    0.044976
   139  H    0.030757
   140  H    0.034811
 Sum of Mulliken charges =  -0.00000

 Dipole moment (field-independent basis, Debye):
    X=             -5.7161    Y=              0.5188    Z=              3.2681  Tot=              6.6048
 Quadrupole moment (field-independent basis, Debye-Ang):
   XX=           -379.6184   YY=           -425.6957   ZZ=           -403.7411
   XY=             22.5486   XZ=             20.4550   YZ=              1.6409

 Normal termination of Gaussian 16 at Wed May  4 14:15:19 2022.
