 Gaussian 16, Revision A.03,
 Gaussian 16:  ES64L-G16RevA.03 25-Dec-2016

 --------------------------------
 #p wB97XD/Def2SVP td=(nstates=5)
 --------------------------------

 -----------------------------------------------------
 step_1801_chromophore_18 TDDFT with wB97XD functional
 -----------------------------------------------------
 Symbolic Z-matrix:
 Charge =  0 Multiplicity = 1

                         Standard orientation:
 ---------------------------------------------------------------------
 Center     Atomic      Atomic             Coordinates (Angstroms)
 Number     Number       Type             X           Y           Z
 ---------------------------------------------------------------------
      1         12           0        5.282515    1.118763    0.063819
      2          6           0        4.346359   -2.342382    0.237432
      3          6           0        1.829134    1.895439    0.013556
      4          6           0        6.113006    4.393257   -0.256059
      5          6           0        8.547091    0.235177    0.014486
      6          7           0        3.351223   -0.052817    0.101757
      7          6           0        3.265386   -1.395710    0.223006
      8          6           0        1.815903   -1.886637    0.464622
      9          6           0        0.973319   -0.532411    0.312008
     10          6           0        2.083146    0.521133    0.167332
     11          6           0       -0.000641   -0.534474   -0.855218
     12          6           0        1.638897   -2.570212    1.885530
     13          6           0        0.780060   -3.851905    1.919454
     14          6           0       -0.101260   -4.180858    0.661369
     15          8           0        0.364830   -4.486123   -0.418244
     16          8           0       -1.424466   -4.013633    0.932034
     17          7           0        4.088798    2.883419   -0.165686
     18          6           0        2.720753    2.931371   -0.181590
     19          6           0        2.361259    4.336968   -0.286384
     20          6           0        3.548807    5.129465   -0.349464
     21          6           0        4.718832    4.148309   -0.269780
     22          6           0        0.863544    4.719493   -0.172975
     23          6           0        3.688744    6.579055   -0.492233
     24          8           0        4.727607    7.188120   -0.664905
     25          6           0        2.506871    7.431012   -0.398259
     26          7           0        7.090356    2.157190   -0.247252
     27          6           0        7.175902    3.500400   -0.138938
     28          6           0        8.627372    3.989137   -0.081153
     29          6           0        9.439096    2.679022   -0.004802
     30          6           0        8.267212    1.595647   -0.037366
     31          6           0        9.153870    4.796258   -1.262267
     32          6           0       10.348944    2.565970    1.219593
     33          6           0        9.631789    2.196320    2.551969
     34          7           0        6.307534   -0.636617    0.071997
     35          6           0        7.647673   -0.856238    0.019162
     36          6           0        7.913546   -2.255310    0.104222
     37          6           0        6.671031   -2.853943    0.106193
     38          6           0        5.696352   -1.837338    0.165794
     39          6           0        9.324721   -2.895432    0.091911
     40          6           0        6.045472   -4.189057    0.127078
     41          8           0        6.595872   -5.271712    0.000115
     42          6           0        4.513385   -3.871104    0.231602
     43          6           0        3.959068   -4.614377   -0.946824
     44          8           0        3.858306   -4.163183   -2.064627
     45          8           0        3.646539   -5.904461   -0.676103
     46          6           0        2.720739   -6.646071   -1.589637
     47          6           0       -2.284875   -4.390888   -0.221005
     48          6           0       -3.000304   -3.180949   -0.486814
     49          6           0       -4.101745   -3.008693   -1.263294
     50          6           0       -4.780738   -4.090164   -2.152606
     51          6           0       -4.744249   -1.619358   -1.161009
     52          6           0       -6.251504   -1.555020   -0.956544
     53          6           0       -6.742736   -0.169544   -0.440443
     54          6           0       -7.477718   -0.296062    0.890028
     55          6           0       -6.498565    0.088223    2.051572
     56          6           0       -8.835179    0.463670    0.847546
     57          6           0      -10.040250   -0.440562    0.368709
     58          6           0      -11.047978   -0.631454    1.528407
     59          6           0      -12.118058    0.482102    1.701216
     60          6           0      -12.772515    0.487953    3.089853
     61          6           0      -13.075637    0.468703    0.479840
     62          6           0      -13.403582    1.944543    0.032633
     63          6           0      -14.503265    1.747070   -1.042356
     64          6           0      -15.703603    2.725625   -0.953102
     65          6           0      -16.974967    1.951746   -0.479455
     66          6           0      -15.901823    3.507991   -2.280226
     67          1           0        0.745905    2.036099    0.023300
     68          1           0        6.289334    5.469687   -0.214020
     69          1           0        9.528616   -0.239429    0.068630
     70          1           0        1.627953   -2.464676   -0.439903
     71          1           0        0.409080   -0.229035    1.193366
     72          1           0       -0.867291    0.032901   -0.516980
     73          1           0       -0.356769   -1.512381   -1.177376
     74          1           0        0.316420    0.137716   -1.652677
     75          1           0        1.109635   -1.959868    2.617325
     76          1           0        2.666685   -2.730725    2.209361
     77          1           0        0.106243   -3.796901    2.773968
     78          1           0        1.507089   -4.658072    2.014936
     79          1           0        0.766925    5.352215    0.709637
     80          1           0        0.196134    3.865949   -0.052098
     81          1           0        0.426274    5.366702   -0.933367
     82          1           0        1.884147    7.457343   -1.292465
     83          1           0        2.689034    8.504261   -0.344869
     84          1           0        1.905205    7.241562    0.490919
     85          1           0        8.774382    4.647693    0.775091
     86          1           0       10.033800    2.453183   -0.889870
     87          1           0        8.636197    5.753115   -1.203503
     88          1           0        9.074663    4.360855   -2.258308
     89          1           0       10.217354    4.954919   -1.087327
     90          1           0       10.764555    3.572169    1.285639
     91          1           0       11.128889    1.854893    0.946354
     92          1           0        8.565136    2.018116    2.416966
     93          1           0        9.709454    3.141497    3.089759
     94          1           0       10.065268    1.384333    3.135808
     95          1           0        9.274697   -3.732147    0.788639
     96          1           0       10.159504   -2.311114    0.478496
     97          1           0        9.698727   -3.255146   -0.867263
     98          1           0        4.156257   -4.373801    1.129751
     99          1           0        2.099397   -5.903995   -2.090687
    100          1           0        2.056610   -7.331753   -1.062109
    101          1           0        3.296871   -7.125680   -2.380513
    102          1           0       -3.035803   -5.125868    0.070471
    103          1           0       -1.832524   -4.897461   -1.072455
    104          1           0       -2.699239   -2.376136    0.184455
    105          1           0       -4.873888   -3.734289   -3.177957
    106          1           0       -5.763733   -4.484841   -1.892805
    107          1           0       -4.091007   -4.931605   -2.225974
    108          1           0       -4.442770   -1.104563   -2.073503
    109          1           0       -4.288921   -1.143994   -0.292219
    110          1           0       -6.644580   -2.357603   -0.333808
    111          1           0       -6.810937   -1.769723   -1.867221
    112          1           0       -7.309200    0.351385   -1.213336
    113          1           0       -5.796685    0.370850   -0.434442
    114          1           0       -7.712843   -1.337071    1.111118
    115          1           0       -6.398889   -0.851429    2.594930
    116          1           0       -6.796852    0.896017    2.719884
    117          1           0       -5.496320    0.274336    1.664226
    118          1           0       -8.816324    1.324039    0.180076
    119          1           0       -9.055329    0.853341    1.841749
    120          1           0       -9.685090   -1.378462   -0.059591
    121          1           0      -10.470678    0.093456   -0.479604
    122          1           0      -10.510089   -0.813868    2.459041
    123          1           0      -11.560144   -1.563933    1.292140
    124          1           0      -11.620383    1.452190    1.685094
    125          1           0      -12.752448   -0.542868    3.444720
    126          1           0      -13.846439    0.627019    2.962393
    127          1           0      -12.211022    1.042802    3.841505
    128          1           0      -13.991029    0.102705    0.943750
    129          1           0      -12.622212   -0.043423   -0.368608
    130          1           0      -12.601405    2.481751   -0.473815
    131          1           0      -13.771415    2.568137    0.847795
    132          1           0      -14.703667    0.676111   -1.055334
    133          1           0      -13.921354    1.815075   -1.961580
    134          1           0      -15.484181    3.402199   -0.126739
    135          1           0      -17.148895    2.117162    0.583729
    136          1           0      -16.902296    0.878733   -0.661214
    137          1           0      -17.813268    2.371570   -1.035318
    138          1           0      -14.986487    3.724483   -2.830141
    139          1           0      -16.431736    4.392081   -1.925274
    140          1           0      -16.623917    3.096329   -2.986375
 ---------------------------------------------------------------------

 SCF Done:  E(RwB97XD) =  -3007.86107887     A.U. after   19 cycles

 Excitation energies and oscillator strengths:

 Excited State   1:      Singlet-A      1.6492 eV  751.80 nm  f=0.3895  <S**2>=0.000
     245 -> 248        0.19001
     246 -> 247        0.68294
     245 <- 248        0.11973
 This state for optimization and/or second-order correction.
 Total Energy, E(TD-HF/TD-DFT) =  -3007.80047338
 Copying the excited state density for this state as the 1-particle RhoCI density.

 Excited State   2:      Singlet-A      2.2129 eV  560.27 nm  f=0.0896  <S**2>=0.000
     245 -> 247        0.62612
     246 -> 248       -0.31702

 Excited State   3:      Singlet-A      3.4744 eV  356.85 nm  f=0.1584  <S**2>=0.000
     244 -> 247        0.57779
     245 -> 247        0.14172
     246 -> 248        0.34638

 Excited State   4:      Singlet-A      3.5139 eV  352.84 nm  f=0.3458  <S**2>=0.000
     241 -> 247        0.38589
     242 -> 247       -0.14168
     244 -> 247       -0.27457
     245 -> 247        0.20725
     246 -> 248        0.44180

 Excited State   5:      Singlet-A      3.5874 eV  345.61 nm  f=0.0014  <S**2>=0.000
     240 -> 247        0.53368
     240 -> 249        0.30117
     240 -> 250       -0.21595
     241 -> 247       -0.12792
     242 -> 247       -0.14105

 The electronic state is 1-A.
 Alpha  occ. eigenvalues --  -46.94693 -19.32150 -19.28214 -19.26000 -19.24518
 Alpha  occ. eigenvalues --  -19.22897 -19.22732 -14.46862 -14.46677 -14.44144
 Alpha  occ. eigenvalues --  -14.43475 -10.44423 -10.41886 -10.39363 -10.37610
 Alpha  occ. eigenvalues --  -10.36216 -10.35496 -10.34908 -10.34860 -10.34608
 Alpha  occ. eigenvalues --  -10.34583 -10.34474 -10.33702 -10.33061 -10.32973
 Alpha  occ. eigenvalues --  -10.32970 -10.32809 -10.32723 -10.32093 -10.32042
 Alpha  occ. eigenvalues --  -10.31871 -10.31852 -10.31809 -10.31747 -10.31135
 Alpha  occ. eigenvalues --  -10.31123 -10.31003 -10.30960 -10.30881 -10.30874
 Alpha  occ. eigenvalues --  -10.30374 -10.30338 -10.30118 -10.29988 -10.29951
 Alpha  occ. eigenvalues --  -10.29933 -10.29919 -10.29723 -10.29384 -10.29238
 Alpha  occ. eigenvalues --  -10.29201 -10.29195 -10.29140 -10.29128 -10.29110
 Alpha  occ. eigenvalues --  -10.28855 -10.28849 -10.28797 -10.28769 -10.28653
 Alpha  occ. eigenvalues --  -10.28549 -10.28545 -10.28535 -10.28433 -10.28344
 Alpha  occ. eigenvalues --  -10.27710  -3.20646  -1.94252  -1.93776  -1.93610
 Alpha  occ. eigenvalues --   -1.20222  -1.17130  -1.12280  -1.11955  -1.11676
 Alpha  occ. eigenvalues --   -1.08118  -1.06994  -1.05973  -1.04735  -1.02968
 Alpha  occ. eigenvalues --   -0.94095  -0.92827  -0.91717  -0.91055  -0.91012
 Alpha  occ. eigenvalues --   -0.90569  -0.90393  -0.89406  -0.89195  -0.88183
 Alpha  occ. eigenvalues --   -0.87825  -0.87594  -0.86613  -0.85414  -0.85080
 Alpha  occ. eigenvalues --   -0.84580  -0.83533  -0.83200  -0.82277  -0.82203
 Alpha  occ. eigenvalues --   -0.81890  -0.79639  -0.79581  -0.78597  -0.78520
 Alpha  occ. eigenvalues --   -0.77778  -0.77230  -0.77053  -0.76896  -0.75771
 Alpha  occ. eigenvalues --   -0.75001  -0.74556  -0.73890  -0.72545  -0.71833
 Alpha  occ. eigenvalues --   -0.70603  -0.69853  -0.69243  -0.68358  -0.67896
 Alpha  occ. eigenvalues --   -0.67407  -0.67090  -0.66991  -0.66680  -0.66286
 Alpha  occ. eigenvalues --   -0.66070  -0.65611  -0.63711  -0.62997  -0.62923
 Alpha  occ. eigenvalues --   -0.61863  -0.61289  -0.60949  -0.60470  -0.59711
 Alpha  occ. eigenvalues --   -0.59341  -0.58968  -0.58536  -0.57788  -0.57546
 Alpha  occ. eigenvalues --   -0.57384  -0.56792  -0.56474  -0.56443  -0.55842
 Alpha  occ. eigenvalues --   -0.55686  -0.55276  -0.55171  -0.54699  -0.54653
 Alpha  occ. eigenvalues --   -0.54487  -0.54422  -0.54060  -0.53855  -0.53503
 Alpha  occ. eigenvalues --   -0.53123  -0.52954  -0.52853  -0.52718  -0.52412
 Alpha  occ. eigenvalues --   -0.52293  -0.51836  -0.51716  -0.51454  -0.51364
 Alpha  occ. eigenvalues --   -0.51138  -0.50963  -0.50841  -0.50660  -0.50499
 Alpha  occ. eigenvalues --   -0.50406  -0.50197  -0.49833  -0.49671  -0.49464
 Alpha  occ. eigenvalues --   -0.49223  -0.48942  -0.48886  -0.48776  -0.48657
 Alpha  occ. eigenvalues --   -0.48300  -0.47985  -0.47841  -0.47673  -0.47491
 Alpha  occ. eigenvalues --   -0.47436  -0.47309  -0.47263  -0.46990  -0.46671
 Alpha  occ. eigenvalues --   -0.46435  -0.46358  -0.46219  -0.46161  -0.45769
 Alpha  occ. eigenvalues --   -0.45735  -0.45582  -0.45515  -0.45406  -0.45161
 Alpha  occ. eigenvalues --   -0.45154  -0.45093  -0.44847  -0.44457  -0.44402
 Alpha  occ. eigenvalues --   -0.43976  -0.43812  -0.43478  -0.43051  -0.42995
 Alpha  occ. eigenvalues --   -0.42544  -0.42337  -0.42159  -0.41950  -0.41671
 Alpha  occ. eigenvalues --   -0.41542  -0.41299  -0.41016  -0.40767  -0.40548
 Alpha  occ. eigenvalues --   -0.40421  -0.39930  -0.39895  -0.39800  -0.39604
 Alpha  occ. eigenvalues --   -0.39193  -0.38550  -0.38486  -0.38211  -0.37752
 Alpha  occ. eigenvalues --   -0.37534  -0.37113  -0.36996  -0.36917  -0.35765
 Alpha  occ. eigenvalues --   -0.35545  -0.35413  -0.34660  -0.33482  -0.32844
 Alpha  occ. eigenvalues --   -0.32483  -0.32191  -0.31848  -0.31667  -0.25978
 Alpha  occ. eigenvalues --   -0.22686
 Alpha virt. eigenvalues --   -0.06765   0.00210   0.02685   0.04684   0.06080
 Alpha virt. eigenvalues --    0.06464   0.06817   0.08414   0.09232   0.09762
 Alpha virt. eigenvalues --    0.10978   0.11060   0.12058   0.12198   0.12346

 Mulliken charges:
               1
     1  Mg   0.952359
     2  C    0.005526
     3  C   -0.096313
     4  C   -0.058425
     5  C   -0.052320
     6  N   -0.330289
     7  C   -0.012333
     8  C   -0.069954
     9  C   -0.106100
    10  C    0.010699
    11  C    0.016026
    12  C    0.028181
    13  C    0.018224
    14  C    0.201144
    15  O   -0.263318
    16  O   -0.348553
    17  N   -0.472243
    18  C    0.236053
    19  C   -0.145961
    20  C   -0.072017
    21  C    0.127697
    22  C    0.064236
    23  C    0.044658
    24  O   -0.236841
    25  C   -0.021994
    26  N   -0.343335
    27  C    0.103128
    28  C   -0.078109
    29  C   -0.075866
    30  C    0.081329
    31  C    0.012871
    32  C   -0.020987
    33  C   -0.049903
    34  N   -0.459716
    35  C    0.062656
    36  C   -0.163423
    37  C   -0.042106
    38  C    0.127217
    39  C    0.058325
    40  C    0.119493
    41  O   -0.186058
    42  C   -0.068529
    43  C    0.248936
    44  O   -0.242469
    45  O   -0.373755
    46  C    0.149356
    47  C    0.242867
    48  C   -0.165448
    49  C   -0.185778
    50  C    0.026677
    51  C    0.041372
    52  C   -0.062487
    53  C    0.029525
    54  C   -0.182999
    55  C    0.008064
    56  C    0.007560
    57  C   -0.032284
    58  C    0.000603
    59  C   -0.164257
    60  C    0.026880
    61  C   -0.020853
    62  C   -0.073415
    63  C    0.000533
    64  C   -0.189163
    65  C   -0.000956
    66  C   -0.009299
    67  H   -0.017197
    68  H    0.024503
    69  H   -0.017693
    70  H    0.072508
    71  H    0.036802
    72  H    0.015036
    73  H    0.061852
    74  H    0.042174
    75  H    0.042252
    76  H    0.043476
    77  H    0.051013
    78  H    0.061228
    79  H    0.041327
    80  H    0.035786
    81  H    0.042592
    82  H    0.052085
    83  H    0.035163
    84  H    0.040144
    85  H    0.035099
    86  H    0.040807
    87  H    0.046112
    88  H    0.043944
    89  H    0.030742
    90  H    0.030974
    91  H    0.033102
    92  H    0.046472
    93  H    0.031631
    94  H    0.049866
    95  H    0.050522
    96  H    0.026282
    97  H    0.063594
    98  H    0.063001
    99  H    0.060775
   100  H    0.056813
   101  H    0.055615
   102  H    0.049515
   103  H    0.075520
   104  H    0.035426
   105  H    0.042207
   106  H    0.058492
   107  H    0.018514
   108  H    0.042102
   109  H    0.014165
   110  H    0.012422
   111  H    0.014253
   112  H    0.016887
   113  H    0.011080
   114  H    0.026552
   115  H    0.021941
   116  H    0.037660
   117  H    0.017920
   118  H    0.017679
   119  H    0.012010
   120  H    0.021063
   121  H    0.013819
   122  H    0.012701
   123  H    0.010103
   124  H    0.011406
   125  H    0.008568
   126  H    0.020491
   127  H    0.044158
   128  H    0.023005
   129  H    0.038564
   130  H    0.027604
   131  H    0.020921
   132  H    0.014296
   133  H    0.000680
   134  H    0.028334
   135  H    0.029821
   136  H    0.033715
   137  H    0.020824
   138  H    0.039721
   139  H    0.024338
   140  H    0.028781
 Sum of Mulliken charges =  -0.00000

 Dipole moment (field-independent basis, Debye):
    X=             -5.7970    Y=              0.4909    Z=              3.3045  Tot=              6.6907
 Quadrupole moment (field-independent basis, Debye-Ang):
   XX=           -380.2058   YY=           -424.0522   ZZ=           -403.3343
   XY=             21.6638   XZ=             20.7638   YZ=              1.4829

 Normal termination of Gaussian 16 at Wed May  4 14:44:39 2022.
