 Gaussian 16, Revision A.03,
 Gaussian 16:  ES64L-G16RevA.03 25-Dec-2016

 --------------------
 #p ZINDO=(nstates=5)
 --------------------

 ------------------------------
 step_1801_chromophore_18 ZINDO
 ------------------------------
 Symbolic Z-matrix:
 Charge =  0 Multiplicity = 1

                         Standard orientation:
 ---------------------------------------------------------------------
 Center     Atomic      Atomic             Coordinates (Angstroms)
 Number     Number       Type             X           Y           Z
 ---------------------------------------------------------------------
      1         12           0        5.282515    1.118763    0.063819
      2          6           0        4.346359   -2.342382    0.237432
      3          6           0        1.829134    1.895439    0.013556
      4          6           0        6.113006    4.393257   -0.256059
      5          6           0        8.547091    0.235177    0.014486
      6          7           0        3.351223   -0.052817    0.101757
      7          6           0        3.265386   -1.395710    0.223006
      8          6           0        1.815903   -1.886637    0.464622
      9          6           0        0.973319   -0.532411    0.312008
     10          6           0        2.083146    0.521133    0.167332
     11          6           0       -0.000641   -0.534474   -0.855218
     12          6           0        1.638897   -2.570212    1.885530
     13          6           0        0.780060   -3.851905    1.919454
     14          6           0       -0.101260   -4.180858    0.661369
     15          8           0        0.364830   -4.486123   -0.418244
     16          8           0       -1.424466   -4.013633    0.932034
     17          7           0        4.088798    2.883419   -0.165686
     18          6           0        2.720753    2.931371   -0.181590
     19          6           0        2.361259    4.336968   -0.286384
     20          6           0        3.548807    5.129465   -0.349464
     21          6           0        4.718832    4.148309   -0.269780
     22          6           0        0.863544    4.719493   -0.172975
     23          6           0        3.688744    6.579055   -0.492233
     24          8           0        4.727607    7.188120   -0.664905
     25          6           0        2.506871    7.431012   -0.398259
     26          7           0        7.090356    2.157190   -0.247252
     27          6           0        7.175902    3.500400   -0.138938
     28          6           0        8.627372    3.989137   -0.081153
     29          6           0        9.439096    2.679022   -0.004802
     30          6           0        8.267212    1.595647   -0.037366
     31          6           0        9.153870    4.796258   -1.262267
     32          6           0       10.348944    2.565970    1.219593
     33          6           0        9.631789    2.196320    2.551969
     34          7           0        6.307534   -0.636617    0.071997
     35          6           0        7.647673   -0.856238    0.019162
     36          6           0        7.913546   -2.255310    0.104222
     37          6           0        6.671031   -2.853943    0.106193
     38          6           0        5.696352   -1.837338    0.165794
     39          6           0        9.324721   -2.895432    0.091911
     40          6           0        6.045472   -4.189057    0.127078
     41          8           0        6.595872   -5.271712    0.000115
     42          6           0        4.513385   -3.871104    0.231602
     43          6           0        3.959068   -4.614377   -0.946824
     44          8           0        3.858306   -4.163183   -2.064627
     45          8           0        3.646539   -5.904461   -0.676103
     46          6           0        2.720739   -6.646071   -1.589637
     47          6           0       -2.284875   -4.390888   -0.221005
     48          6           0       -3.000304   -3.180949   -0.486814
     49          6           0       -4.101745   -3.008693   -1.263294
     50          6           0       -4.780738   -4.090164   -2.152606
     51          6           0       -4.744249   -1.619358   -1.161009
     52          6           0       -6.251504   -1.555020   -0.956544
     53          6           0       -6.742736   -0.169544   -0.440443
     54          6           0       -7.477718   -0.296062    0.890028
     55          6           0       -6.498565    0.088223    2.051572
     56          6           0       -8.835179    0.463670    0.847546
     57          6           0      -10.040250   -0.440562    0.368709
     58          6           0      -11.047978   -0.631454    1.528407
     59          6           0      -12.118058    0.482102    1.701216
     60          6           0      -12.772515    0.487953    3.089853
     61          6           0      -13.075637    0.468703    0.479840
     62          6           0      -13.403582    1.944543    0.032633
     63          6           0      -14.503265    1.747070   -1.042356
     64          6           0      -15.703603    2.725625   -0.953102
     65          6           0      -16.974967    1.951746   -0.479455
     66          6           0      -15.901823    3.507991   -2.280226
     67          1           0        0.745905    2.036099    0.023300
     68          1           0        6.289334    5.469687   -0.214020
     69          1           0        9.528616   -0.239429    0.068630
     70          1           0        1.627953   -2.464676   -0.439903
     71          1           0        0.409080   -0.229035    1.193366
     72          1           0       -0.867291    0.032901   -0.516980
     73          1           0       -0.356769   -1.512381   -1.177376
     74          1           0        0.316420    0.137716   -1.652677
     75          1           0        1.109635   -1.959868    2.617325
     76          1           0        2.666685   -2.730725    2.209361
     77          1           0        0.106243   -3.796901    2.773968
     78          1           0        1.507089   -4.658072    2.014936
     79          1           0        0.766925    5.352215    0.709637
     80          1           0        0.196134    3.865949   -0.052098
     81          1           0        0.426274    5.366702   -0.933367
     82          1           0        1.884147    7.457343   -1.292465
     83          1           0        2.689034    8.504261   -0.344869
     84          1           0        1.905205    7.241562    0.490919
     85          1           0        8.774382    4.647693    0.775091
     86          1           0       10.033800    2.453183   -0.889870
     87          1           0        8.636197    5.753115   -1.203503
     88          1           0        9.074663    4.360855   -2.258308
     89          1           0       10.217354    4.954919   -1.087327
     90          1           0       10.764555    3.572169    1.285639
     91          1           0       11.128889    1.854893    0.946354
     92          1           0        8.565136    2.018116    2.416966
     93          1           0        9.709454    3.141497    3.089759
     94          1           0       10.065268    1.384333    3.135808
     95          1           0        9.274697   -3.732147    0.788639
     96          1           0       10.159504   -2.311114    0.478496
     97          1           0        9.698727   -3.255146   -0.867263
     98          1           0        4.156257   -4.373801    1.129751
     99          1           0        2.099397   -5.903995   -2.090687
    100          1           0        2.056610   -7.331753   -1.062109
    101          1           0        3.296871   -7.125680   -2.380513
    102          1           0       -3.035803   -5.125868    0.070471
    103          1           0       -1.832524   -4.897461   -1.072455
    104          1           0       -2.699239   -2.376136    0.184455
    105          1           0       -4.873888   -3.734289   -3.177957
    106          1           0       -5.763733   -4.484841   -1.892805
    107          1           0       -4.091007   -4.931605   -2.225974
    108          1           0       -4.442770   -1.104563   -2.073503
    109          1           0       -4.288921   -1.143994   -0.292219
    110          1           0       -6.644580   -2.357603   -0.333808
    111          1           0       -6.810937   -1.769723   -1.867221
    112          1           0       -7.309200    0.351385   -1.213336
    113          1           0       -5.796685    0.370850   -0.434442
    114          1           0       -7.712843   -1.337071    1.111118
    115          1           0       -6.398889   -0.851429    2.594930
    116          1           0       -6.796852    0.896017    2.719884
    117          1           0       -5.496320    0.274336    1.664226
    118          1           0       -8.816324    1.324039    0.180076
    119          1           0       -9.055329    0.853341    1.841749
    120          1           0       -9.685090   -1.378462   -0.059591
    121          1           0      -10.470678    0.093456   -0.479604
    122          1           0      -10.510089   -0.813868    2.459041
    123          1           0      -11.560144   -1.563933    1.292140
    124          1           0      -11.620383    1.452190    1.685094
    125          1           0      -12.752448   -0.542868    3.444720
    126          1           0      -13.846439    0.627019    2.962393
    127          1           0      -12.211022    1.042802    3.841505
    128          1           0      -13.991029    0.102705    0.943750
    129          1           0      -12.622212   -0.043423   -0.368608
    130          1           0      -12.601405    2.481751   -0.473815
    131          1           0      -13.771415    2.568137    0.847795
    132          1           0      -14.703667    0.676111   -1.055334
    133          1           0      -13.921354    1.815075   -1.961580
    134          1           0      -15.484181    3.402199   -0.126739
    135          1           0      -17.148895    2.117162    0.583729
    136          1           0      -16.902296    0.878733   -0.661214
    137          1           0      -17.813268    2.371570   -1.035318
    138          1           0      -14.986487    3.724483   -2.830141
    139          1           0      -16.431736    4.392081   -1.925274
    140          1           0      -16.623917    3.096329   -2.986375
 ---------------------------------------------------------------------

 SCF Done:  E(RZINDO/S) =  -474.289663953     A.U. after   19 cycles

 Excitation energies and oscillator strengths:

 Excited State   1:      Singlet-A      1.2497 eV  992.09 nm  f=0.6077  <S**2>=0.000
     175 ->178         0.19926
     176 ->177         0.66109
 This state for optimization and/or second-order correction.
 Total Energy, E(CIS/TDA) =  -474.243737501
 Copying the excited state density for this state as the 1-particle RhoCI density.

 Excited State   2:      Singlet-A      1.9296 eV  642.55 nm  f=0.0217  <S**2>=0.000
     175 ->177         0.52727
     176 ->178        -0.45061

 Excited State   3:      Singlet-A      2.8861 eV  429.60 nm  f=0.0122  <S**2>=0.000
     169 ->179         0.11329
     170 ->177         0.29538
     170 ->178         0.14238
     170 ->179         0.34007
     170 ->180        -0.31588
     170 ->184        -0.13287
     170 ->186         0.16490
     170 ->187         0.13240
     170 ->188        -0.12347

 Excited State   4:      Singlet-A      2.9858 eV  415.25 nm  f=0.0149  <S**2>=0.000
     168 ->177         0.27048
     168 ->179        -0.31259
     168 ->180        -0.24888
     168 ->186        -0.13958
     169 ->177         0.17585
     169 ->179        -0.17146
     169 ->180        -0.17395
     176 ->179         0.19708

 Excited State   5:      Singlet-A      3.0159 eV  411.10 nm  f=0.5145  <S**2>=0.000
     175 ->177         0.27748
     176 ->178         0.34268
     176 ->179         0.44688
     176 ->180        -0.13061

 The electronic state is 1-A.
 Alpha  occ. eigenvalues --   -1.85251  -1.81066  -1.77764  -1.74549  -1.71883
 Alpha  occ. eigenvalues --   -1.69315  -1.65554  -1.61357  -1.60287  -1.57554
 Alpha  occ. eigenvalues --   -1.54828  -1.52171  -1.48378  -1.48032  -1.47316
 Alpha  occ. eigenvalues --   -1.42853  -1.42308  -1.40287  -1.38998  -1.38736
 Alpha  occ. eigenvalues --   -1.36371  -1.33536  -1.32221  -1.31716  -1.29005
 Alpha  occ. eigenvalues --   -1.28533  -1.25042  -1.21829  -1.20192  -1.17362
 Alpha  occ. eigenvalues --   -1.16978  -1.16345  -1.15243  -1.14581  -1.13454
 Alpha  occ. eigenvalues --   -1.12033  -1.10476  -1.09929  -1.04824  -1.03893
 Alpha  occ. eigenvalues --   -1.02290  -1.01089  -0.98731  -0.98227  -0.97425
 Alpha  occ. eigenvalues --   -0.95619  -0.94846  -0.94384  -0.93888  -0.93109
 Alpha  occ. eigenvalues --   -0.91259  -0.89997  -0.89035  -0.87965  -0.87116
 Alpha  occ. eigenvalues --   -0.85576  -0.85392  -0.83342  -0.81339  -0.81114
 Alpha  occ. eigenvalues --   -0.80141  -0.78284  -0.77204  -0.76507  -0.76287
 Alpha  occ. eigenvalues --   -0.75679  -0.75159  -0.74405  -0.73989  -0.73872
 Alpha  occ. eigenvalues --   -0.72641  -0.72357  -0.71869  -0.70873  -0.70629
 Alpha  occ. eigenvalues --   -0.70372  -0.69789  -0.69026  -0.68471  -0.68232
 Alpha  occ. eigenvalues --   -0.67931  -0.67548  -0.66421  -0.65274  -0.65124
 Alpha  occ. eigenvalues --   -0.65036  -0.64588  -0.64256  -0.63412  -0.63068
 Alpha  occ. eigenvalues --   -0.62965  -0.61804  -0.61531  -0.61466  -0.61158
 Alpha  occ. eigenvalues --   -0.61004  -0.60634  -0.60322  -0.60151  -0.59915
 Alpha  occ. eigenvalues --   -0.59810  -0.59326  -0.58842  -0.58625  -0.58351
 Alpha  occ. eigenvalues --   -0.57541  -0.57213  -0.56799  -0.56603  -0.56458
 Alpha  occ. eigenvalues --   -0.55771  -0.55500  -0.55042  -0.54833  -0.54781
 Alpha  occ. eigenvalues --   -0.53991  -0.53938  -0.53657  -0.53538  -0.53206
 Alpha  occ. eigenvalues --   -0.52551  -0.52034  -0.51896  -0.51857  -0.51706
 Alpha  occ. eigenvalues --   -0.51275  -0.51082  -0.51045  -0.50679  -0.50342
 Alpha  occ. eigenvalues --   -0.50225  -0.49992  -0.49689  -0.49307  -0.49043
 Alpha  occ. eigenvalues --   -0.48810  -0.48112  -0.48082  -0.47820  -0.47651
 Alpha  occ. eigenvalues --   -0.47605  -0.47489  -0.47210  -0.46688  -0.46424
 Alpha  occ. eigenvalues --   -0.45990  -0.45881  -0.45777  -0.45224  -0.44980
 Alpha  occ. eigenvalues --   -0.44505  -0.44415  -0.44233  -0.44186  -0.43879
 Alpha  occ. eigenvalues --   -0.43699  -0.43050  -0.42717  -0.42014  -0.41581
 Alpha  occ. eigenvalues --   -0.41269  -0.41139  -0.40571  -0.39230  -0.38711
 Alpha  occ. eigenvalues --   -0.37305  -0.36543  -0.34893  -0.34770  -0.34181
 Alpha  occ. eigenvalues --   -0.33265  -0.32579  -0.32375  -0.31896  -0.26488
 Alpha  occ. eigenvalues --   -0.21427
 Alpha virt. eigenvalues --   -0.08156  -0.02044  -0.00328   0.01408   0.01484
 Alpha virt. eigenvalues --    0.03071   0.03244   0.04114   0.04269   0.05483
 Alpha virt. eigenvalues --    0.06464   0.06831   0.07481   0.07767   0.08307

 Mulliken charges:
               1
     1  Mg   0.419697
     2  C   -0.063479
     3  C   -0.070784
     4  C   -0.056172
     5  C   -0.075913
     6  N   -0.278104
     7  C    0.141303
     8  C   -0.011051
     9  C    0.002357
    10  C    0.114884
    11  C   -0.051672
    12  C   -0.019765
    13  C   -0.000156
    14  C    0.465383
    15  O   -0.516182
    16  O   -0.260538
    17  N   -0.330843
    18  C    0.116727
    19  C    0.009022
    20  C   -0.047348
    21  C    0.112415
    22  C   -0.050099
    23  C    0.341441
    24  O   -0.532374
    25  C   -0.031703
    26  N   -0.244400
    27  C    0.132107
    28  C    0.009011
    29  C   -0.005880
    30  C    0.130280
    31  C   -0.046984
    32  C   -0.028156
    33  C   -0.058058
    34  N   -0.317057
    35  C    0.099875
    36  C    0.030796
    37  C   -0.043378
    38  C    0.106091
    39  C   -0.044733
    40  C    0.334506
    41  O   -0.505278
    42  C    0.075251
    43  C    0.498690
    44  O   -0.526530
    45  O   -0.278445
    46  C    0.076256
    47  C    0.108644
    48  C   -0.073479
    49  C   -0.030611
    50  C   -0.043663
    51  C   -0.018327
    52  C   -0.036835
    53  C   -0.035625
    54  C   -0.005776
    55  C   -0.064309
    56  C   -0.038542
    57  C   -0.040926
    58  C   -0.028812
    59  C   -0.019536
    60  C   -0.062570
    61  C   -0.037741
    62  C   -0.048165
    63  C   -0.050427
    64  C   -0.006614
    65  C   -0.058677
    66  C   -0.057383
    67  H    0.028159
    68  H    0.047834
    69  H    0.029825
    70  H    0.063371
    71  H    0.028728
    72  H    0.003767
    73  H    0.037046
    74  H    0.028584
    75  H    0.026987
    76  H    0.029657
    77  H    0.032316
    78  H    0.041599
    79  H    0.022855
    80  H    0.027787
    81  H    0.028606
    82  H    0.037198
    83  H    0.025789
    84  H    0.026162
    85  H    0.033435
    86  H    0.031563
    87  H    0.020485
    88  H    0.029215
    89  H    0.013415
    90  H    0.018624
    91  H    0.019265
    92  H    0.027205
    93  H    0.014243
    94  H    0.028491
    95  H    0.025233
    96  H    0.019149
    97  H    0.039228
    98  H    0.051734
    99  H    0.046197
   100  H    0.040824
   101  H    0.045342
   102  H    0.037107
   103  H    0.067999
   104  H    0.032826
   105  H    0.023853
   106  H    0.036967
   107  H    0.015025
   108  H    0.029006
   109  H    0.021023
   110  H    0.019167
   111  H    0.009750
   112  H    0.016755
   113  H    0.018841
   114  H    0.023672
   115  H    0.012237
   116  H    0.027019
   117  H    0.017540
   118  H    0.017535
   119  H    0.015854
   120  H    0.020692
   121  H    0.016112
   122  H    0.016447
   123  H    0.007495
   124  H    0.010151
   125  H    0.005235
   126  H    0.026451
   127  H    0.031660
   128  H    0.031264
   129  H    0.038449
   130  H    0.021922
   131  H    0.022454
   132  H    0.020203
   133  H    0.007354
   134  H    0.023771
   135  H    0.017991
   136  H    0.023412
   137  H    0.016403
   138  H    0.026355
   139  H    0.011792
   140  H    0.020663
 Sum of Mulliken charges =  -0.00000

 Dipole moment (field-independent basis, Debye):
    X=             -7.2791    Y=              1.0115    Z=              6.4305  Tot=              9.7652
 N-N= 4.318699002210D+03 E-N= 0.000000000000D+00  KE=-9.312089449286D+03
 Leave Link  601 at Wed May  4 14:56:51 2022, MaxMem=  6710886400 cpu:               0.8 elap:               0.0
 (Enter /sw/apps/gaussian-16.0/g16/l9999.exe)
 1\1\GINC-BP1-COMPUTE098\SP\RZINDO CIS\STO-3G\C55H74Mg1N4O6\OF15641\04-
 May-2022\0\\#p ZINDO=(nstates=5)\\step_1801_chromophore_18 ZINDO\\0,1\
 Mg,0,34.049,48.501,25.332\C,0,34.423,47.173,28.646\C,0,32.715,51.425,2
 6.816\C,0,33.532,49.741,22.216\C,0,35.243,45.613,24.038\N,0,33.61,49.2
 03,27.434\C,0,33.899,48.508,28.556\C,0,33.708,49.343,29.847\C,0,33.074
 ,50.7,29.278\C,0,33.154,50.479,27.759\C,0,31.661,50.978,29.765\C,0,35.
 072,49.574,30.624\C,0,35.009,49.439,32.16\C,0,33.593,49.423,32.84\O,0,

 Normal termination of Gaussian 16 at Wed May  4 14:56:52 2022.
