 Gaussian 16, Revision A.03,
 Gaussian 16:  ES64L-G16RevA.03 25-Dec-2016

 ------------------------------
 #p blyp/Def2SVP td=(nstates=5)
 ------------------------------

 -------------------------------------------------
 step_451_chromophore_3 TDDFT with blyp functional
 -------------------------------------------------
 Symbolic Z-matrix:
 Charge =  0 Multiplicity = 1

                         Standard orientation:
 ---------------------------------------------------------------------
 Center     Atomic      Atomic             Coordinates (Angstroms)
 Number     Number       Type             X           Y           Z
 ---------------------------------------------------------------------
      1         12           0        5.255711    0.904828    0.339167
      2          6           0        4.473445   -2.438574    0.008901
      3          6           0        1.892416    1.752984   -0.301094
      4          6           0        6.095668    4.211152   -0.336098
      5          6           0        8.694530    0.147419    0.393337
      6          7           0        3.374651   -0.245991    0.017796
      7          6           0        3.326262   -1.622708    0.100564
      8          6           0        1.880757   -2.066559    0.147396
      9          6           0        1.066052   -0.707488   -0.239266
     10          6           0        2.139459    0.349865   -0.176031
     11          6           0        0.222117   -0.639325   -1.548921
     12          6           0        1.605067   -2.638937    1.555420
     13          6           0        0.244401   -3.348483    1.751465
     14          6           0       -0.549258   -3.473899    0.465142
     15          8           0       -0.415134   -4.263104   -0.435513
     16          8           0       -1.518597   -2.499331    0.507347
     17          7           0        4.143194    2.769961   -0.186179
     18          6           0        2.812303    2.830243   -0.386808
     19          6           0        2.504510    4.212020   -0.697019
     20          6           0        3.661375    5.010460   -0.559733
     21          6           0        4.712550    4.004389   -0.302401
     22          6           0        1.057627    4.626740   -1.026678
     23          6           0        3.912172    6.519689   -0.553395
     24          8           0        5.000917    7.022795   -0.385413
     25          6           0        2.894462    7.393492   -1.059944
     26          7           0        7.087868    2.014445    0.094376
     27          6           0        7.168385    3.326701   -0.046447
     28          6           0        8.615351    3.819370    0.283010
     29          6           0        9.470890    2.573436    0.455329
     30          6           0        8.366099    1.514787    0.392700
     31          6           0        9.204264    4.792467   -0.779791
     32          6           0       10.220586    2.395126    1.794257
     33          6           0       11.686028    1.837534    1.651013
     34          7           0        6.349090   -0.724340    0.239181
     35          6           0        7.746856   -0.881160    0.231521
     36          6           0        8.077222   -2.323726    0.212910
     37          6           0        6.803995   -2.970666    0.145463
     38          6           0        5.790301   -1.923961    0.143795
     39          6           0        9.419924   -2.985105    0.157992
     40          6           0        6.141960   -4.298579    0.075668
     41          8           0        6.629313   -5.432909   -0.046644
     42          6           0        4.588090   -3.915510   -0.024095
     43          6           0        3.878477   -4.836519   -1.018027
     44          8           0        3.806838   -4.611188   -2.175362
     45          8           0        3.323353   -5.873825   -0.337570
     46          6           0        2.600918   -6.810456   -1.174188
     47          6           0       -2.471482   -2.357849   -0.555334
     48          6           0       -3.895592   -2.371834    0.021495
     49          6           0       -4.811682   -3.276071   -0.248708
     50          6           0       -4.614568   -4.590267   -0.966414
     51          6           0       -6.275078   -3.012039    0.186528
     52          6           0       -6.947668   -1.792697   -0.277474
     53          6           0       -8.399315   -1.711346   -0.511928
     54          6           0       -9.243564   -0.522282    0.183094
     55          6           0      -10.147305    0.130305   -0.778384
     56          6           0      -10.130697   -1.077407    1.330069
     57          6           0      -10.128554   -0.071874    2.504271
     58          6           0      -11.497567    0.491543    2.838684
     59          6           0      -11.772100    1.804556    2.066098
     60          6           0      -11.219943    2.943226    2.938485
     61          6           0      -13.313511    1.929501    1.827181
     62          6           0      -13.660341    2.644590    0.512710
     63          6           0      -14.114703    1.683669   -0.568491
     64          6           0      -13.437205    1.911974   -1.932495
     65          6           0      -13.765201    3.225792   -2.614059
     66          6           0      -13.768009    0.845700   -2.990135
     67          1           0        0.821071    1.954468   -0.350789
     68          1           0        6.402084    5.248153   -0.488360
     69          1           0        9.713458   -0.244365    0.371170
     70          1           0        1.738444   -2.745500   -0.693646
     71          1           0        0.362211   -0.373544    0.523313
     72          1           0        0.021314   -1.638012   -1.934268
     73          1           0        0.780395   -0.054601   -2.280892
     74          1           0       -0.773385   -0.221061   -1.403826
     75          1           0        1.644910   -1.749643    2.184517
     76          1           0        2.380994   -3.346435    1.851204
     77          1           0       -0.350932   -2.933987    2.564781
     78          1           0        0.528370   -4.375285    1.982624
     79          1           0        0.563706    5.125627   -0.191897
     80          1           0        0.597194    3.671357   -1.278601
     81          1           0        1.001711    5.226971   -1.934815
     82          1           0        2.174539    7.765115   -0.331841
     83          1           0        2.232571    6.977135   -1.819023
     84          1           0        3.476634    8.223557   -1.460811
     85          1           0        8.524996    4.544983    1.091745
     86          1           0       10.142325    2.541917   -0.403446
     87          1           0        9.071468    5.732534   -0.243645
     88          1           0        8.692892    4.764704   -1.741455
     89          1           0       10.262245    4.642405   -0.998732
     90          1           0        9.557143    1.783772    2.404137
     91          1           0       10.241602    3.326929    2.359295
     92          1           0       12.020547    1.895518    0.614275
     93          1           0       11.766421    0.795016    1.955835
     94          1           0       12.321428    2.335461    2.382495
     95          1           0       10.185471   -2.234308    0.354995
     96          1           0        9.619194   -3.471343   -0.797189
     97          1           0        9.565509   -3.604852    1.042856
     98          1           0        4.228484   -4.289896    0.934833
     99          1           0        3.052323   -7.770827   -1.420098
    100          1           0        2.305394   -6.338354   -2.111757
    101          1           0        1.673692   -7.033306   -0.645732
    102          1           0       -2.372931   -2.994263   -1.435388
    103          1           0       -2.276376   -1.324905   -0.843889
    104          1           0       -4.026058   -1.613112    0.792337
    105          1           0       -5.217180   -4.553426   -1.873300
    106          1           0       -4.997306   -5.427085   -0.381902
    107          1           0       -3.612693   -4.912440   -1.250932
    108          1           0       -6.286145   -3.201078    1.260313
    109          1           0       -6.983139   -3.802046   -0.064363
    110          1           0       -6.588713   -1.398784   -1.228387
    111          1           0       -6.608631   -1.048351    0.442639
    112          1           0       -8.850132   -2.664591   -0.234966
    113          1           0       -8.478709   -1.665930   -1.597343
    114          1           0       -8.508019    0.233701    0.459481
    115          1           0      -11.191566    0.152301   -0.465876
    116          1           0      -10.146144   -0.398015   -1.731847
    117          1           0       -9.810585    1.149566   -0.968434
    118          1           0       -9.814175   -2.064851    1.666243
    119          1           0      -11.154810   -1.241198    0.996986
    120          1           0       -9.448178    0.755880    2.306432
    121          1           0       -9.834610   -0.641503    3.385876
    122          1           0      -11.314413    0.575586    3.909434
    123          1           0      -12.263217   -0.258385    2.636560
    124          1           0      -11.199717    1.868540    1.141377
    125          1           0      -11.905890    3.788972    2.888500
    126          1           0      -10.191820    3.115708    2.620073
    127          1           0      -11.290792    2.633461    3.981653
    128          1           0      -13.726121    2.623101    2.559838
    129          1           0      -13.829039    0.984689    2.003592
    130          1           0      -12.761201    3.225168    0.305805
    131          1           0      -14.493406    3.250982    0.866686
    132          1           0      -15.203935    1.669048   -0.610388
    133          1           0      -13.783726    0.703471   -0.225715
    134          1           0      -12.359714    1.871403   -1.773410
    135          1           0      -14.649572    3.667699   -2.156554
    136          1           0      -14.016725    3.231482   -3.674059
    137          1           0      -12.961032    3.947798   -2.470164
    138          1           0      -12.863553    0.393951   -3.397194
    139          1           0      -14.316914    1.233756   -3.848435
    140          1           0      -14.442268    0.126950   -2.526348
 ---------------------------------------------------------------------

 SCF Done:  E(RB-LYP) =  -3007.33768041     A.U. after   22 cycles

 Excitation energies and oscillator strengths:

 Excited State   1:      Singlet-A      1.7712 eV  700.00 nm  f=0.2858  <S**2>=0.000
     245 -> 248       -0.19801
     246 -> 247        0.68527
     246 <- 247       -0.14421
 This state for optimization and/or second-order correction.
 Total Energy, E(TD-HF/TD-DFT) =  -3007.27259017
 Copying the excited state density for this state as the 1-particle RhoCI density.

 Excited State   2:      Singlet-A      1.9659 eV  630.66 nm  f=0.0500  <S**2>=0.000
     244 -> 247        0.34082
     245 -> 247        0.56681
     246 -> 248        0.21748

 Excited State   3:      Singlet-A      2.0066 eV  617.87 nm  f=0.0176  <S**2>=0.000
     244 -> 247        0.61818
     245 -> 247       -0.30502
     246 -> 248       -0.13063

 Excited State   4:      Singlet-A      2.1925 eV  565.49 nm  f=0.0010  <S**2>=0.000
     243 -> 247        0.70070

 Excited State   5:      Singlet-A      2.5834 eV  479.92 nm  f=0.0017  <S**2>=0.000
     241 -> 247        0.10291
     242 -> 247        0.67026

 The electronic state is 1-A.
 Alpha  occ. eigenvalues --  -46.27166 -18.82155 -18.81808 -18.77678 -18.76151
 Alpha  occ. eigenvalues --  -18.75685 -18.75632 -14.03192 -14.03028 -14.01005
 Alpha  occ. eigenvalues --  -14.00688 -10.04485 -10.03200  -9.99718  -9.99716
 Alpha  occ. eigenvalues --   -9.97809  -9.96788  -9.96489  -9.96297  -9.96189
 Alpha  occ. eigenvalues --   -9.96101  -9.95548  -9.95473  -9.95290  -9.94647
 Alpha  occ. eigenvalues --   -9.94243  -9.94151  -9.94087  -9.93778  -9.93643
 Alpha  occ. eigenvalues --   -9.93640  -9.93614  -9.93570  -9.93295  -9.93240
 Alpha  occ. eigenvalues --   -9.93157  -9.93139  -9.92934  -9.92760  -9.92677
 Alpha  occ. eigenvalues --   -9.92483  -9.92451  -9.92379  -9.92293  -9.92272
 Alpha  occ. eigenvalues --   -9.92092  -9.92059  -9.91799  -9.91736  -9.91714
 Alpha  occ. eigenvalues --   -9.91598  -9.91574  -9.91316  -9.91143  -9.91128
 Alpha  occ. eigenvalues --   -9.91050  -9.91041  -9.90920  -9.90887  -9.90871
 Alpha  occ. eigenvalues --   -9.90827  -9.90670  -9.90523  -9.90508  -9.90297
 Alpha  occ. eigenvalues --   -9.90207  -2.91814  -1.72223  -1.71673  -1.71558
 Alpha  occ. eigenvalues --   -0.98668  -0.98375  -0.92734  -0.91314  -0.90960
 Alpha  occ. eigenvalues --   -0.89899  -0.86240  -0.85422  -0.85370  -0.84368
 Alpha  occ. eigenvalues --   -0.74830  -0.74483  -0.73728  -0.72937  -0.72594
 Alpha  occ. eigenvalues --   -0.72497  -0.71424  -0.71229  -0.70521  -0.70011
 Alpha  occ. eigenvalues --   -0.69628  -0.69497  -0.68691  -0.67671  -0.67120
 Alpha  occ. eigenvalues --   -0.66918  -0.66096  -0.65684  -0.65026  -0.64794
 Alpha  occ. eigenvalues --   -0.64358  -0.62532  -0.62232  -0.61604  -0.61232
 Alpha  occ. eigenvalues --   -0.60159  -0.59643  -0.59481  -0.59423  -0.59333
 Alpha  occ. eigenvalues --   -0.59175  -0.57201  -0.56676  -0.55561  -0.54714
 Alpha  occ. eigenvalues --   -0.54155  -0.53334  -0.52548  -0.52395  -0.51462
 Alpha  occ. eigenvalues --   -0.51174  -0.50867  -0.50450  -0.50205  -0.50167
 Alpha  occ. eigenvalues --   -0.49766  -0.49669  -0.48826  -0.48193  -0.46992
 Alpha  occ. eigenvalues --   -0.46382  -0.45884  -0.45642  -0.44908  -0.44486
 Alpha  occ. eigenvalues --   -0.43827  -0.43464  -0.43170  -0.42615  -0.42260
 Alpha  occ. eigenvalues --   -0.42190  -0.42014  -0.41776  -0.41723  -0.41282
 Alpha  occ. eigenvalues --   -0.41151  -0.40821  -0.40592  -0.40395  -0.40188
 Alpha  occ. eigenvalues --   -0.39901  -0.39785  -0.39609  -0.39476  -0.39375
 Alpha  occ. eigenvalues --   -0.39119  -0.38815  -0.38591  -0.38491  -0.38217
 Alpha  occ. eigenvalues --   -0.38076  -0.38005  -0.37737  -0.37542  -0.37409
 Alpha  occ. eigenvalues --   -0.37378  -0.37098  -0.36856  -0.36702  -0.36544
 Alpha  occ. eigenvalues --   -0.36407  -0.36305  -0.36184  -0.35795  -0.35617
 Alpha  occ. eigenvalues --   -0.35545  -0.35304  -0.35162  -0.34905  -0.34739
 Alpha  occ. eigenvalues --   -0.34505  -0.34478  -0.34385  -0.34088  -0.33678
 Alpha  occ. eigenvalues --   -0.33647  -0.33556  -0.33410  -0.33371  -0.33163
 Alpha  occ. eigenvalues --   -0.32956  -0.32689  -0.32586  -0.32573  -0.32265
 Alpha  occ. eigenvalues --   -0.32050  -0.31821  -0.31740  -0.31618  -0.31435
 Alpha  occ. eigenvalues --   -0.31273  -0.31118  -0.30923  -0.30631  -0.30601
 Alpha  occ. eigenvalues --   -0.30530  -0.30390  -0.30027  -0.29961  -0.29764
 Alpha  occ. eigenvalues --   -0.29695  -0.29329  -0.29288  -0.29168  -0.28940
 Alpha  occ. eigenvalues --   -0.28717  -0.28259  -0.28182  -0.28064  -0.27935
 Alpha  occ. eigenvalues --   -0.27364  -0.26911  -0.26848  -0.26502  -0.26002
 Alpha  occ. eigenvalues --   -0.25958  -0.25592  -0.25513  -0.25305  -0.25104
 Alpha  occ. eigenvalues --   -0.24836  -0.24824  -0.23884  -0.23592  -0.23258
 Alpha  occ. eigenvalues --   -0.23048  -0.22978  -0.22152  -0.21249  -0.21100
 Alpha  occ. eigenvalues --   -0.20607  -0.20261  -0.19138  -0.18438  -0.16927
 Alpha  occ. eigenvalues --   -0.15453
 Alpha virt. eigenvalues --   -0.11207  -0.06794  -0.06246  -0.04698  -0.03158
 Alpha virt. eigenvalues --   -0.02998  -0.02238  -0.01229  -0.01004   0.00009
 Alpha virt. eigenvalues --    0.01332   0.02011   0.02197   0.02405   0.02571

 Mulliken charges:
               1
     1  Mg   0.704199
     2  C    0.119124
     3  C   -0.067583
     4  C   -0.044942
     5  C   -0.068347
     6  N   -0.232211
     7  C   -0.095002
     8  C    0.038002
     9  C   -0.019100
    10  C   -0.012211
    11  C    0.115493
    12  C    0.094065
    13  C    0.210542
    14  C    0.037717
    15  O   -0.169917
    16  O   -0.282901
    17  N   -0.225187
    18  C    0.150981
    19  C   -0.154688
    20  C    0.022025
    21  C    0.068849
    22  C    0.147546
    23  C   -0.039586
    24  O   -0.152674
    25  C    0.122306
    26  N   -0.200785
    27  C    0.033815
    28  C   -0.032656
    29  C    0.078654
    30  C    0.025866
    31  C    0.098158
    32  C    0.099221
    33  C    0.072878
    34  N   -0.311163
    35  C    0.113854
    36  C   -0.190208
    37  C    0.045277
    38  C    0.054994
    39  C    0.195271
    40  C   -0.016564
    41  O   -0.143613
    42  C   -0.018605
    43  C    0.095354
    44  O   -0.133014
    45  O   -0.255980
    46  C    0.202662
    47  C    0.328509
    48  C   -0.111362
    49  C   -0.096548
    50  C    0.136658
    51  C    0.131799
    52  C    0.084513
    53  C    0.109816
    54  C   -0.083855
    55  C    0.099716
    56  C    0.127481
    57  C    0.063242
    58  C    0.101393
    59  C   -0.104759
    60  C    0.128580
    61  C    0.080796
    62  C    0.101118
    63  C    0.136718
    64  C   -0.121797
    65  C    0.108826
    66  C    0.112638
    67  H   -0.060773
    68  H   -0.047853
    69  H   -0.057594
    70  H   -0.000478
    71  H   -0.025982
    72  H    0.007853
    73  H   -0.001620
    74  H   -0.005468
    75  H   -0.022372
    76  H   -0.005965
    77  H   -0.003780
    78  H   -0.015173
    79  H    0.012667
    80  H   -0.016624
    81  H    0.002187
    82  H    0.002906
    83  H   -0.013393
    84  H    0.005733
    85  H   -0.015773
    86  H   -0.021532
    87  H   -0.002504
    88  H    0.000288
    89  H   -0.011428
    90  H   -0.022715
    91  H   -0.029593
    92  H   -0.000919
    93  H   -0.008226
    94  H   -0.007657
    95  H   -0.046487
    96  H    0.030660
    97  H    0.002312
    98  H    0.006966
    99  H    0.018290
   100  H    0.016270
   101  H    0.006404
   102  H    0.004515
   103  H   -0.039474
   104  H   -0.035294
   105  H   -0.005413
   106  H   -0.001611
   107  H   -0.000894
   108  H   -0.022680
   109  H   -0.062517
   110  H   -0.037728
   111  H   -0.036602
   112  H   -0.042685
   113  H   -0.043730
   114  H   -0.032525
   115  H    0.003899
   116  H   -0.027586
   117  H   -0.011768
   118  H   -0.040302
   119  H   -0.037629
   120  H   -0.032669
   121  H   -0.045682
   122  H   -0.030512
   123  H   -0.037563
   124  H   -0.029014
   125  H   -0.021536
   126  H   -0.007859
   127  H   -0.024198
   128  H   -0.053321
   129  H   -0.035531
   130  H   -0.027046
   131  H   -0.040539
   132  H   -0.033582
   133  H   -0.032306
   134  H   -0.027378
   135  H   -0.029008
   136  H   -0.015048
   137  H   -0.023533
   138  H   -0.011244
   139  H   -0.024460
   140  H   -0.029971
 Sum of Mulliken charges =  -0.00000

 Dipole moment (field-independent basis, Debye):
    X=             -4.3800    Y=              2.5341    Z=              3.1873  Tot=              5.9804
 Quadrupole moment (field-independent basis, Debye-Ang):
   XX=           -383.7645   YY=           -436.6695   ZZ=           -405.4837
   XY=             24.1684   XZ=             14.3736   YZ=             -7.0479

 Normal termination of Gaussian 16 at Wed May  4 23:00:55 2022.
