 Gaussian 16, Revision A.03,
 Gaussian 16:  ES64L-G16RevA.03 25-Dec-2016

 -----------------------------------
 #p cam-b3lyp/Def2SVP td=(nstates=5)
 -----------------------------------

 ------------------------------------------------------
 step_451_chromophore_3 TDDFT with cam-b3lyp functional
 ------------------------------------------------------
 Symbolic Z-matrix:
 Charge =  0 Multiplicity = 1

                         Standard orientation:
 ---------------------------------------------------------------------
 Center     Atomic      Atomic             Coordinates (Angstroms)
 Number     Number       Type             X           Y           Z
 ---------------------------------------------------------------------
      1         12           0        5.255711    0.904828    0.339167
      2          6           0        4.473445   -2.438574    0.008901
      3          6           0        1.892416    1.752984   -0.301094
      4          6           0        6.095668    4.211152   -0.336098
      5          6           0        8.694530    0.147419    0.393337
      6          7           0        3.374651   -0.245991    0.017796
      7          6           0        3.326262   -1.622708    0.100564
      8          6           0        1.880757   -2.066559    0.147396
      9          6           0        1.066052   -0.707488   -0.239266
     10          6           0        2.139459    0.349865   -0.176031
     11          6           0        0.222117   -0.639325   -1.548921
     12          6           0        1.605067   -2.638937    1.555420
     13          6           0        0.244401   -3.348483    1.751465
     14          6           0       -0.549258   -3.473899    0.465142
     15          8           0       -0.415134   -4.263104   -0.435513
     16          8           0       -1.518597   -2.499331    0.507347
     17          7           0        4.143194    2.769961   -0.186179
     18          6           0        2.812303    2.830243   -0.386808
     19          6           0        2.504510    4.212020   -0.697019
     20          6           0        3.661375    5.010460   -0.559733
     21          6           0        4.712550    4.004389   -0.302401
     22          6           0        1.057627    4.626740   -1.026678
     23          6           0        3.912172    6.519689   -0.553395
     24          8           0        5.000917    7.022795   -0.385413
     25          6           0        2.894462    7.393492   -1.059944
     26          7           0        7.087868    2.014445    0.094376
     27          6           0        7.168385    3.326701   -0.046447
     28          6           0        8.615351    3.819370    0.283010
     29          6           0        9.470890    2.573436    0.455329
     30          6           0        8.366099    1.514787    0.392700
     31          6           0        9.204264    4.792467   -0.779791
     32          6           0       10.220586    2.395126    1.794257
     33          6           0       11.686028    1.837534    1.651013
     34          7           0        6.349090   -0.724340    0.239181
     35          6           0        7.746856   -0.881160    0.231521
     36          6           0        8.077222   -2.323726    0.212910
     37          6           0        6.803995   -2.970666    0.145463
     38          6           0        5.790301   -1.923961    0.143795
     39          6           0        9.419924   -2.985105    0.157992
     40          6           0        6.141960   -4.298579    0.075668
     41          8           0        6.629313   -5.432909   -0.046644
     42          6           0        4.588090   -3.915510   -0.024095
     43          6           0        3.878477   -4.836519   -1.018027
     44          8           0        3.806838   -4.611188   -2.175362
     45          8           0        3.323353   -5.873825   -0.337570
     46          6           0        2.600918   -6.810456   -1.174188
     47          6           0       -2.471482   -2.357849   -0.555334
     48          6           0       -3.895592   -2.371834    0.021495
     49          6           0       -4.811682   -3.276071   -0.248708
     50          6           0       -4.614568   -4.590267   -0.966414
     51          6           0       -6.275078   -3.012039    0.186528
     52          6           0       -6.947668   -1.792697   -0.277474
     53          6           0       -8.399315   -1.711346   -0.511928
     54          6           0       -9.243564   -0.522282    0.183094
     55          6           0      -10.147305    0.130305   -0.778384
     56          6           0      -10.130697   -1.077407    1.330069
     57          6           0      -10.128554   -0.071874    2.504271
     58          6           0      -11.497567    0.491543    2.838684
     59          6           0      -11.772100    1.804556    2.066098
     60          6           0      -11.219943    2.943226    2.938485
     61          6           0      -13.313511    1.929501    1.827181
     62          6           0      -13.660341    2.644590    0.512710
     63          6           0      -14.114703    1.683669   -0.568491
     64          6           0      -13.437205    1.911974   -1.932495
     65          6           0      -13.765201    3.225792   -2.614059
     66          6           0      -13.768009    0.845700   -2.990135
     67          1           0        0.821071    1.954468   -0.350789
     68          1           0        6.402084    5.248153   -0.488360
     69          1           0        9.713458   -0.244365    0.371170
     70          1           0        1.738444   -2.745500   -0.693646
     71          1           0        0.362211   -0.373544    0.523313
     72          1           0        0.021314   -1.638012   -1.934268
     73          1           0        0.780395   -0.054601   -2.280892
     74          1           0       -0.773385   -0.221061   -1.403826
     75          1           0        1.644910   -1.749643    2.184517
     76          1           0        2.380994   -3.346435    1.851204
     77          1           0       -0.350932   -2.933987    2.564781
     78          1           0        0.528370   -4.375285    1.982624
     79          1           0        0.563706    5.125627   -0.191897
     80          1           0        0.597194    3.671357   -1.278601
     81          1           0        1.001711    5.226971   -1.934815
     82          1           0        2.174539    7.765115   -0.331841
     83          1           0        2.232571    6.977135   -1.819023
     84          1           0        3.476634    8.223557   -1.460811
     85          1           0        8.524996    4.544983    1.091745
     86          1           0       10.142325    2.541917   -0.403446
     87          1           0        9.071468    5.732534   -0.243645
     88          1           0        8.692892    4.764704   -1.741455
     89          1           0       10.262245    4.642405   -0.998732
     90          1           0        9.557143    1.783772    2.404137
     91          1           0       10.241602    3.326929    2.359295
     92          1           0       12.020547    1.895518    0.614275
     93          1           0       11.766421    0.795016    1.955835
     94          1           0       12.321428    2.335461    2.382495
     95          1           0       10.185471   -2.234308    0.354995
     96          1           0        9.619194   -3.471343   -0.797189
     97          1           0        9.565509   -3.604852    1.042856
     98          1           0        4.228484   -4.289896    0.934833
     99          1           0        3.052323   -7.770827   -1.420098
    100          1           0        2.305394   -6.338354   -2.111757
    101          1           0        1.673692   -7.033306   -0.645732
    102          1           0       -2.372931   -2.994263   -1.435388
    103          1           0       -2.276376   -1.324905   -0.843889
    104          1           0       -4.026058   -1.613112    0.792337
    105          1           0       -5.217180   -4.553426   -1.873300
    106          1           0       -4.997306   -5.427085   -0.381902
    107          1           0       -3.612693   -4.912440   -1.250932
    108          1           0       -6.286145   -3.201078    1.260313
    109          1           0       -6.983139   -3.802046   -0.064363
    110          1           0       -6.588713   -1.398784   -1.228387
    111          1           0       -6.608631   -1.048351    0.442639
    112          1           0       -8.850132   -2.664591   -0.234966
    113          1           0       -8.478709   -1.665930   -1.597343
    114          1           0       -8.508019    0.233701    0.459481
    115          1           0      -11.191566    0.152301   -0.465876
    116          1           0      -10.146144   -0.398015   -1.731847
    117          1           0       -9.810585    1.149566   -0.968434
    118          1           0       -9.814175   -2.064851    1.666243
    119          1           0      -11.154810   -1.241198    0.996986
    120          1           0       -9.448178    0.755880    2.306432
    121          1           0       -9.834610   -0.641503    3.385876
    122          1           0      -11.314413    0.575586    3.909434
    123          1           0      -12.263217   -0.258385    2.636560
    124          1           0      -11.199717    1.868540    1.141377
    125          1           0      -11.905890    3.788972    2.888500
    126          1           0      -10.191820    3.115708    2.620073
    127          1           0      -11.290792    2.633461    3.981653
    128          1           0      -13.726121    2.623101    2.559838
    129          1           0      -13.829039    0.984689    2.003592
    130          1           0      -12.761201    3.225168    0.305805
    131          1           0      -14.493406    3.250982    0.866686
    132          1           0      -15.203935    1.669048   -0.610388
    133          1           0      -13.783726    0.703471   -0.225715
    134          1           0      -12.359714    1.871403   -1.773410
    135          1           0      -14.649572    3.667699   -2.156554
    136          1           0      -14.016725    3.231482   -3.674059
    137          1           0      -12.961032    3.947798   -2.470164
    138          1           0      -12.863553    0.393951   -3.397194
    139          1           0      -14.316914    1.233756   -3.848435
    140          1           0      -14.442268    0.126950   -2.526348
 ---------------------------------------------------------------------

 SCF Done:  E(RCAM-B3LYP) =  -3007.14167701     A.U. after   18 cycles

 Excitation energies and oscillator strengths:

 Excited State   1:      Singlet-A      1.7013 eV  728.77 nm  f=0.3602  <S**2>=0.000
     245 -> 248        0.18341
     246 -> 247        0.68386
     245 <- 248        0.10794
 This state for optimization and/or second-order correction.
 Total Energy, E(TD-HF/TD-DFT) =  -3007.07915576
 Copying the excited state density for this state as the 1-particle RhoCI density.

 Excited State   2:      Singlet-A      2.2295 eV  556.10 nm  f=0.0821  <S**2>=0.000
     245 -> 247        0.62594
     246 -> 248       -0.31642

 Excited State   3:      Singlet-A      3.4111 eV  363.48 nm  f=0.5125  <S**2>=0.000
     241 -> 247        0.17362
     243 -> 247        0.28146
     245 -> 247        0.25219
     246 -> 248        0.55091

 Excited State   4:      Singlet-A      3.5222 eV  352.01 nm  f=0.0622  <S**2>=0.000
     242 -> 247        0.17099
     242 -> 249        0.15434
     242 -> 251        0.14717
     243 -> 247       -0.21842
     244 -> 247        0.53290
     244 -> 249        0.12498
     246 -> 248        0.17004

 Excited State   5:      Singlet-A      3.6099 eV  343.46 nm  f=0.1786  <S**2>=0.000
     241 -> 247        0.19386
     242 -> 247        0.40446
     242 -> 249        0.18264
     242 -> 251        0.15991
     243 -> 247        0.34207
     245 -> 247       -0.14611
     246 -> 248       -0.20341

 The electronic state is 1-A.
 Alpha  occ. eigenvalues --  -46.88765 -19.24965 -19.24557 -19.20656 -19.19315
 Alpha  occ. eigenvalues --  -19.19064 -19.18504 -14.42183 -14.41755 -14.39314
 Alpha  occ. eigenvalues --  -14.39270 -10.39780 -10.38380 -10.35259 -10.34901
 Alpha  occ. eigenvalues --  -10.31851 -10.31603 -10.30859 -10.30838 -10.30345
 Alpha  occ. eigenvalues --  -10.30136 -10.30116 -10.30012 -10.29253 -10.28838
 Alpha  occ. eigenvalues --  -10.28712 -10.28267 -10.28214 -10.27941 -10.27741
 Alpha  occ. eigenvalues --  -10.27710 -10.27625 -10.27530 -10.27405 -10.27338
 Alpha  occ. eigenvalues --  -10.27235 -10.27162 -10.27101 -10.27069 -10.26824
 Alpha  occ. eigenvalues --  -10.26273 -10.26172 -10.26086 -10.26073 -10.25831
 Alpha  occ. eigenvalues --  -10.25811 -10.25775 -10.25720 -10.25663 -10.25559
 Alpha  occ. eigenvalues --  -10.25450 -10.25309 -10.25280 -10.24801 -10.24800
 Alpha  occ. eigenvalues --  -10.24783 -10.24710 -10.24517 -10.24492 -10.24472
 Alpha  occ. eigenvalues --  -10.24457 -10.24364 -10.24178 -10.24075 -10.23890
 Alpha  occ. eigenvalues --  -10.23781  -3.17313  -1.92197  -1.91737  -1.91645
 Alpha  occ. eigenvalues --   -1.17135  -1.16820  -1.11592  -1.09191  -1.08785
 Alpha  occ. eigenvalues --   -1.07961  -1.04012  -1.03199  -1.02872  -1.01794
 Alpha  occ. eigenvalues --   -0.91742  -0.91365  -0.90578  -0.89650  -0.89242
 Alpha  occ. eigenvalues --   -0.89207  -0.88037  -0.87974  -0.87059  -0.86875
 Alpha  occ. eigenvalues --   -0.86126  -0.85838  -0.85021  -0.83860  -0.83280
 Alpha  occ. eigenvalues --   -0.82932  -0.82602  -0.81533  -0.80896  -0.80488
 Alpha  occ. eigenvalues --   -0.80199  -0.78115  -0.77997  -0.77157  -0.76587
 Alpha  occ. eigenvalues --   -0.75444  -0.74971  -0.74771  -0.74661  -0.74581
 Alpha  occ. eigenvalues --   -0.74292  -0.72129  -0.71595  -0.70326  -0.69269
 Alpha  occ. eigenvalues --   -0.68803  -0.68057  -0.66905  -0.66864  -0.65543
 Alpha  occ. eigenvalues --   -0.65312  -0.64766  -0.64502  -0.64339  -0.64205
 Alpha  occ. eigenvalues --   -0.63663  -0.63514  -0.62747  -0.61778  -0.60437
 Alpha  occ. eigenvalues --   -0.60232  -0.59514  -0.59025  -0.58304  -0.57910
 Alpha  occ. eigenvalues --   -0.57140  -0.56990  -0.56380  -0.55994  -0.55433
 Alpha  occ. eigenvalues --   -0.55280  -0.55110  -0.54526  -0.54503  -0.54234
 Alpha  occ. eigenvalues --   -0.54139  -0.53947  -0.53590  -0.53270  -0.52777
 Alpha  occ. eigenvalues --   -0.52583  -0.52538  -0.52388  -0.52255  -0.52112
 Alpha  occ. eigenvalues --   -0.51692  -0.51237  -0.51196  -0.50770  -0.50640
 Alpha  occ. eigenvalues --   -0.50393  -0.50267  -0.50128  -0.49924  -0.49734
 Alpha  occ. eigenvalues --   -0.49615  -0.49564  -0.49359  -0.49251  -0.48978
 Alpha  occ. eigenvalues --   -0.48866  -0.48469  -0.48364  -0.48240  -0.47873
 Alpha  occ. eigenvalues --   -0.47568  -0.47449  -0.47346  -0.46804  -0.46658
 Alpha  occ. eigenvalues --   -0.46485  -0.46375  -0.46248  -0.45997  -0.45389
 Alpha  occ. eigenvalues --   -0.45380  -0.45232  -0.45177  -0.45031  -0.44977
 Alpha  occ. eigenvalues --   -0.44651  -0.44510  -0.44268  -0.44052  -0.43902
 Alpha  occ. eigenvalues --   -0.43609  -0.43504  -0.43321  -0.43166  -0.42969
 Alpha  occ. eigenvalues --   -0.42651  -0.42469  -0.42286  -0.42119  -0.42060
 Alpha  occ. eigenvalues --   -0.41941  -0.41826  -0.41583  -0.41407  -0.41232
 Alpha  occ. eigenvalues --   -0.40902  -0.40864  -0.40501  -0.40412  -0.40115
 Alpha  occ. eigenvalues --   -0.39733  -0.39326  -0.39189  -0.38988  -0.38892
 Alpha  occ. eigenvalues --   -0.38226  -0.37918  -0.37684  -0.37268  -0.36886
 Alpha  occ. eigenvalues --   -0.36715  -0.36555  -0.36312  -0.36277  -0.36242
 Alpha  occ. eigenvalues --   -0.35950  -0.35678  -0.35053  -0.34350  -0.34009
 Alpha  occ. eigenvalues --   -0.33868  -0.33593  -0.32743  -0.32009  -0.30894
 Alpha  occ. eigenvalues --   -0.30795  -0.30182  -0.29922  -0.29351  -0.23724
 Alpha  occ. eigenvalues --   -0.20688
 Alpha virt. eigenvalues --   -0.08174  -0.01720   0.00179   0.01867   0.02279
 Alpha virt. eigenvalues --    0.04666   0.05398   0.06113   0.06905   0.07056
 Alpha virt. eigenvalues --    0.08231   0.08259   0.08554   0.08603   0.09076

 Mulliken charges:
               1
     1  Mg   0.834377
     2  C    0.091730
     3  C   -0.095443
     4  C   -0.061610
     5  C   -0.063853
     6  N   -0.306689
     7  C   -0.044392
     8  C   -0.027878
     9  C   -0.070585
    10  C    0.023158
    11  C    0.056252
    12  C    0.052972
    13  C    0.135861
    14  C    0.114801
    15  O   -0.209493
    16  O   -0.345160
    17  N   -0.312178
    18  C    0.164685
    19  C   -0.161898
    20  C   -0.042541
    21  C    0.096309
    22  C    0.096547
    23  C    0.046415
    24  O   -0.190765
    25  C    0.032304
    26  N   -0.269433
    27  C    0.057284
    28  C   -0.082140
    29  C    0.019615
    30  C    0.030367
    31  C    0.039691
    32  C    0.042921
    33  C    0.010207
    34  N   -0.402171
    35  C    0.110469
    36  C   -0.190037
    37  C   -0.032002
    38  C    0.086984
    39  C    0.144853
    40  C    0.086692
    41  O   -0.185102
    42  C   -0.095936
    43  C    0.180755
    44  O   -0.171478
    45  O   -0.319490
    46  C    0.164886
    47  C    0.285598
    48  C   -0.125363
    49  C   -0.121976
    50  C    0.073066
    51  C    0.073540
    52  C    0.028340
    53  C    0.057955
    54  C   -0.143473
    55  C    0.047771
    56  C    0.076193
    57  C    0.010565
    58  C    0.046534
    59  C   -0.160905
    60  C    0.072602
    61  C    0.028722
    62  C    0.043137
    63  C    0.081117
    64  C   -0.176479
    65  C    0.047101
    66  C    0.054368
    67  H   -0.025576
    68  H   -0.006450
    69  H   -0.023020
    70  H    0.034008
    71  H    0.010361
    72  H    0.031075
    73  H    0.026839
    74  H    0.015847
    75  H    0.007353
    76  H    0.023457
    77  H    0.031573
    78  H    0.019355
    79  H    0.040050
    80  H    0.011374
    81  H    0.028882
    82  H    0.034101
    83  H    0.016265
    84  H    0.040773
    85  H    0.018142
    86  H    0.011901
    87  H    0.020131
    88  H    0.025657
    89  H    0.014322
    90  H    0.008886
    91  H   -0.001093
    92  H    0.020624
    93  H    0.013897
    94  H    0.016903
    95  H   -0.022485
    96  H    0.055019
    97  H    0.028542
    98  H    0.047252
    99  H    0.038814
   100  H    0.042696
   101  H    0.028153
   102  H    0.035466
   103  H   -0.011249
   104  H   -0.001205
   105  H    0.018526
   106  H    0.022967
   107  H    0.024344
   108  H    0.008036
   109  H   -0.029931
   110  H   -0.006671
   111  H   -0.009933
   112  H   -0.015276
   113  H   -0.013458
   114  H   -0.000652
   115  H    0.017856
   116  H   -0.001791
   117  H    0.010503
   118  H   -0.010704
   119  H   -0.008968
   120  H   -0.007030
   121  H   -0.013563
   122  H   -0.001495
   123  H   -0.009595
   124  H   -0.001366
   125  H    0.002776
   126  H    0.015138
   127  H    0.000706
   128  H   -0.022224
   129  H   -0.006281
   130  H   -0.000201
   131  H   -0.009387
   132  H   -0.003870
   133  H   -0.006271
   134  H   -0.000157
   135  H   -0.004465
   136  H    0.010088
   137  H    0.000359
   138  H    0.011776
   139  H    0.000358
   140  H   -0.005056
 Sum of Mulliken charges =  -0.00000

 Dipole moment (field-independent basis, Debye):
    X=             -5.0213    Y=              3.6801    Z=              3.1951  Tot=              6.9975
 Quadrupole moment (field-independent basis, Debye-Ang):
   XX=           -386.8888   YY=           -431.2712   ZZ=           -405.2360
   XY=             28.8636   XZ=             14.8128   YZ=             -8.4253

 Normal termination of Gaussian 16 at Wed May  4 21:57:49 2022.
