 Gaussian 16, Revision A.03,
 Gaussian 16:  ES64L-G16RevA.03 25-Dec-2016

 ---------------------------------
 #p PBE1PBE/Def2SVP td=(nstates=5)
 ---------------------------------

 ----------------------------------------------------
 step_451_chromophore_3 TDDFT with PBE1PBE functional
 ----------------------------------------------------
 Symbolic Z-matrix:
 Charge =  0 Multiplicity = 1

                         Standard orientation:
 ---------------------------------------------------------------------
 Center     Atomic      Atomic             Coordinates (Angstroms)
 Number     Number       Type             X           Y           Z
 ---------------------------------------------------------------------
      1         12           0        5.255711    0.904828    0.339167
      2          6           0        4.473445   -2.438574    0.008901
      3          6           0        1.892416    1.752984   -0.301094
      4          6           0        6.095668    4.211152   -0.336098
      5          6           0        8.694530    0.147419    0.393337
      6          7           0        3.374651   -0.245991    0.017796
      7          6           0        3.326262   -1.622708    0.100564
      8          6           0        1.880757   -2.066559    0.147396
      9          6           0        1.066052   -0.707488   -0.239266
     10          6           0        2.139459    0.349865   -0.176031
     11          6           0        0.222117   -0.639325   -1.548921
     12          6           0        1.605067   -2.638937    1.555420
     13          6           0        0.244401   -3.348483    1.751465
     14          6           0       -0.549258   -3.473899    0.465142
     15          8           0       -0.415134   -4.263104   -0.435513
     16          8           0       -1.518597   -2.499331    0.507347
     17          7           0        4.143194    2.769961   -0.186179
     18          6           0        2.812303    2.830243   -0.386808
     19          6           0        2.504510    4.212020   -0.697019
     20          6           0        3.661375    5.010460   -0.559733
     21          6           0        4.712550    4.004389   -0.302401
     22          6           0        1.057627    4.626740   -1.026678
     23          6           0        3.912172    6.519689   -0.553395
     24          8           0        5.000917    7.022795   -0.385413
     25          6           0        2.894462    7.393492   -1.059944
     26          7           0        7.087868    2.014445    0.094376
     27          6           0        7.168385    3.326701   -0.046447
     28          6           0        8.615351    3.819370    0.283010
     29          6           0        9.470890    2.573436    0.455329
     30          6           0        8.366099    1.514787    0.392700
     31          6           0        9.204264    4.792467   -0.779791
     32          6           0       10.220586    2.395126    1.794257
     33          6           0       11.686028    1.837534    1.651013
     34          7           0        6.349090   -0.724340    0.239181
     35          6           0        7.746856   -0.881160    0.231521
     36          6           0        8.077222   -2.323726    0.212910
     37          6           0        6.803995   -2.970666    0.145463
     38          6           0        5.790301   -1.923961    0.143795
     39          6           0        9.419924   -2.985105    0.157992
     40          6           0        6.141960   -4.298579    0.075668
     41          8           0        6.629313   -5.432909   -0.046644
     42          6           0        4.588090   -3.915510   -0.024095
     43          6           0        3.878477   -4.836519   -1.018027
     44          8           0        3.806838   -4.611188   -2.175362
     45          8           0        3.323353   -5.873825   -0.337570
     46          6           0        2.600918   -6.810456   -1.174188
     47          6           0       -2.471482   -2.357849   -0.555334
     48          6           0       -3.895592   -2.371834    0.021495
     49          6           0       -4.811682   -3.276071   -0.248708
     50          6           0       -4.614568   -4.590267   -0.966414
     51          6           0       -6.275078   -3.012039    0.186528
     52          6           0       -6.947668   -1.792697   -0.277474
     53          6           0       -8.399315   -1.711346   -0.511928
     54          6           0       -9.243564   -0.522282    0.183094
     55          6           0      -10.147305    0.130305   -0.778384
     56          6           0      -10.130697   -1.077407    1.330069
     57          6           0      -10.128554   -0.071874    2.504271
     58          6           0      -11.497567    0.491543    2.838684
     59          6           0      -11.772100    1.804556    2.066098
     60          6           0      -11.219943    2.943226    2.938485
     61          6           0      -13.313511    1.929501    1.827181
     62          6           0      -13.660341    2.644590    0.512710
     63          6           0      -14.114703    1.683669   -0.568491
     64          6           0      -13.437205    1.911974   -1.932495
     65          6           0      -13.765201    3.225792   -2.614059
     66          6           0      -13.768009    0.845700   -2.990135
     67          1           0        0.821071    1.954468   -0.350789
     68          1           0        6.402084    5.248153   -0.488360
     69          1           0        9.713458   -0.244365    0.371170
     70          1           0        1.738444   -2.745500   -0.693646
     71          1           0        0.362211   -0.373544    0.523313
     72          1           0        0.021314   -1.638012   -1.934268
     73          1           0        0.780395   -0.054601   -2.280892
     74          1           0       -0.773385   -0.221061   -1.403826
     75          1           0        1.644910   -1.749643    2.184517
     76          1           0        2.380994   -3.346435    1.851204
     77          1           0       -0.350932   -2.933987    2.564781
     78          1           0        0.528370   -4.375285    1.982624
     79          1           0        0.563706    5.125627   -0.191897
     80          1           0        0.597194    3.671357   -1.278601
     81          1           0        1.001711    5.226971   -1.934815
     82          1           0        2.174539    7.765115   -0.331841
     83          1           0        2.232571    6.977135   -1.819023
     84          1           0        3.476634    8.223557   -1.460811
     85          1           0        8.524996    4.544983    1.091745
     86          1           0       10.142325    2.541917   -0.403446
     87          1           0        9.071468    5.732534   -0.243645
     88          1           0        8.692892    4.764704   -1.741455
     89          1           0       10.262245    4.642405   -0.998732
     90          1           0        9.557143    1.783772    2.404137
     91          1           0       10.241602    3.326929    2.359295
     92          1           0       12.020547    1.895518    0.614275
     93          1           0       11.766421    0.795016    1.955835
     94          1           0       12.321428    2.335461    2.382495
     95          1           0       10.185471   -2.234308    0.354995
     96          1           0        9.619194   -3.471343   -0.797189
     97          1           0        9.565509   -3.604852    1.042856
     98          1           0        4.228484   -4.289896    0.934833
     99          1           0        3.052323   -7.770827   -1.420098
    100          1           0        2.305394   -6.338354   -2.111757
    101          1           0        1.673692   -7.033306   -0.645732
    102          1           0       -2.372931   -2.994263   -1.435388
    103          1           0       -2.276376   -1.324905   -0.843889
    104          1           0       -4.026058   -1.613112    0.792337
    105          1           0       -5.217180   -4.553426   -1.873300
    106          1           0       -4.997306   -5.427085   -0.381902
    107          1           0       -3.612693   -4.912440   -1.250932
    108          1           0       -6.286145   -3.201078    1.260313
    109          1           0       -6.983139   -3.802046   -0.064363
    110          1           0       -6.588713   -1.398784   -1.228387
    111          1           0       -6.608631   -1.048351    0.442639
    112          1           0       -8.850132   -2.664591   -0.234966
    113          1           0       -8.478709   -1.665930   -1.597343
    114          1           0       -8.508019    0.233701    0.459481
    115          1           0      -11.191566    0.152301   -0.465876
    116          1           0      -10.146144   -0.398015   -1.731847
    117          1           0       -9.810585    1.149566   -0.968434
    118          1           0       -9.814175   -2.064851    1.666243
    119          1           0      -11.154810   -1.241198    0.996986
    120          1           0       -9.448178    0.755880    2.306432
    121          1           0       -9.834610   -0.641503    3.385876
    122          1           0      -11.314413    0.575586    3.909434
    123          1           0      -12.263217   -0.258385    2.636560
    124          1           0      -11.199717    1.868540    1.141377
    125          1           0      -11.905890    3.788972    2.888500
    126          1           0      -10.191820    3.115708    2.620073
    127          1           0      -11.290792    2.633461    3.981653
    128          1           0      -13.726121    2.623101    2.559838
    129          1           0      -13.829039    0.984689    2.003592
    130          1           0      -12.761201    3.225168    0.305805
    131          1           0      -14.493406    3.250982    0.866686
    132          1           0      -15.203935    1.669048   -0.610388
    133          1           0      -13.783726    0.703471   -0.225715
    134          1           0      -12.359714    1.871403   -1.773410
    135          1           0      -14.649572    3.667699   -2.156554
    136          1           0      -14.016725    3.231482   -3.674059
    137          1           0      -12.961032    3.947798   -2.470164
    138          1           0      -12.863553    0.393951   -3.397194
    139          1           0      -14.316914    1.233756   -3.848435
    140          1           0      -14.442268    0.126950   -2.526348
 ---------------------------------------------------------------------

 SCF Done:  E(RPBE1PBE) =  -3005.33116238     A.U. after   15 cycles

 Excitation energies and oscillator strengths:

 Excited State   1:      Singlet-A      1.8302 eV  677.44 nm  f=0.3518  <S**2>=0.000
     245 -> 248        0.17943
     246 -> 247        0.69063
     246 <- 247       -0.10166
 This state for optimization and/or second-order correction.
 Total Energy, E(TD-HF/TD-DFT) =  -3005.26390402
 Copying the excited state density for this state as the 1-particle RhoCI density.

 Excited State   2:      Singlet-A      2.2186 eV  558.84 nm  f=0.0856  <S**2>=0.000
     245 -> 247        0.64273
     246 -> 248       -0.28630

 Excited State   3:      Singlet-A      3.0291 eV  409.31 nm  f=0.0000  <S**2>=0.000
     242 -> 247       -0.14982
     243 -> 247        0.12914
     244 -> 247        0.64752
     244 -> 249        0.12598

 Excited State   4:      Singlet-A      3.1912 eV  388.52 nm  f=0.0315  <S**2>=0.000
     241 -> 247       -0.15355
     243 -> 247        0.62847
     244 -> 247       -0.15617
     246 -> 248        0.19823

 Excited State   5:      Singlet-A      3.2572 eV  380.65 nm  f=0.0076  <S**2>=0.000
     239 -> 247        0.19419
     240 -> 247       -0.14186
     241 -> 247        0.44691
     242 -> 247       -0.39872
     243 -> 247        0.10879
     244 -> 247       -0.11963
     246 -> 248       -0.13663

 The electronic state is 1-A.
 Alpha  occ. eigenvalues --  -46.92157 -19.25656 -19.25333 -19.20892 -19.19383
 Alpha  occ. eigenvalues --  -19.19268 -19.18978 -14.41626 -14.41387 -14.39048
 Alpha  occ. eigenvalues --  -14.38808 -10.36803 -10.35485 -10.32276 -10.32092
 Alpha  occ. eigenvalues --  -10.29266 -10.29125 -10.28706 -10.28413 -10.28200
 Alpha  occ. eigenvalues --  -10.27673 -10.27442 -10.27429 -10.27363 -10.26610
 Alpha  occ. eigenvalues --  -10.26203 -10.26126 -10.25994 -10.25676 -10.25591
 Alpha  occ. eigenvalues --  -10.25573 -10.25401 -10.25193 -10.25047 -10.24969
 Alpha  occ. eigenvalues --  -10.24936 -10.24877 -10.24716 -10.24502 -10.24393
 Alpha  occ. eigenvalues --  -10.24008 -10.23618 -10.23549 -10.23530 -10.23478
 Alpha  occ. eigenvalues --  -10.23372 -10.23344 -10.23258 -10.23222 -10.23161
 Alpha  occ. eigenvalues --  -10.22918 -10.22869 -10.22770 -10.22635 -10.22385
 Alpha  occ. eigenvalues --  -10.22326 -10.22290 -10.22043 -10.22020 -10.21957
 Alpha  occ. eigenvalues --  -10.21952 -10.21893 -10.21767 -10.21451 -10.21272
 Alpha  occ. eigenvalues --  -10.21145  -3.14284  -1.87108  -1.86627  -1.86539
 Alpha  occ. eigenvalues --   -1.11927  -1.11715  -1.06079  -1.04049  -1.03748
 Alpha  occ. eigenvalues --   -1.02911  -0.98580  -0.97738  -0.97591  -0.96500
 Alpha  occ. eigenvalues --   -0.86218  -0.85498  -0.84685  -0.83850  -0.83583
 Alpha  occ. eigenvalues --   -0.83357  -0.82227  -0.82165  -0.81372  -0.80981
 Alpha  occ. eigenvalues --   -0.80448  -0.80100  -0.79260  -0.78051  -0.77501
 Alpha  occ. eigenvalues --   -0.77301  -0.76625  -0.75802  -0.75097  -0.74827
 Alpha  occ. eigenvalues --   -0.74537  -0.72424  -0.72246  -0.71462  -0.70770
 Alpha  occ. eigenvalues --   -0.69856  -0.69091  -0.68989  -0.68885  -0.68799
 Alpha  occ. eigenvalues --   -0.68582  -0.66643  -0.66000  -0.64678  -0.63639
 Alpha  occ. eigenvalues --   -0.62982  -0.62421  -0.61371  -0.61116  -0.60006
 Alpha  occ. eigenvalues --   -0.59713  -0.59405  -0.58764  -0.58648  -0.58544
 Alpha  occ. eigenvalues --   -0.57993  -0.57768  -0.56938  -0.56454  -0.54830
 Alpha  occ. eigenvalues --   -0.54623  -0.53948  -0.53665  -0.52930  -0.52580
 Alpha  occ. eigenvalues --   -0.51635  -0.51490  -0.50865  -0.50476  -0.50001
 Alpha  occ. eigenvalues --   -0.49857  -0.49578  -0.48955  -0.48848  -0.48831
 Alpha  occ. eigenvalues --   -0.48611  -0.48485  -0.48250  -0.47862  -0.47288
 Alpha  occ. eigenvalues --   -0.47137  -0.46939  -0.46857  -0.46693  -0.46673
 Alpha  occ. eigenvalues --   -0.46314  -0.45833  -0.45744  -0.45316  -0.45285
 Alpha  occ. eigenvalues --   -0.44889  -0.44862  -0.44726  -0.44330  -0.44232
 Alpha  occ. eigenvalues --   -0.44182  -0.44119  -0.43992  -0.43865  -0.43594
 Alpha  occ. eigenvalues --   -0.43416  -0.43105  -0.42971  -0.42915  -0.42591
 Alpha  occ. eigenvalues --   -0.42302  -0.41967  -0.41955  -0.41525  -0.41320
 Alpha  occ. eigenvalues --   -0.41267  -0.41083  -0.41011  -0.40787  -0.40151
 Alpha  occ. eigenvalues --   -0.39968  -0.39933  -0.39863  -0.39806  -0.39699
 Alpha  occ. eigenvalues --   -0.39419  -0.39190  -0.39013  -0.38711  -0.38594
 Alpha  occ. eigenvalues --   -0.38495  -0.38214  -0.38126  -0.37902  -0.37745
 Alpha  occ. eigenvalues --   -0.37463  -0.37312  -0.37093  -0.37015  -0.36901
 Alpha  occ. eigenvalues --   -0.36740  -0.36639  -0.36340  -0.36206  -0.36075
 Alpha  occ. eigenvalues --   -0.35844  -0.35591  -0.35421  -0.35217  -0.35005
 Alpha  occ. eigenvalues --   -0.34477  -0.34281  -0.34047  -0.33939  -0.33629
 Alpha  occ. eigenvalues --   -0.32980  -0.32869  -0.32480  -0.32035  -0.31906
 Alpha  occ. eigenvalues --   -0.31633  -0.31555  -0.31348  -0.31271  -0.31068
 Alpha  occ. eigenvalues --   -0.30939  -0.30570  -0.29876  -0.29243  -0.29146
 Alpha  occ. eigenvalues --   -0.29067  -0.28554  -0.28216  -0.26763  -0.26144
 Alpha  occ. eigenvalues --   -0.26043  -0.25599  -0.25429  -0.24934  -0.20623
 Alpha  occ. eigenvalues --   -0.18336
 Alpha virt. eigenvalues --   -0.10725  -0.05185  -0.03981  -0.02145  -0.00888
 Alpha virt. eigenvalues --    0.00166   0.00875   0.01663   0.02237   0.02968
 Alpha virt. eigenvalues --    0.04483   0.04857   0.04878   0.05310   0.05374

 Mulliken charges:
               1
     1  Mg   0.975963
     2  C    0.091172
     3  C   -0.088137
     4  C   -0.052741
     5  C   -0.050943
     6  N   -0.405929
     7  C    0.028389
     8  C   -0.115946
     9  C   -0.136526
    10  C    0.061901
    11  C   -0.005384
    12  C    0.009117
    13  C    0.057230
    14  C    0.183430
    15  O   -0.245962
    16  O   -0.374149
    17  N   -0.425193
    18  C    0.188037
    19  C   -0.192554
    20  C   -0.089567
    21  C    0.128743
    22  C    0.039901
    23  C    0.097967
    24  O   -0.231407
    25  C   -0.040285
    26  N   -0.375385
    27  C    0.097143
    28  C   -0.152581
    29  C   -0.063747
    30  C    0.055387
    31  C   -0.015396
    32  C   -0.010713
    33  C   -0.063630
    34  N   -0.536141
    35  C    0.133046
    36  C   -0.208988
    37  C   -0.066909
    38  C    0.126220
    39  C    0.089676
    40  C    0.174580
    41  O   -0.228917
    42  C   -0.196021
    43  C    0.270399
    44  O   -0.207963
    45  O   -0.353403
    46  C    0.111445
    47  C    0.234398
    48  C   -0.131147
    49  C   -0.168570
    50  C    0.009915
    51  C    0.013057
    52  C   -0.030695
    53  C    0.006264
    54  C   -0.236227
    55  C   -0.011652
    56  C    0.026137
    57  C   -0.052919
    58  C   -0.009885
    59  C   -0.251247
    60  C    0.016957
    61  C   -0.022728
    62  C   -0.020679
    63  C    0.021321
    64  C   -0.275145
    65  C   -0.009731
    66  C   -0.005010
    67  H    0.007093
    68  H    0.025261
    69  H    0.010695
    70  H    0.074431
    71  H    0.047688
    72  H    0.058142
    73  H    0.056203
    74  H    0.042449
    75  H    0.041067
    76  H    0.057770
    77  H    0.062515
    78  H    0.053286
    79  H    0.066612
    80  H    0.037450
    81  H    0.055466
    82  H    0.059940
    83  H    0.042842
    84  H    0.066122
    85  H    0.055036
    86  H    0.048622
    87  H    0.046524
    88  H    0.053250
    89  H    0.041466
    90  H    0.042434
    91  H    0.032556
    92  H    0.047403
    93  H    0.041001
    94  H    0.045125
    95  H    0.006519
    96  H    0.081930
    97  H    0.057329
    98  H    0.088288
    99  H    0.060824
   100  H    0.063683
   101  H    0.050592
   102  H    0.060070
   103  H    0.022247
   104  H    0.027886
   105  H    0.047248
   106  H    0.050843
   107  H    0.050154
   108  H    0.040920
   109  H    0.002276
   110  H    0.026157
   111  H    0.022810
   112  H    0.016501
   113  H    0.018513
   114  H    0.035811
   115  H    0.050060
   116  H    0.026058
   117  H    0.036348
   118  H    0.021458
   119  H    0.022877
   120  H    0.026148
   121  H    0.020601
   122  H    0.030503
   123  H    0.022290
   124  H    0.039908
   125  H    0.030572
   126  H    0.041714
   127  H    0.028016
   128  H    0.011355
   129  H    0.024040
   130  H    0.031673
   131  H    0.024243
   132  H    0.028160
   133  H    0.027435
   134  H    0.043013
   135  H    0.023689
   136  H    0.036583
   137  H    0.027533
   138  H    0.038847
   139  H    0.027492
   140  H    0.022692
 Sum of Mulliken charges =  -0.00000

 Dipole moment (field-independent basis, Debye):
    X=             -4.7574    Y=              3.1424    Z=              3.3115  Tot=              6.5935
 Quadrupole moment (field-independent basis, Debye-Ang):
   XX=           -377.7655   YY=           -429.4817   ZZ=           -402.8719
   XY=             27.2311   XZ=             15.4250   YZ=             -8.0031

 Normal termination of Gaussian 16 at Wed May  4 22:19:30 2022.
