 Gaussian 16, Revision A.03,
 Gaussian 16:  ES64L-G16RevA.03 25-Dec-2016

 --------------------------------
 #p wB97XD/Def2SVP td=(nstates=5)
 --------------------------------

 ---------------------------------------------------
 step_451_chromophore_3 TDDFT with wB97XD functional
 ---------------------------------------------------
 Symbolic Z-matrix:
 Charge =  0 Multiplicity = 1

                         Standard orientation:
 ---------------------------------------------------------------------
 Center     Atomic      Atomic             Coordinates (Angstroms)
 Number     Number       Type             X           Y           Z
 ---------------------------------------------------------------------
      1         12           0        5.255711    0.904828    0.339167
      2          6           0        4.473445   -2.438574    0.008901
      3          6           0        1.892416    1.752984   -0.301094
      4          6           0        6.095668    4.211152   -0.336098
      5          6           0        8.694530    0.147419    0.393337
      6          7           0        3.374651   -0.245991    0.017796
      7          6           0        3.326262   -1.622708    0.100564
      8          6           0        1.880757   -2.066559    0.147396
      9          6           0        1.066052   -0.707488   -0.239266
     10          6           0        2.139459    0.349865   -0.176031
     11          6           0        0.222117   -0.639325   -1.548921
     12          6           0        1.605067   -2.638937    1.555420
     13          6           0        0.244401   -3.348483    1.751465
     14          6           0       -0.549258   -3.473899    0.465142
     15          8           0       -0.415134   -4.263104   -0.435513
     16          8           0       -1.518597   -2.499331    0.507347
     17          7           0        4.143194    2.769961   -0.186179
     18          6           0        2.812303    2.830243   -0.386808
     19          6           0        2.504510    4.212020   -0.697019
     20          6           0        3.661375    5.010460   -0.559733
     21          6           0        4.712550    4.004389   -0.302401
     22          6           0        1.057627    4.626740   -1.026678
     23          6           0        3.912172    6.519689   -0.553395
     24          8           0        5.000917    7.022795   -0.385413
     25          6           0        2.894462    7.393492   -1.059944
     26          7           0        7.087868    2.014445    0.094376
     27          6           0        7.168385    3.326701   -0.046447
     28          6           0        8.615351    3.819370    0.283010
     29          6           0        9.470890    2.573436    0.455329
     30          6           0        8.366099    1.514787    0.392700
     31          6           0        9.204264    4.792467   -0.779791
     32          6           0       10.220586    2.395126    1.794257
     33          6           0       11.686028    1.837534    1.651013
     34          7           0        6.349090   -0.724340    0.239181
     35          6           0        7.746856   -0.881160    0.231521
     36          6           0        8.077222   -2.323726    0.212910
     37          6           0        6.803995   -2.970666    0.145463
     38          6           0        5.790301   -1.923961    0.143795
     39          6           0        9.419924   -2.985105    0.157992
     40          6           0        6.141960   -4.298579    0.075668
     41          8           0        6.629313   -5.432909   -0.046644
     42          6           0        4.588090   -3.915510   -0.024095
     43          6           0        3.878477   -4.836519   -1.018027
     44          8           0        3.806838   -4.611188   -2.175362
     45          8           0        3.323353   -5.873825   -0.337570
     46          6           0        2.600918   -6.810456   -1.174188
     47          6           0       -2.471482   -2.357849   -0.555334
     48          6           0       -3.895592   -2.371834    0.021495
     49          6           0       -4.811682   -3.276071   -0.248708
     50          6           0       -4.614568   -4.590267   -0.966414
     51          6           0       -6.275078   -3.012039    0.186528
     52          6           0       -6.947668   -1.792697   -0.277474
     53          6           0       -8.399315   -1.711346   -0.511928
     54          6           0       -9.243564   -0.522282    0.183094
     55          6           0      -10.147305    0.130305   -0.778384
     56          6           0      -10.130697   -1.077407    1.330069
     57          6           0      -10.128554   -0.071874    2.504271
     58          6           0      -11.497567    0.491543    2.838684
     59          6           0      -11.772100    1.804556    2.066098
     60          6           0      -11.219943    2.943226    2.938485
     61          6           0      -13.313511    1.929501    1.827181
     62          6           0      -13.660341    2.644590    0.512710
     63          6           0      -14.114703    1.683669   -0.568491
     64          6           0      -13.437205    1.911974   -1.932495
     65          6           0      -13.765201    3.225792   -2.614059
     66          6           0      -13.768009    0.845700   -2.990135
     67          1           0        0.821071    1.954468   -0.350789
     68          1           0        6.402084    5.248153   -0.488360
     69          1           0        9.713458   -0.244365    0.371170
     70          1           0        1.738444   -2.745500   -0.693646
     71          1           0        0.362211   -0.373544    0.523313
     72          1           0        0.021314   -1.638012   -1.934268
     73          1           0        0.780395   -0.054601   -2.280892
     74          1           0       -0.773385   -0.221061   -1.403826
     75          1           0        1.644910   -1.749643    2.184517
     76          1           0        2.380994   -3.346435    1.851204
     77          1           0       -0.350932   -2.933987    2.564781
     78          1           0        0.528370   -4.375285    1.982624
     79          1           0        0.563706    5.125627   -0.191897
     80          1           0        0.597194    3.671357   -1.278601
     81          1           0        1.001711    5.226971   -1.934815
     82          1           0        2.174539    7.765115   -0.331841
     83          1           0        2.232571    6.977135   -1.819023
     84          1           0        3.476634    8.223557   -1.460811
     85          1           0        8.524996    4.544983    1.091745
     86          1           0       10.142325    2.541917   -0.403446
     87          1           0        9.071468    5.732534   -0.243645
     88          1           0        8.692892    4.764704   -1.741455
     89          1           0       10.262245    4.642405   -0.998732
     90          1           0        9.557143    1.783772    2.404137
     91          1           0       10.241602    3.326929    2.359295
     92          1           0       12.020547    1.895518    0.614275
     93          1           0       11.766421    0.795016    1.955835
     94          1           0       12.321428    2.335461    2.382495
     95          1           0       10.185471   -2.234308    0.354995
     96          1           0        9.619194   -3.471343   -0.797189
     97          1           0        9.565509   -3.604852    1.042856
     98          1           0        4.228484   -4.289896    0.934833
     99          1           0        3.052323   -7.770827   -1.420098
    100          1           0        2.305394   -6.338354   -2.111757
    101          1           0        1.673692   -7.033306   -0.645732
    102          1           0       -2.372931   -2.994263   -1.435388
    103          1           0       -2.276376   -1.324905   -0.843889
    104          1           0       -4.026058   -1.613112    0.792337
    105          1           0       -5.217180   -4.553426   -1.873300
    106          1           0       -4.997306   -5.427085   -0.381902
    107          1           0       -3.612693   -4.912440   -1.250932
    108          1           0       -6.286145   -3.201078    1.260313
    109          1           0       -6.983139   -3.802046   -0.064363
    110          1           0       -6.588713   -1.398784   -1.228387
    111          1           0       -6.608631   -1.048351    0.442639
    112          1           0       -8.850132   -2.664591   -0.234966
    113          1           0       -8.478709   -1.665930   -1.597343
    114          1           0       -8.508019    0.233701    0.459481
    115          1           0      -11.191566    0.152301   -0.465876
    116          1           0      -10.146144   -0.398015   -1.731847
    117          1           0       -9.810585    1.149566   -0.968434
    118          1           0       -9.814175   -2.064851    1.666243
    119          1           0      -11.154810   -1.241198    0.996986
    120          1           0       -9.448178    0.755880    2.306432
    121          1           0       -9.834610   -0.641503    3.385876
    122          1           0      -11.314413    0.575586    3.909434
    123          1           0      -12.263217   -0.258385    2.636560
    124          1           0      -11.199717    1.868540    1.141377
    125          1           0      -11.905890    3.788972    2.888500
    126          1           0      -10.191820    3.115708    2.620073
    127          1           0      -11.290792    2.633461    3.981653
    128          1           0      -13.726121    2.623101    2.559838
    129          1           0      -13.829039    0.984689    2.003592
    130          1           0      -12.761201    3.225168    0.305805
    131          1           0      -14.493406    3.250982    0.866686
    132          1           0      -15.203935    1.669048   -0.610388
    133          1           0      -13.783726    0.703471   -0.225715
    134          1           0      -12.359714    1.871403   -1.773410
    135          1           0      -14.649572    3.667699   -2.156554
    136          1           0      -14.016725    3.231482   -3.674059
    137          1           0      -12.961032    3.947798   -2.470164
    138          1           0      -12.863553    0.393951   -3.397194
    139          1           0      -14.316914    1.233756   -3.848435
    140          1           0      -14.442268    0.126950   -2.526348
 ---------------------------------------------------------------------

 SCF Done:  E(RwB97XD) =  -3007.84270009     A.U. after   19 cycles

 Excitation energies and oscillator strengths:

 Excited State   1:      Singlet-A      1.6576 eV  747.98 nm  f=0.3577  <S**2>=0.000
     245 -> 248        0.18766
     246 -> 247        0.68146
     245 <- 248        0.11630
 This state for optimization and/or second-order correction.
 Total Energy, E(TD-HF/TD-DFT) =  -3007.78178453
 Copying the excited state density for this state as the 1-particle RhoCI density.

 Excited State   2:      Singlet-A      2.1796 eV  568.84 nm  f=0.0805  <S**2>=0.000
     245 -> 247        0.62368
     246 -> 248       -0.31749

 Excited State   3:      Singlet-A      3.4183 eV  362.71 nm  f=0.4888  <S**2>=0.000
     240 -> 247        0.17876
     242 -> 247        0.25548
     243 -> 247       -0.18277
     245 -> 247        0.23989
     246 -> 248        0.53709
     245 <- 247       -0.10054

 Excited State   4:      Singlet-A      3.5636 eV  347.92 nm  f=0.1211  <S**2>=0.000
     240 -> 247       -0.11675
     242 -> 247       -0.14194
     242 -> 249        0.10096
     242 -> 250        0.11508
     243 -> 247        0.23369
     244 -> 247        0.51000
     244 -> 249        0.14496
     245 -> 247        0.12820
     246 -> 248        0.22035

 Excited State   5:      Singlet-A      3.6465 eV  340.01 nm  f=0.1815  <S**2>=0.000
     239 -> 247       -0.12401
     239 -> 249        0.10788
     240 -> 247        0.25306
     242 -> 247        0.43717
     242 -> 249        0.13138
     242 -> 250        0.10957
     243 -> 249        0.14060
     243 -> 250        0.15204
     244 -> 247        0.14518
     244 -> 249        0.10432
     245 -> 247       -0.14538
     246 -> 248       -0.19431

 The electronic state is 1-A.
 Alpha  occ. eigenvalues --  -46.95105 -19.30178 -19.29775 -19.25542 -19.24398
 Alpha  occ. eigenvalues --  -19.23959 -19.23510 -14.46801 -14.46315 -14.43942
 Alpha  occ. eigenvalues --  -14.43825 -10.43566 -10.42189 -10.39259 -10.38894
 Alpha  occ. eigenvalues --  -10.35767 -10.35701 -10.34925 -10.34830 -10.34474
 Alpha  occ. eigenvalues --  -10.34134 -10.34101 -10.33822 -10.33194 -10.33072
 Alpha  occ. eigenvalues --  -10.32651 -10.32317 -10.32285 -10.31892 -10.31770
 Alpha  occ. eigenvalues --  -10.31740 -10.31690 -10.31519 -10.31422 -10.31406
 Alpha  occ. eigenvalues --  -10.31300 -10.31155 -10.31145 -10.31100 -10.30841
 Alpha  occ. eigenvalues --  -10.30199 -10.30198 -10.30085 -10.29919 -10.29808
 Alpha  occ. eigenvalues --  -10.29653 -10.29646 -10.29596 -10.29595 -10.29449
 Alpha  occ. eigenvalues --  -10.29448 -10.29226 -10.29189 -10.28783 -10.28745
 Alpha  occ. eigenvalues --  -10.28721 -10.28639 -10.28425 -10.28381 -10.28353
 Alpha  occ. eigenvalues --  -10.28338 -10.28302 -10.28118 -10.27915 -10.27698
 Alpha  occ. eigenvalues --  -10.27590  -3.21102  -1.94674  -1.94190  -1.94098
 Alpha  occ. eigenvalues --   -1.19274  -1.18970  -1.13864  -1.11357  -1.10964
 Alpha  occ. eigenvalues --   -1.10147  -1.06044  -1.05265  -1.04842  -1.03786
 Alpha  occ. eigenvalues --   -0.93661  -0.93156  -0.92351  -0.91465  -0.91109
 Alpha  occ. eigenvalues --   -0.91003  -0.89932  -0.89822  -0.88991  -0.88849
 Alpha  occ. eigenvalues --   -0.88032  -0.87690  -0.86891  -0.85709  -0.85164
 Alpha  occ. eigenvalues --   -0.84817  -0.84565  -0.83435  -0.82731  -0.82395
 Alpha  occ. eigenvalues --   -0.82157  -0.80057  -0.79927  -0.79071  -0.78430
 Alpha  occ. eigenvalues --   -0.77377  -0.76775  -0.76586  -0.76542  -0.76468
 Alpha  occ. eigenvalues --   -0.76195  -0.74111  -0.73564  -0.72258  -0.71168
 Alpha  occ. eigenvalues --   -0.70648  -0.70068  -0.68894  -0.68758  -0.67480
 Alpha  occ. eigenvalues --   -0.67240  -0.66776  -0.66316  -0.66209  -0.66181
 Alpha  occ. eigenvalues --   -0.65480  -0.65440  -0.64578  -0.63740  -0.62342
 Alpha  occ. eigenvalues --   -0.62265  -0.61418  -0.60984  -0.60297  -0.59898
 Alpha  occ. eigenvalues --   -0.59046  -0.58940  -0.58295  -0.58017  -0.57365
 Alpha  occ. eigenvalues --   -0.57199  -0.57020  -0.56396  -0.56349  -0.56137
 Alpha  occ. eigenvalues --   -0.56068  -0.55841  -0.55522  -0.55218  -0.54656
 Alpha  occ. eigenvalues --   -0.54558  -0.54440  -0.54272  -0.54186  -0.54010
 Alpha  occ. eigenvalues --   -0.53607  -0.53125  -0.53089  -0.52649  -0.52593
 Alpha  occ. eigenvalues --   -0.52377  -0.52157  -0.52040  -0.51912  -0.51593
 Alpha  occ. eigenvalues --   -0.51467  -0.51433  -0.51238  -0.51139  -0.50915
 Alpha  occ. eigenvalues --   -0.50843  -0.50406  -0.50238  -0.50165  -0.49768
 Alpha  occ. eigenvalues --   -0.49505  -0.49424  -0.49215  -0.48707  -0.48530
 Alpha  occ. eigenvalues --   -0.48416  -0.48288  -0.48196  -0.47895  -0.47305
 Alpha  occ. eigenvalues --   -0.47227  -0.47119  -0.47066  -0.46968  -0.46868
 Alpha  occ. eigenvalues --   -0.46549  -0.46374  -0.46160  -0.45903  -0.45838
 Alpha  occ. eigenvalues --   -0.45483  -0.45412  -0.45194  -0.45040  -0.44868
 Alpha  occ. eigenvalues --   -0.44581  -0.44395  -0.44233  -0.44060  -0.44020
 Alpha  occ. eigenvalues --   -0.43913  -0.43722  -0.43552  -0.43285  -0.43156
 Alpha  occ. eigenvalues --   -0.42840  -0.42705  -0.42360  -0.42287  -0.42039
 Alpha  occ. eigenvalues --   -0.41572  -0.41216  -0.41056  -0.40870  -0.40731
 Alpha  occ. eigenvalues --   -0.40061  -0.39811  -0.39550  -0.39105  -0.38820
 Alpha  occ. eigenvalues --   -0.38717  -0.38593  -0.38265  -0.38183  -0.38106
 Alpha  occ. eigenvalues --   -0.37878  -0.37509  -0.36947  -0.36192  -0.36035
 Alpha  occ. eigenvalues --   -0.35871  -0.35447  -0.34928  -0.34024  -0.33014
 Alpha  occ. eigenvalues --   -0.32896  -0.32154  -0.32141  -0.31431  -0.25655
 Alpha  occ. eigenvalues --   -0.22503
 Alpha virt. eigenvalues --   -0.06505   0.00199   0.02246   0.04364   0.05017
 Alpha virt. eigenvalues --    0.06973   0.07665   0.08427   0.09195   0.09531
 Alpha virt. eigenvalues --    0.11110   0.11399   0.11420   0.11943   0.12039

 Mulliken charges:
               1
     1  Mg   0.967534
     2  C    0.078778
     3  C   -0.112152
     4  C   -0.068633
     5  C   -0.065806
     6  N   -0.376544
     7  C    0.000885
     8  C   -0.080236
     9  C   -0.118270
    10  C    0.055100
    11  C    0.008371
    12  C    0.017998
    13  C    0.070920
    14  C    0.168358
    15  O   -0.240311
    16  O   -0.371094
    17  N   -0.391328
    18  C    0.184470
    19  C   -0.182525
    20  C   -0.082056
    21  C    0.121055
    22  C    0.053027
    23  C    0.095812
    24  O   -0.222947
    25  C   -0.031847
    26  N   -0.340835
    27  C    0.083092
    28  C   -0.130930
    29  C   -0.035315
    30  C    0.048340
    31  C   -0.006969
    32  C    0.000826
    33  C   -0.046560
    34  N   -0.495141
    35  C    0.121245
    36  C   -0.205713
    37  C   -0.070656
    38  C    0.114421
    39  C    0.102616
    40  C    0.159367
    41  O   -0.221286
    42  C   -0.157468
    43  C    0.248209
    44  O   -0.203660
    45  O   -0.352284
    46  C    0.127349
    47  C    0.250446
    48  C   -0.142875
    49  C   -0.152452
    50  C    0.022468
    51  C    0.029830
    52  C   -0.015112
    53  C    0.022128
    54  C   -0.204398
    55  C    0.009240
    56  C    0.041089
    57  C   -0.034569
    58  C    0.009088
    59  C   -0.214915
    60  C    0.026770
    61  C   -0.006750
    62  C   -0.004895
    63  C    0.037216
    64  C   -0.238111
    65  C    0.000878
    66  C    0.007688
    67  H   -0.000263
    68  H    0.020171
    69  H    0.000933
    70  H    0.060477
    71  H    0.036557
    72  H    0.051434
    73  H    0.050682
    74  H    0.035415
    75  H    0.032289
    76  H    0.047546
    77  H    0.058956
    78  H    0.048122
    79  H    0.063991
    80  H    0.032698
    81  H    0.051365
    82  H    0.058181
    83  H    0.037004
    84  H    0.065639
    85  H    0.044644
    86  H    0.035658
    87  H    0.041264
    88  H    0.047469
    89  H    0.036698
    90  H    0.032797
    91  H    0.024177
    92  H    0.040895
    93  H    0.034682
    94  H    0.039844
    95  H   -0.001130
    96  H    0.077362
    97  H    0.051673
    98  H    0.076227
    99  H    0.056454
   100  H    0.059222
   101  H    0.047013
   102  H    0.055118
   103  H    0.012528
   104  H    0.026165
   105  H    0.040743
   106  H    0.045492
   107  H    0.046163
   108  H    0.034018
   109  H   -0.007303
   110  H    0.018005
   111  H    0.012214
   112  H    0.005730
   113  H    0.010346
   114  H    0.022807
   115  H    0.028449
   116  H    0.020040
   117  H    0.031721
   118  H    0.013557
   119  H    0.012218
   120  H    0.012953
   121  H    0.014049
   122  H    0.021249
   123  H    0.011898
   124  H    0.016389
   125  H    0.024063
   126  H    0.037237
   127  H    0.021119
   128  H    0.002196
   129  H    0.015438
   130  H    0.021137
   131  H    0.017329
   132  H    0.021910
   133  H    0.014593
   134  H    0.023898
   135  H    0.016550
   136  H    0.030671
   137  H    0.022063
   138  H    0.033942
   139  H    0.020689
   140  H    0.016501
 Sum of Mulliken charges =  -0.00000

 Dipole moment (field-independent basis, Debye):
    X=             -5.1722    Y=              3.9096    Z=              3.2408  Tot=              7.2484
 Quadrupole moment (field-independent basis, Debye-Ang):
   XX=           -382.5614   YY=           -426.3406   ZZ=           -402.4030
   XY=             29.8492   XZ=             15.2468   YZ=             -8.6393

 Normal termination of Gaussian 16 at Wed May  4 22:47:51 2022.
