 Gaussian 16, Revision A.03,
 Gaussian 16:  ES64L-G16RevA.03 25-Dec-2016

 --------------------
 #p ZINDO=(nstates=5)
 --------------------

 ----------------------------
 step_451_chromophore_3 ZINDO
 ----------------------------
 Symbolic Z-matrix:
 Charge =  0 Multiplicity = 1

                         Standard orientation:
 ---------------------------------------------------------------------
 Center     Atomic      Atomic             Coordinates (Angstroms)
 Number     Number       Type             X           Y           Z
 ---------------------------------------------------------------------
      1         12           0        5.255711    0.904828    0.339167
      2          6           0        4.473445   -2.438574    0.008901
      3          6           0        1.892416    1.752984   -0.301094
      4          6           0        6.095668    4.211152   -0.336098
      5          6           0        8.694530    0.147419    0.393337
      6          7           0        3.374651   -0.245991    0.017796
      7          6           0        3.326262   -1.622708    0.100564
      8          6           0        1.880757   -2.066559    0.147396
      9          6           0        1.066052   -0.707488   -0.239266
     10          6           0        2.139459    0.349865   -0.176031
     11          6           0        0.222117   -0.639325   -1.548921
     12          6           0        1.605067   -2.638937    1.555420
     13          6           0        0.244401   -3.348483    1.751465
     14          6           0       -0.549258   -3.473899    0.465142
     15          8           0       -0.415134   -4.263104   -0.435513
     16          8           0       -1.518597   -2.499331    0.507347
     17          7           0        4.143194    2.769961   -0.186179
     18          6           0        2.812303    2.830243   -0.386808
     19          6           0        2.504510    4.212020   -0.697019
     20          6           0        3.661375    5.010460   -0.559733
     21          6           0        4.712550    4.004389   -0.302401
     22          6           0        1.057627    4.626740   -1.026678
     23          6           0        3.912172    6.519689   -0.553395
     24          8           0        5.000917    7.022795   -0.385413
     25          6           0        2.894462    7.393492   -1.059944
     26          7           0        7.087868    2.014445    0.094376
     27          6           0        7.168385    3.326701   -0.046447
     28          6           0        8.615351    3.819370    0.283010
     29          6           0        9.470890    2.573436    0.455329
     30          6           0        8.366099    1.514787    0.392700
     31          6           0        9.204264    4.792467   -0.779791
     32          6           0       10.220586    2.395126    1.794257
     33          6           0       11.686028    1.837534    1.651013
     34          7           0        6.349090   -0.724340    0.239181
     35          6           0        7.746856   -0.881160    0.231521
     36          6           0        8.077222   -2.323726    0.212910
     37          6           0        6.803995   -2.970666    0.145463
     38          6           0        5.790301   -1.923961    0.143795
     39          6           0        9.419924   -2.985105    0.157992
     40          6           0        6.141960   -4.298579    0.075668
     41          8           0        6.629313   -5.432909   -0.046644
     42          6           0        4.588090   -3.915510   -0.024095
     43          6           0        3.878477   -4.836519   -1.018027
     44          8           0        3.806838   -4.611188   -2.175362
     45          8           0        3.323353   -5.873825   -0.337570
     46          6           0        2.600918   -6.810456   -1.174188
     47          6           0       -2.471482   -2.357849   -0.555334
     48          6           0       -3.895592   -2.371834    0.021495
     49          6           0       -4.811682   -3.276071   -0.248708
     50          6           0       -4.614568   -4.590267   -0.966414
     51          6           0       -6.275078   -3.012039    0.186528
     52          6           0       -6.947668   -1.792697   -0.277474
     53          6           0       -8.399315   -1.711346   -0.511928
     54          6           0       -9.243564   -0.522282    0.183094
     55          6           0      -10.147305    0.130305   -0.778384
     56          6           0      -10.130697   -1.077407    1.330069
     57          6           0      -10.128554   -0.071874    2.504271
     58          6           0      -11.497567    0.491543    2.838684
     59          6           0      -11.772100    1.804556    2.066098
     60          6           0      -11.219943    2.943226    2.938485
     61          6           0      -13.313511    1.929501    1.827181
     62          6           0      -13.660341    2.644590    0.512710
     63          6           0      -14.114703    1.683669   -0.568491
     64          6           0      -13.437205    1.911974   -1.932495
     65          6           0      -13.765201    3.225792   -2.614059
     66          6           0      -13.768009    0.845700   -2.990135
     67          1           0        0.821071    1.954468   -0.350789
     68          1           0        6.402084    5.248153   -0.488360
     69          1           0        9.713458   -0.244365    0.371170
     70          1           0        1.738444   -2.745500   -0.693646
     71          1           0        0.362211   -0.373544    0.523313
     72          1           0        0.021314   -1.638012   -1.934268
     73          1           0        0.780395   -0.054601   -2.280892
     74          1           0       -0.773385   -0.221061   -1.403826
     75          1           0        1.644910   -1.749643    2.184517
     76          1           0        2.380994   -3.346435    1.851204
     77          1           0       -0.350932   -2.933987    2.564781
     78          1           0        0.528370   -4.375285    1.982624
     79          1           0        0.563706    5.125627   -0.191897
     80          1           0        0.597194    3.671357   -1.278601
     81          1           0        1.001711    5.226971   -1.934815
     82          1           0        2.174539    7.765115   -0.331841
     83          1           0        2.232571    6.977135   -1.819023
     84          1           0        3.476634    8.223557   -1.460811
     85          1           0        8.524996    4.544983    1.091745
     86          1           0       10.142325    2.541917   -0.403446
     87          1           0        9.071468    5.732534   -0.243645
     88          1           0        8.692892    4.764704   -1.741455
     89          1           0       10.262245    4.642405   -0.998732
     90          1           0        9.557143    1.783772    2.404137
     91          1           0       10.241602    3.326929    2.359295
     92          1           0       12.020547    1.895518    0.614275
     93          1           0       11.766421    0.795016    1.955835
     94          1           0       12.321428    2.335461    2.382495
     95          1           0       10.185471   -2.234308    0.354995
     96          1           0        9.619194   -3.471343   -0.797189
     97          1           0        9.565509   -3.604852    1.042856
     98          1           0        4.228484   -4.289896    0.934833
     99          1           0        3.052323   -7.770827   -1.420098
    100          1           0        2.305394   -6.338354   -2.111757
    101          1           0        1.673692   -7.033306   -0.645732
    102          1           0       -2.372931   -2.994263   -1.435388
    103          1           0       -2.276376   -1.324905   -0.843889
    104          1           0       -4.026058   -1.613112    0.792337
    105          1           0       -5.217180   -4.553426   -1.873300
    106          1           0       -4.997306   -5.427085   -0.381902
    107          1           0       -3.612693   -4.912440   -1.250932
    108          1           0       -6.286145   -3.201078    1.260313
    109          1           0       -6.983139   -3.802046   -0.064363
    110          1           0       -6.588713   -1.398784   -1.228387
    111          1           0       -6.608631   -1.048351    0.442639
    112          1           0       -8.850132   -2.664591   -0.234966
    113          1           0       -8.478709   -1.665930   -1.597343
    114          1           0       -8.508019    0.233701    0.459481
    115          1           0      -11.191566    0.152301   -0.465876
    116          1           0      -10.146144   -0.398015   -1.731847
    117          1           0       -9.810585    1.149566   -0.968434
    118          1           0       -9.814175   -2.064851    1.666243
    119          1           0      -11.154810   -1.241198    0.996986
    120          1           0       -9.448178    0.755880    2.306432
    121          1           0       -9.834610   -0.641503    3.385876
    122          1           0      -11.314413    0.575586    3.909434
    123          1           0      -12.263217   -0.258385    2.636560
    124          1           0      -11.199717    1.868540    1.141377
    125          1           0      -11.905890    3.788972    2.888500
    126          1           0      -10.191820    3.115708    2.620073
    127          1           0      -11.290792    2.633461    3.981653
    128          1           0      -13.726121    2.623101    2.559838
    129          1           0      -13.829039    0.984689    2.003592
    130          1           0      -12.761201    3.225168    0.305805
    131          1           0      -14.493406    3.250982    0.866686
    132          1           0      -15.203935    1.669048   -0.610388
    133          1           0      -13.783726    0.703471   -0.225715
    134          1           0      -12.359714    1.871403   -1.773410
    135          1           0      -14.649572    3.667699   -2.156554
    136          1           0      -14.016725    3.231482   -3.674059
    137          1           0      -12.961032    3.947798   -2.470164
    138          1           0      -12.863553    0.393951   -3.397194
    139          1           0      -14.316914    1.233756   -3.848435
    140          1           0      -14.442268    0.126950   -2.526348
 ---------------------------------------------------------------------

 SCF Done:  E(RZINDO/S) =  -474.548881186     A.U. after   19 cycles

 Excitation energies and oscillator strengths:

 Excited State   1:      Singlet-A      1.2652 eV  979.94 nm  f=0.5474  <S**2>=0.000
     175 ->178         0.17852
     176 ->177         0.66643
 This state for optimization and/or second-order correction.
 Total Energy, E(CIS/TDA) =  -474.502385317
 Copying the excited state density for this state as the 1-particle RhoCI density.

 Excited State   2:      Singlet-A      1.9366 eV  640.23 nm  f=0.0196  <S**2>=0.000
     175 ->177         0.51754
     176 ->178        -0.45275

 Excited State   3:      Singlet-A      2.8641 eV  432.89 nm  f=0.0238  <S**2>=0.000
     167 ->177         0.15290
     167 ->179        -0.23040
     167 ->180         0.13241
     167 ->185         0.10258
     168 ->177         0.27892
     168 ->179        -0.38228
     168 ->180         0.21367
     168 ->185         0.16512

 Excited State   4:      Singlet-A      2.9476 eV  420.63 nm  f=0.3953  <S**2>=0.000
     175 ->177         0.26180
     176 ->178         0.33061
     176 ->179         0.42421
     176 ->180         0.20555
     176 ->181         0.23861

 Excited State   5:      Singlet-A      2.9954 eV  413.91 nm  f=0.7824  <S**2>=0.000
     171 ->177        -0.11059
     175 ->177        -0.31580
     176 ->178        -0.36630
     176 ->179         0.44806

 The electronic state is 1-A.
 Alpha  occ. eigenvalues --   -1.82198  -1.80464  -1.79402  -1.74484  -1.72976
 Alpha  occ. eigenvalues --   -1.69539  -1.68738  -1.62952  -1.61940  -1.57340
 Alpha  occ. eigenvalues --   -1.55499  -1.52845  -1.49650  -1.47586  -1.47015
 Alpha  occ. eigenvalues --   -1.44954  -1.43387  -1.41656  -1.39751  -1.39149
 Alpha  occ. eigenvalues --   -1.36578  -1.35602  -1.33084  -1.31893  -1.28934
 Alpha  occ. eigenvalues --   -1.28138  -1.24927  -1.23057  -1.21602  -1.18176
 Alpha  occ. eigenvalues --   -1.17600  -1.15421  -1.14973  -1.14513  -1.12932
 Alpha  occ. eigenvalues --   -1.12743  -1.11595  -1.10857  -1.04353  -1.03518
 Alpha  occ. eigenvalues --   -1.02086  -1.00350  -1.00123  -0.98052  -0.96696
 Alpha  occ. eigenvalues --   -0.96105  -0.95319  -0.93919  -0.92599  -0.92177
 Alpha  occ. eigenvalues --   -0.91430  -0.90957  -0.89237  -0.88075  -0.86284
 Alpha  occ. eigenvalues --   -0.86005  -0.84900  -0.84069  -0.82028  -0.80794
 Alpha  occ. eigenvalues --   -0.80048  -0.79592  -0.77691  -0.77251  -0.77021
 Alpha  occ. eigenvalues --   -0.76430  -0.74951  -0.74486  -0.73749  -0.73640
 Alpha  occ. eigenvalues --   -0.73270  -0.72635  -0.71996  -0.71655  -0.71170
 Alpha  occ. eigenvalues --   -0.70482  -0.70154  -0.68974  -0.68215  -0.67757
 Alpha  occ. eigenvalues --   -0.67027  -0.66606  -0.66103  -0.66005  -0.65817
 Alpha  occ. eigenvalues --   -0.65521  -0.64868  -0.64687  -0.64488  -0.63931
 Alpha  occ. eigenvalues --   -0.63378  -0.63128  -0.62782  -0.62025  -0.61952
 Alpha  occ. eigenvalues --   -0.61808  -0.61425  -0.61025  -0.60594  -0.60051
 Alpha  occ. eigenvalues --   -0.59475  -0.59032  -0.58506  -0.58431  -0.58245
 Alpha  occ. eigenvalues --   -0.58031  -0.57444  -0.57099  -0.56259  -0.56103
 Alpha  occ. eigenvalues --   -0.55665  -0.55529  -0.54988  -0.54869  -0.54353
 Alpha  occ. eigenvalues --   -0.54287  -0.54078  -0.53895  -0.53244  -0.52613
 Alpha  occ. eigenvalues --   -0.52234  -0.52122  -0.51819  -0.51529  -0.51024
 Alpha  occ. eigenvalues --   -0.50889  -0.50810  -0.50364  -0.50253  -0.49999
 Alpha  occ. eigenvalues --   -0.49710  -0.49481  -0.49212  -0.48865  -0.48706
 Alpha  occ. eigenvalues --   -0.48569  -0.48462  -0.48173  -0.48005  -0.47766
 Alpha  occ. eigenvalues --   -0.47032  -0.46802  -0.46442  -0.46304  -0.46201
 Alpha  occ. eigenvalues --   -0.45986  -0.45830  -0.45260  -0.45131  -0.44924
 Alpha  occ. eigenvalues --   -0.44840  -0.44584  -0.43845  -0.43791  -0.43535
 Alpha  occ. eigenvalues --   -0.43227  -0.42745  -0.41856  -0.41528  -0.41420
 Alpha  occ. eigenvalues --   -0.41322  -0.41043  -0.40672  -0.39325  -0.38544
 Alpha  occ. eigenvalues --   -0.37327  -0.36652  -0.35928  -0.34598  -0.34128
 Alpha  occ. eigenvalues --   -0.33781  -0.33039  -0.31895  -0.31557  -0.26481
 Alpha  occ. eigenvalues --   -0.21336
 Alpha virt. eigenvalues --   -0.07946  -0.01908  -0.00546   0.01349   0.01584
 Alpha virt. eigenvalues --    0.02113   0.02960   0.04049   0.04651   0.04716
 Alpha virt. eigenvalues --    0.06198   0.06895   0.07593   0.07868   0.08424

 Mulliken charges:
               1
     1  Mg   0.426522
     2  C   -0.041736
     3  C   -0.108687
     4  C   -0.063784
     5  C   -0.049767
     6  N   -0.307610
     7  C    0.112293
     8  C    0.009833
     9  C    0.000437
    10  C    0.163529
    11  C   -0.049152
    12  C   -0.009981
    13  C    0.000831
    14  C    0.478408
    15  O   -0.515237
    16  O   -0.282493
    17  N   -0.330575
    18  C    0.149085
    19  C    0.015831
    20  C   -0.039591
    21  C    0.136825
    22  C   -0.053499
    23  C    0.346122
    24  O   -0.508309
    25  C   -0.030491
    26  N   -0.249592
    27  C    0.159809
    28  C   -0.000258
    29  C    0.005169
    30  C    0.066922
    31  C   -0.061099
    32  C   -0.031491
    33  C   -0.059449
    34  N   -0.300544
    35  C    0.045680
    36  C    0.020300
    37  C   -0.087286
    38  C    0.114616
    39  C   -0.035224
    40  C    0.322495
    41  O   -0.526546
    42  C    0.051852
    43  C    0.495642
    44  O   -0.499962
    45  O   -0.257588
    46  C    0.071629
    47  C    0.095253
    48  C   -0.089475
    49  C    0.013100
    50  C   -0.039394
    51  C   -0.020196
    52  C   -0.018639
    53  C   -0.040069
    54  C   -0.009206
    55  C   -0.052894
    56  C   -0.032617
    57  C   -0.042175
    58  C   -0.042091
    59  C   -0.016037
    60  C   -0.061076
    61  C   -0.044965
    62  C   -0.041166
    63  C   -0.022919
    64  C   -0.006249
    65  C   -0.054185
    66  C   -0.060498
    67  H    0.024985
    68  H    0.043329
    69  H    0.040160
    70  H    0.050323
    71  H    0.027819
    72  H    0.028417
    73  H    0.025614
    74  H    0.023440
    75  H    0.024980
    76  H    0.033199
    77  H    0.042134
    78  H    0.035737
    79  H    0.037260
    80  H    0.025447
    81  H    0.029094
    82  H    0.040985
    83  H    0.028086
    84  H    0.041155
    85  H    0.038349
    86  H    0.038031
    87  H    0.021451
    88  H    0.026469
    89  H    0.019862
    90  H    0.025631
    91  H    0.014589
    92  H    0.028273
    93  H    0.018010
    94  H    0.021206
    95  H    0.009401
    96  H    0.046637
    97  H    0.034735
    98  H    0.040872
    99  H    0.046677
   100  H    0.046936
   101  H    0.024821
   102  H    0.059726
   103  H    0.030057
   104  H    0.032647
   105  H    0.023405
   106  H    0.026709
   107  H    0.029449
   108  H    0.023176
   109  H    0.008613
   110  H    0.014685
   111  H    0.006884
   112  H    0.013874
   113  H    0.014328
   114  H    0.027229
   115  H    0.020667
   116  H    0.013951
   117  H    0.011020
   118  H    0.013490
   119  H    0.022156
   120  H    0.024716
   121  H    0.009317
   122  H    0.022769
   123  H    0.018643
   124  H    0.029642
   125  H    0.018515
   126  H    0.023955
   127  H    0.018119
   128  H    0.007996
   129  H    0.023635
   130  H    0.029433
   131  H    0.017367
   132  H    0.025566
   133  H    0.013143
   134  H    0.019586
   135  H    0.010367
   136  H    0.022412
   137  H    0.008912
   138  H    0.019339
   139  H    0.017751
   140  H    0.014254
 Sum of Mulliken charges =  -0.00000

 Dipole moment (field-independent basis, Debye):
    X=             -8.2461    Y=              6.8522    Z=              4.5677  Tot=             11.6540
 N-N= 4.307833919792D+03 E-N= 0.000000000000D+00  KE=-9.290432249311D+03
 Leave Link  601 at Wed May  4 23:01:03 2022, MaxMem=  6710886400 cpu:               0.8 elap:               0.0
 (Enter /sw/apps/gaussian-16.0/g16/l9999.exe)
 1\1\GINC-BP1-COMPUTE123\SP\RZINDO CIS\STO-3G\C55H74Mg1N4O6\OF15641\04-
 May-2022\0\\#p ZINDO=(nstates=5)\\step_451_chromophore_3 ZINDO\\0,1\Mg
 ,0,0.69,7.913,26.515\C,0,1.409,9.965,29.193\C,0,1.393,5.082,28.498\C,0
 ,0.971,5.874,23.712\C,0,0.556,10.692,24.356\N,0,1.219,7.58,28.654\C,0,
 1.285,8.611,29.569\C,0,1.353,8.032,30.965\C,0,1.631,6.448,30.693\C,0,1
 .406,6.324,29.207\C,0,2.964,5.789,31.163\C,0,0.028,8.369,31.684\C,0,-0
 .028,8.056,33.198\C,0,1.3,7.579,33.754\O,0,2.272,8.224,34.056\O,0,1.2,

 Normal termination of Gaussian 16 at Wed May  4 23:01:03 2022.
