 Gaussian 16, Revision A.03,
 Gaussian 16:  ES64L-G16RevA.03 25-Dec-2016

 ------------------------------
 #p blyp/Def2SVP td=(nstates=5)
 ------------------------------

 --------------------------------------------------
 step_751_chromophore_15 TDDFT with blyp functional
 --------------------------------------------------
 Symbolic Z-matrix:
 Charge =  0 Multiplicity = 1

                         Standard orientation:
 ---------------------------------------------------------------------
 Center     Atomic      Atomic             Coordinates (Angstroms)
 Number     Number       Type             X           Y           Z
 ---------------------------------------------------------------------
      1         12           0       -4.858916    1.087762   -0.363156
      2          6           0       -4.234157   -2.354877    0.212407
      3          6           0       -1.566440    1.542908   -0.571319
      4          6           0       -5.265914    4.304648    0.087664
      5          6           0       -8.148708    0.449774    0.650270
      6          7           0       -3.076543   -0.301499   -0.283161
      7          6           0       -3.046117   -1.637931   -0.119437
      8          6           0       -1.622271   -2.130694   -0.403749
      9          6           0       -0.738451   -0.869392   -0.237978
     10          6           0       -1.830978    0.194977   -0.282064
     11          6           0        0.235406   -0.799858    0.976802
     12          6           0       -1.530920   -2.838699   -1.753934
     13          6           0       -0.709041   -4.141119   -1.727808
     14          6           0        0.347644   -4.308906   -0.637511
     15          8           0        0.199708   -4.844784    0.448422
     16          8           0        1.534048   -3.715817   -1.054907
     17          7           0       -3.616816    2.765429   -0.490241
     18          6           0       -2.282919    2.740518   -0.710653
     19          6           0       -1.757735    4.039169   -0.858116
     20          6           0       -2.818066    4.898927   -0.659333
     21          6           0       -3.956990    4.027318   -0.301051
     22          6           0       -0.308004    4.348147   -1.112669
     23          6           0       -2.846811    6.481869   -0.702035
     24          8           0       -3.905039    7.135057   -0.578148
     25          6           0       -1.556495    7.268399   -0.986640
     26          7           0       -6.403700    2.164587    0.432209
     27          6           0       -6.332856    3.491238    0.428844
     28          6           0       -7.744158    4.196154    0.750234
     29          6           0       -8.677554    2.926912    0.882711
     30          6           0       -7.638587    1.774014    0.612334
     31          6           0       -7.722344    5.212878    1.863533
     32          6           0       -9.848461    2.810431   -0.125726
     33          6           0      -11.247496    2.481853    0.483278
     34          7           0       -6.122724   -0.621865    0.099251
     35          6           0       -7.425498   -0.762035    0.452033
     36          6           0       -7.848192   -2.186852    0.588252
     37          6           0       -6.563171   -2.848741    0.652343
     38          6           0       -5.563718   -1.841568    0.340918
     39          6           0       -9.246640   -2.684331    0.791631
     40          6           0       -5.920920   -4.148016    0.830100
     41          8           0       -6.402462   -5.247554    1.060932
     42          6           0       -4.446771   -3.773371    0.689888
     43          6           0       -3.685164   -4.968878    0.159371
     44          8           0       -3.473803   -5.188674   -1.039896
     45          8           0       -3.277089   -5.790217    1.207598
     46          6           0       -2.514709   -6.909516    0.829458
     47          6           0        2.627050   -3.872357   -0.068190
     48          6           0        3.747369   -3.235309   -0.804430
     49          6           0        5.067646   -3.241709   -0.556565
     50          6           0        5.813357   -3.911730    0.588812
     51          6           0        6.027208   -2.576652   -1.545804
     52          6           0        5.889664   -1.049770   -1.703594
     53          6           0        6.640565   -0.605338   -3.024039
     54          6           0        7.764027    0.445536   -2.673360
     55          6           0        7.981827    1.314068   -3.948335
     56          6           0        9.154118   -0.208966   -2.300162
     57          6           0        9.771261    0.389671   -0.998352
     58          6           0       11.278723    0.527961   -0.873242
     59          6           0       11.646850    2.039713   -0.737214
     60          6           0       12.259180    2.629768   -2.020498
     61          6           0       12.509194    2.238093    0.533041
     62          6           0       11.623517    2.192078    1.808179
     63          6           0       12.025302    1.126659    2.865583
     64          6           0       11.580678    1.522073    4.328578
     65          6           0       12.301064    0.755036    5.407041
     66          6           0       10.014344    1.320512    4.559171
     67          1           0       -0.490317    1.728831   -0.562017
     68          1           0       -5.356085    5.392537    0.112077
     69          1           0       -9.232686    0.322728    0.700506
     70          1           0       -1.323952   -2.854073    0.354715
     71          1           0       -0.076365   -0.930254   -1.102414
     72          1           0       -0.065356   -1.554464    1.703193
     73          1           0        0.176469    0.169179    1.471608
     74          1           0        1.244131   -1.056431    0.652947
     75          1           0       -1.165187   -2.161951   -2.526204
     76          1           0       -2.542504   -3.131293   -2.035644
     77          1           0       -0.120412   -4.019287   -2.637033
     78          1           0       -1.354223   -5.004910   -1.890335
     79          1           0       -0.343041    4.814049   -2.097984
     80          1           0        0.364949    3.492190   -1.072173
     81          1           0        0.061949    5.075977   -0.391018
     82          1           0       -0.823905    7.199476   -0.182361
     83          1           0       -1.749022    8.326384   -1.163451
     84          1           0       -1.179320    6.885446   -1.934457
     85          1           0       -8.029199    4.637976   -0.204044
     86          1           0       -8.932513    2.907142    1.941993
     87          1           0       -7.561350    6.148381    1.327967
     88          1           0       -6.841431    5.127961    2.500151
     89          1           0       -8.642377    5.407471    2.414336
     90          1           0       -9.658322    2.203553   -1.010710
     91          1           0       -9.980050    3.830536   -0.485748
     92          1           0      -11.105650    2.292672    1.547373
     93          1           0      -11.688862    1.582841    0.053707
     94          1           0      -12.054183    3.184511    0.275230
     95          1           0       -9.662833   -2.895772   -0.193751
     96          1           0       -9.795094   -1.972579    1.409750
     97          1           0       -9.330083   -3.580792    1.406465
     98          1           0       -3.977607   -3.779377    1.674259
     99          1           0       -2.954790   -7.509056    0.031632
    100          1           0       -2.291822   -7.643879    1.603359
    101          1           0       -1.584979   -6.490677    0.444682
    102          1           0        2.865760   -4.935286   -0.032502
    103          1           0        2.497331   -3.478452    0.939321
    104          1           0        3.415383   -2.754408   -1.724371
    105          1           0        6.322248   -3.168548    1.203128
    106          1           0        6.520890   -4.705689    0.346770
    107          1           0        5.053921   -4.417266    1.185759
    108          1           0        5.799368   -3.041676   -2.505353
    109          1           0        7.021541   -2.826937   -1.175665
    110          1           0        6.354745   -0.658883   -0.798754
    111          1           0        4.836805   -0.770440   -1.751966
    112          1           0        5.910167   -0.195881   -3.723150
    113          1           0        7.194669   -1.448059   -3.437356
    114          1           0        7.441619    1.152454   -1.908705
    115          1           0        8.825668    1.999387   -3.862826
    116          1           0        7.053709    1.869706   -4.078629
    117          1           0        7.969104    0.715449   -4.858628
    118          1           0        9.786626   -0.315443   -3.181255
    119          1           0        8.895895   -1.219740   -1.981267
    120          1           0        9.481911   -0.337546   -0.239594
    121          1           0        9.333017    1.374414   -0.835174
    122          1           0       11.769040    0.185811   -1.783697
    123          1           0       11.605590   -0.088208   -0.035752
    124          1           0       10.806013    2.716613   -0.582378
    125          1           0       11.599378    3.356628   -2.493053
    126          1           0       12.525338    1.792672   -2.666343
    127          1           0       13.140869    3.197342   -1.723379
    128          1           0       12.998972    3.210200    0.475855
    129          1           0       13.298445    1.486673    0.577479
    130          1           0       10.583748    1.941186    1.599923
    131          1           0       11.667965    3.196702    2.226964
    132          1           0       13.101331    0.959188    2.904064
    133          1           0       11.575169    0.190015    2.536635
    134          1           0       11.786169    2.571929    4.539408
    135          1           0       12.939461    0.091896    4.823158
    136          1           0       11.672861    0.358902    6.205182
    137          1           0       12.994416    1.425094    5.914944
    138          1           0        9.523471    2.263735    4.800016
    139          1           0        9.770798    0.715118    5.432078
    140          1           0        9.610722    0.854383    3.659939
 ---------------------------------------------------------------------

 SCF Done:  E(RB-LYP) =  -3007.35378881     A.U. after   21 cycles

 Excitation energies and oscillator strengths:

 Excited State   1:      Singlet-A      1.7946 eV  690.88 nm  f=0.2376  <S**2>=0.000
     245 -> 247        0.18612
     245 -> 248        0.16904
     245 -> 249       -0.10385
     246 -> 247        0.65930
     246 <- 247       -0.13470
 This state for optimization and/or second-order correction.
 Total Energy, E(TD-HF/TD-DFT) =  -3007.28783883
 Copying the excited state density for this state as the 1-particle RhoCI density.

 Excited State   2:      Singlet-A      1.9518 eV  635.22 nm  f=0.1410  <S**2>=0.000
     245 -> 247        0.62979
     246 -> 247       -0.18562
     246 -> 248       -0.20128
     246 -> 249        0.11672

 Excited State   3:      Singlet-A      2.1736 eV  570.42 nm  f=0.0013  <S**2>=0.000
     244 -> 247        0.70089

 Excited State   4:      Singlet-A      2.1906 eV  565.99 nm  f=0.0001  <S**2>=0.000
     243 -> 247        0.70653

 Excited State   5:      Singlet-A      2.4571 eV  504.59 nm  f=0.0000  <S**2>=0.000
     241 -> 247        0.70484

 The electronic state is 1-A.
 Alpha  occ. eigenvalues --  -46.28222 -18.83181 -18.81796 -18.78199 -18.76834
 Alpha  occ. eigenvalues --  -18.76325 -18.75808 -14.03296 -14.03204 -14.00685
 Alpha  occ. eigenvalues --  -14.00609 -10.04827 -10.03990 -10.01065  -9.99617
 Alpha  occ. eigenvalues --   -9.98453  -9.96666  -9.96201  -9.96156  -9.96127
 Alpha  occ. eigenvalues --   -9.95753  -9.95380  -9.95094  -9.94835  -9.94697
 Alpha  occ. eigenvalues --   -9.94332  -9.94085  -9.93776  -9.93604  -9.93421
 Alpha  occ. eigenvalues --   -9.93386  -9.93366  -9.93302  -9.93288  -9.93062
 Alpha  occ. eigenvalues --   -9.92741  -9.92731  -9.92710  -9.92668  -9.92663
 Alpha  occ. eigenvalues --   -9.92582  -9.92574  -9.92442  -9.92294  -9.92245
 Alpha  occ. eigenvalues --   -9.92127  -9.92032  -9.91922  -9.91849  -9.91780
 Alpha  occ. eigenvalues --   -9.91731  -9.91670  -9.91640  -9.91550  -9.91544
 Alpha  occ. eigenvalues --   -9.91540  -9.91368  -9.91271  -9.91202  -9.91193
 Alpha  occ. eigenvalues --   -9.91130  -9.91071  -9.90866  -9.90775  -9.90735
 Alpha  occ. eigenvalues --   -9.90366  -2.92795  -1.73198  -1.72681  -1.72519
 Alpha  occ. eigenvalues --   -0.98416  -0.97376  -0.91259  -0.90946  -0.90592
 Alpha  occ. eigenvalues --   -0.89587  -0.87963  -0.87276  -0.86837  -0.85224
 Alpha  occ. eigenvalues --   -0.75516  -0.73769  -0.73220  -0.72934  -0.72419
 Alpha  occ. eigenvalues --   -0.71820  -0.71760  -0.70916  -0.70799  -0.70390
 Alpha  occ. eigenvalues --   -0.69316  -0.69265  -0.68077  -0.67262  -0.67050
 Alpha  occ. eigenvalues --   -0.66513  -0.65607  -0.65328  -0.64933  -0.64593
 Alpha  occ. eigenvalues --   -0.64330  -0.62763  -0.62435  -0.61621  -0.60548
 Alpha  occ. eigenvalues --   -0.60159  -0.59881  -0.59824  -0.59741  -0.59279
 Alpha  occ. eigenvalues --   -0.57904  -0.57314  -0.56769  -0.55460  -0.54453
 Alpha  occ. eigenvalues --   -0.53838  -0.53234  -0.52694  -0.52234  -0.51647
 Alpha  occ. eigenvalues --   -0.51521  -0.50968  -0.50759  -0.50650  -0.49961
 Alpha  occ. eigenvalues --   -0.49881  -0.49116  -0.48790  -0.48039  -0.47026
 Alpha  occ. eigenvalues --   -0.46933  -0.45705  -0.45433  -0.45085  -0.44290
 Alpha  occ. eigenvalues --   -0.43413  -0.43202  -0.43110  -0.42712  -0.42572
 Alpha  occ. eigenvalues --   -0.42252  -0.41995  -0.41790  -0.41353  -0.41217
 Alpha  occ. eigenvalues --   -0.40895  -0.40602  -0.40557  -0.40232  -0.40172
 Alpha  occ. eigenvalues --   -0.39911  -0.39865  -0.39637  -0.39559  -0.39126
 Alpha  occ. eigenvalues --   -0.38897  -0.38668  -0.38446  -0.38318  -0.38256
 Alpha  occ. eigenvalues --   -0.38055  -0.37779  -0.37715  -0.37581  -0.37398
 Alpha  occ. eigenvalues --   -0.37131  -0.37036  -0.36839  -0.36627  -0.36541
 Alpha  occ. eigenvalues --   -0.36355  -0.36200  -0.36040  -0.35955  -0.35830
 Alpha  occ. eigenvalues --   -0.35715  -0.35435  -0.35242  -0.34997  -0.34857
 Alpha  occ. eigenvalues --   -0.34421  -0.34157  -0.34145  -0.34055  -0.34014
 Alpha  occ. eigenvalues --   -0.33455  -0.33298  -0.33232  -0.33141  -0.33053
 Alpha  occ. eigenvalues --   -0.32932  -0.32909  -0.32630  -0.32500  -0.32453
 Alpha  occ. eigenvalues --   -0.32313  -0.32145  -0.31838  -0.31570  -0.31330
 Alpha  occ. eigenvalues --   -0.31191  -0.31110  -0.30831  -0.30661  -0.30456
 Alpha  occ. eigenvalues --   -0.30318  -0.30295  -0.30238  -0.30027  -0.29709
 Alpha  occ. eigenvalues --   -0.29641  -0.29457  -0.29197  -0.29108  -0.28764
 Alpha  occ. eigenvalues --   -0.28620  -0.28337  -0.28236  -0.28018  -0.27946
 Alpha  occ. eigenvalues --   -0.27654  -0.27187  -0.26845  -0.26795  -0.26579
 Alpha  occ. eigenvalues --   -0.26397  -0.26035  -0.25909  -0.25894  -0.25370
 Alpha  occ. eigenvalues --   -0.25250  -0.24743  -0.24173  -0.23912  -0.23833
 Alpha  occ. eigenvalues --   -0.23107  -0.22651  -0.22177  -0.21463  -0.20827
 Alpha  occ. eigenvalues --   -0.20204  -0.20129  -0.19142  -0.19006  -0.16761
 Alpha  occ. eigenvalues --   -0.15531
 Alpha virt. eigenvalues --   -0.11174  -0.06740  -0.06288  -0.04610  -0.03994
 Alpha virt. eigenvalues --   -0.03429  -0.02961  -0.01928  -0.01287   0.00422
 Alpha virt. eigenvalues --    0.01085   0.01401   0.02119   0.02798   0.03082

 Mulliken charges:
               1
     1  Mg   0.714201
     2  C    0.109928
     3  C   -0.059574
     4  C   -0.049705
     5  C   -0.078832
     6  N   -0.186127
     7  C   -0.087993
     8  C   -0.036426
     9  C   -0.004057
    10  C    0.015614
    11  C    0.126823
    12  C    0.151655
    13  C    0.144221
    14  C    0.096161
    15  O   -0.192244
    16  O   -0.289976
    17  N   -0.250485
    18  C    0.119005
    19  C   -0.137128
    20  C    0.037271
    21  C    0.013408
    22  C    0.190761
    23  C   -0.045922
    24  O   -0.176891
    25  C    0.123366
    26  N   -0.185100
    27  C    0.042032
    28  C    0.001532
    29  C    0.028410
    30  C   -0.004280
    31  C    0.149686
    32  C    0.102450
    33  C    0.054420
    34  N   -0.232029
    35  C    0.083093
    36  C   -0.154255
    37  C    0.043039
    38  C    0.024827
    39  C    0.164379
    40  C   -0.004670
    41  O   -0.119485
    42  C    0.005659
    43  C    0.106986
    44  O   -0.207000
    45  O   -0.251162
    46  C    0.228605
    47  C    0.333024
    48  C   -0.151328
    49  C   -0.142562
    50  C    0.137489
    51  C    0.102344
    52  C    0.089490
    53  C    0.107828
    54  C   -0.107277
    55  C    0.097112
    56  C    0.125489
    57  C    0.040188
    58  C    0.141011
    59  C   -0.138375
    60  C    0.130841
    61  C    0.120900
    62  C    0.070820
    63  C    0.077089
    64  C   -0.117718
    65  C    0.139592
    66  C    0.080851
    67  H   -0.079231
    68  H   -0.057709
    69  H   -0.064778
    70  H   -0.022421
    71  H   -0.027984
    72  H   -0.008101
    73  H   -0.005916
    74  H    0.000369
    75  H   -0.026551
    76  H   -0.003085
    77  H   -0.028298
    78  H    0.024733
    79  H    0.007415
    80  H   -0.008446
    81  H   -0.002129
    82  H    0.019388
    83  H   -0.009262
    84  H    0.001089
    85  H   -0.027067
    86  H   -0.023539
    87  H   -0.005824
    88  H   -0.002217
    89  H   -0.007197
    90  H   -0.007157
    91  H   -0.025067
    92  H   -0.004674
    93  H   -0.016447
    94  H   -0.009347
    95  H    0.016156
    96  H   -0.000795
    97  H   -0.000072
    98  H    0.019009
    99  H   -0.005396
   100  H    0.004385
   101  H    0.000788
   102  H    0.005423
   103  H    0.026568
   104  H   -0.025453
   105  H    0.003650
   106  H    0.007065
   107  H   -0.030709
   108  H   -0.013398
   109  H   -0.036838
   110  H   -0.026111
   111  H   -0.027933
   112  H   -0.030553
   113  H   -0.021822
   114  H   -0.029872
   115  H   -0.009183
   116  H   -0.033417
   117  H   -0.021452
   118  H   -0.026761
   119  H   -0.048486
   120  H   -0.032398
   121  H   -0.010902
   122  H   -0.034379
   123  H   -0.028855
   124  H   -0.031959
   125  H   -0.012928
   126  H   -0.018987
   127  H   -0.030320
   128  H   -0.045675
   129  H   -0.032726
   130  H   -0.021096
   131  H   -0.031537
   132  H   -0.029692
   133  H   -0.025105
   134  H   -0.032705
   135  H   -0.026526
   136  H   -0.010623
   137  H   -0.030367
   138  H   -0.015852
   139  H   -0.022510
   140  H   -0.011196
 Sum of Mulliken charges =  -0.00000

 Dipole moment (field-independent basis, Debye):
    X=              4.0777    Y=              2.8916    Z=             -0.9410  Tot=              5.0867
 Quadrupole moment (field-independent basis, Debye-Ang):
   XX=           -385.0308   YY=           -438.8354   ZZ=           -405.9721
   XY=            -22.3969   XZ=              4.8072   YZ=              4.0431

 Normal termination of Gaussian 16 at Thu May  5 08:59:09 2022.
