 Gaussian 16, Revision A.03,
 Gaussian 16:  ES64L-G16RevA.03 25-Dec-2016

 -----------------------------------
 #p cam-b3lyp/Def2SVP td=(nstates=5)
 -----------------------------------

 -------------------------------------------------------
 step_751_chromophore_15 TDDFT with cam-b3lyp functional
 -------------------------------------------------------
 Symbolic Z-matrix:
 Charge =  0 Multiplicity = 1

                         Standard orientation:
 ---------------------------------------------------------------------
 Center     Atomic      Atomic             Coordinates (Angstroms)
 Number     Number       Type             X           Y           Z
 ---------------------------------------------------------------------
      1         12           0       -4.858916    1.087762   -0.363156
      2          6           0       -4.234157   -2.354877    0.212407
      3          6           0       -1.566440    1.542908   -0.571319
      4          6           0       -5.265914    4.304648    0.087664
      5          6           0       -8.148708    0.449774    0.650270
      6          7           0       -3.076543   -0.301499   -0.283161
      7          6           0       -3.046117   -1.637931   -0.119437
      8          6           0       -1.622271   -2.130694   -0.403749
      9          6           0       -0.738451   -0.869392   -0.237978
     10          6           0       -1.830978    0.194977   -0.282064
     11          6           0        0.235406   -0.799858    0.976802
     12          6           0       -1.530920   -2.838699   -1.753934
     13          6           0       -0.709041   -4.141119   -1.727808
     14          6           0        0.347644   -4.308906   -0.637511
     15          8           0        0.199708   -4.844784    0.448422
     16          8           0        1.534048   -3.715817   -1.054907
     17          7           0       -3.616816    2.765429   -0.490241
     18          6           0       -2.282919    2.740518   -0.710653
     19          6           0       -1.757735    4.039169   -0.858116
     20          6           0       -2.818066    4.898927   -0.659333
     21          6           0       -3.956990    4.027318   -0.301051
     22          6           0       -0.308004    4.348147   -1.112669
     23          6           0       -2.846811    6.481869   -0.702035
     24          8           0       -3.905039    7.135057   -0.578148
     25          6           0       -1.556495    7.268399   -0.986640
     26          7           0       -6.403700    2.164587    0.432209
     27          6           0       -6.332856    3.491238    0.428844
     28          6           0       -7.744158    4.196154    0.750234
     29          6           0       -8.677554    2.926912    0.882711
     30          6           0       -7.638587    1.774014    0.612334
     31          6           0       -7.722344    5.212878    1.863533
     32          6           0       -9.848461    2.810431   -0.125726
     33          6           0      -11.247496    2.481853    0.483278
     34          7           0       -6.122724   -0.621865    0.099251
     35          6           0       -7.425498   -0.762035    0.452033
     36          6           0       -7.848192   -2.186852    0.588252
     37          6           0       -6.563171   -2.848741    0.652343
     38          6           0       -5.563718   -1.841568    0.340918
     39          6           0       -9.246640   -2.684331    0.791631
     40          6           0       -5.920920   -4.148016    0.830100
     41          8           0       -6.402462   -5.247554    1.060932
     42          6           0       -4.446771   -3.773371    0.689888
     43          6           0       -3.685164   -4.968878    0.159371
     44          8           0       -3.473803   -5.188674   -1.039896
     45          8           0       -3.277089   -5.790217    1.207598
     46          6           0       -2.514709   -6.909516    0.829458
     47          6           0        2.627050   -3.872357   -0.068190
     48          6           0        3.747369   -3.235309   -0.804430
     49          6           0        5.067646   -3.241709   -0.556565
     50          6           0        5.813357   -3.911730    0.588812
     51          6           0        6.027208   -2.576652   -1.545804
     52          6           0        5.889664   -1.049770   -1.703594
     53          6           0        6.640565   -0.605338   -3.024039
     54          6           0        7.764027    0.445536   -2.673360
     55          6           0        7.981827    1.314068   -3.948335
     56          6           0        9.154118   -0.208966   -2.300162
     57          6           0        9.771261    0.389671   -0.998352
     58          6           0       11.278723    0.527961   -0.873242
     59          6           0       11.646850    2.039713   -0.737214
     60          6           0       12.259180    2.629768   -2.020498
     61          6           0       12.509194    2.238093    0.533041
     62          6           0       11.623517    2.192078    1.808179
     63          6           0       12.025302    1.126659    2.865583
     64          6           0       11.580678    1.522073    4.328578
     65          6           0       12.301064    0.755036    5.407041
     66          6           0       10.014344    1.320512    4.559171
     67          1           0       -0.490317    1.728831   -0.562017
     68          1           0       -5.356085    5.392537    0.112077
     69          1           0       -9.232686    0.322728    0.700506
     70          1           0       -1.323952   -2.854073    0.354715
     71          1           0       -0.076365   -0.930254   -1.102414
     72          1           0       -0.065356   -1.554464    1.703193
     73          1           0        0.176469    0.169179    1.471608
     74          1           0        1.244131   -1.056431    0.652947
     75          1           0       -1.165187   -2.161951   -2.526204
     76          1           0       -2.542504   -3.131293   -2.035644
     77          1           0       -0.120412   -4.019287   -2.637033
     78          1           0       -1.354223   -5.004910   -1.890335
     79          1           0       -0.343041    4.814049   -2.097984
     80          1           0        0.364949    3.492190   -1.072173
     81          1           0        0.061949    5.075977   -0.391018
     82          1           0       -0.823905    7.199476   -0.182361
     83          1           0       -1.749022    8.326384   -1.163451
     84          1           0       -1.179320    6.885446   -1.934457
     85          1           0       -8.029199    4.637976   -0.204044
     86          1           0       -8.932513    2.907142    1.941993
     87          1           0       -7.561350    6.148381    1.327967
     88          1           0       -6.841431    5.127961    2.500151
     89          1           0       -8.642377    5.407471    2.414336
     90          1           0       -9.658322    2.203553   -1.010710
     91          1           0       -9.980050    3.830536   -0.485748
     92          1           0      -11.105650    2.292672    1.547373
     93          1           0      -11.688862    1.582841    0.053707
     94          1           0      -12.054183    3.184511    0.275230
     95          1           0       -9.662833   -2.895772   -0.193751
     96          1           0       -9.795094   -1.972579    1.409750
     97          1           0       -9.330083   -3.580792    1.406465
     98          1           0       -3.977607   -3.779377    1.674259
     99          1           0       -2.954790   -7.509056    0.031632
    100          1           0       -2.291822   -7.643879    1.603359
    101          1           0       -1.584979   -6.490677    0.444682
    102          1           0        2.865760   -4.935286   -0.032502
    103          1           0        2.497331   -3.478452    0.939321
    104          1           0        3.415383   -2.754408   -1.724371
    105          1           0        6.322248   -3.168548    1.203128
    106          1           0        6.520890   -4.705689    0.346770
    107          1           0        5.053921   -4.417266    1.185759
    108          1           0        5.799368   -3.041676   -2.505353
    109          1           0        7.021541   -2.826937   -1.175665
    110          1           0        6.354745   -0.658883   -0.798754
    111          1           0        4.836805   -0.770440   -1.751966
    112          1           0        5.910167   -0.195881   -3.723150
    113          1           0        7.194669   -1.448059   -3.437356
    114          1           0        7.441619    1.152454   -1.908705
    115          1           0        8.825668    1.999387   -3.862826
    116          1           0        7.053709    1.869706   -4.078629
    117          1           0        7.969104    0.715449   -4.858628
    118          1           0        9.786626   -0.315443   -3.181255
    119          1           0        8.895895   -1.219740   -1.981267
    120          1           0        9.481911   -0.337546   -0.239594
    121          1           0        9.333017    1.374414   -0.835174
    122          1           0       11.769040    0.185811   -1.783697
    123          1           0       11.605590   -0.088208   -0.035752
    124          1           0       10.806013    2.716613   -0.582378
    125          1           0       11.599378    3.356628   -2.493053
    126          1           0       12.525338    1.792672   -2.666343
    127          1           0       13.140869    3.197342   -1.723379
    128          1           0       12.998972    3.210200    0.475855
    129          1           0       13.298445    1.486673    0.577479
    130          1           0       10.583748    1.941186    1.599923
    131          1           0       11.667965    3.196702    2.226964
    132          1           0       13.101331    0.959188    2.904064
    133          1           0       11.575169    0.190015    2.536635
    134          1           0       11.786169    2.571929    4.539408
    135          1           0       12.939461    0.091896    4.823158
    136          1           0       11.672861    0.358902    6.205182
    137          1           0       12.994416    1.425094    5.914944
    138          1           0        9.523471    2.263735    4.800016
    139          1           0        9.770798    0.715118    5.432078
    140          1           0        9.610722    0.854383    3.659939
 ---------------------------------------------------------------------

 SCF Done:  E(RCAM-B3LYP) =  -3007.15107456     A.U. after   17 cycles

 Excitation energies and oscillator strengths:

 Excited State   1:      Singlet-A      1.7389 eV  712.98 nm  f=0.3832  <S**2>=0.000
     245 -> 248       -0.19264
     246 -> 247        0.68143
     245 <- 248       -0.10723
 This state for optimization and/or second-order correction.
 Total Energy, E(TD-HF/TD-DFT) =  -3007.08716944
 Copying the excited state density for this state as the 1-particle RhoCI density.

 Excited State   2:      Singlet-A      2.1929 eV  565.38 nm  f=0.1098  <S**2>=0.000
     245 -> 247        0.64047
     246 -> 248        0.28866

 Excited State   3:      Singlet-A      3.3953 eV  365.16 nm  f=0.1972  <S**2>=0.000
     244 -> 247        0.48151
     245 -> 247        0.16297
     246 -> 248       -0.44625

 Excited State   4:      Singlet-A      3.5400 eV  350.24 nm  f=0.4216  <S**2>=0.000
     242 -> 247       -0.12591
     244 -> 247        0.46910
     245 -> 247       -0.22649
     246 -> 248        0.43675

 Excited State   5:      Singlet-A      3.6000 eV  344.40 nm  f=0.0002  <S**2>=0.000
     239 -> 247       -0.12528
     240 -> 247        0.44374
     240 -> 249        0.23785
     240 -> 251        0.13886
     241 -> 247       -0.27650
     241 -> 249       -0.15200
     242 -> 247        0.15549
     244 -> 247        0.14976

 The electronic state is 1-A.
 Alpha  occ. eigenvalues --  -46.89806 -19.26074 -19.24727 -19.21192 -19.20067
 Alpha  occ. eigenvalues --  -19.19530 -19.19256 -14.42297 -14.41840 -14.39145
 Alpha  occ. eigenvalues --  -14.39012 -10.40148 -10.39670 -10.36365 -10.35148
 Alpha  occ. eigenvalues --  -10.32488 -10.31192 -10.30642 -10.30490 -10.30438
 Alpha  occ. eigenvalues --  -10.29789 -10.29614 -10.29364 -10.29125 -10.29041
 Alpha  occ. eigenvalues --  -10.28881 -10.28560 -10.28044 -10.27889 -10.27713
 Alpha  occ. eigenvalues --  -10.27376 -10.27320 -10.27306 -10.27283 -10.27224
 Alpha  occ. eigenvalues --  -10.26880 -10.26759 -10.26517 -10.26496 -10.26480
 Alpha  occ. eigenvalues --  -10.26431 -10.26387 -10.26381 -10.26121 -10.26083
 Alpha  occ. eigenvalues --  -10.26038 -10.25948 -10.25773 -10.25623 -10.25596
 Alpha  occ. eigenvalues --  -10.25512 -10.25444 -10.25412 -10.25358 -10.25269
 Alpha  occ. eigenvalues --  -10.25248 -10.25077 -10.24976 -10.24961 -10.24871
 Alpha  occ. eigenvalues --  -10.24850 -10.24753 -10.24491 -10.24394 -10.24341
 Alpha  occ. eigenvalues --  -10.23934  -3.18278  -1.93160  -1.92738  -1.92581
 Alpha  occ. eigenvalues --   -1.16858  -1.15922  -1.09876  -1.08918  -1.08794
 Alpha  occ. eigenvalues --   -1.07633  -1.05662  -1.04952  -1.04507  -1.02832
 Alpha  occ. eigenvalues --   -0.92805  -0.90648  -0.90039  -0.89727  -0.89178
 Alpha  occ. eigenvalues --   -0.88447  -0.88428  -0.87507  -0.87440  -0.86898
 Alpha  occ. eigenvalues --   -0.85900  -0.85589  -0.84323  -0.83436  -0.83180
 Alpha  occ. eigenvalues --   -0.82564  -0.81693  -0.81332  -0.80862  -0.80419
 Alpha  occ. eigenvalues --   -0.80178  -0.78507  -0.78075  -0.77092  -0.75913
 Alpha  occ. eigenvalues --   -0.75482  -0.75187  -0.75168  -0.75056  -0.74555
 Alpha  occ. eigenvalues --   -0.72938  -0.72367  -0.71632  -0.70240  -0.69010
 Alpha  occ. eigenvalues --   -0.68552  -0.67760  -0.67141  -0.66616  -0.65767
 Alpha  occ. eigenvalues --   -0.65569  -0.65189  -0.64876  -0.64579  -0.64022
 Alpha  occ. eigenvalues --   -0.63860  -0.63089  -0.62703  -0.61778  -0.60641
 Alpha  occ. eigenvalues --   -0.60624  -0.59363  -0.58862  -0.58443  -0.57748
 Alpha  occ. eigenvalues --   -0.56833  -0.56663  -0.56354  -0.56117  -0.55625
 Alpha  occ. eigenvalues --   -0.55596  -0.55219  -0.54863  -0.54394  -0.54005
 Alpha  occ. eigenvalues --   -0.53738  -0.53604  -0.53170  -0.53010  -0.52859
 Alpha  occ. eigenvalues --   -0.52620  -0.52482  -0.52330  -0.52150  -0.51849
 Alpha  occ. eigenvalues --   -0.51449  -0.51141  -0.50875  -0.50699  -0.50687
 Alpha  occ. eigenvalues --   -0.50368  -0.50175  -0.49962  -0.49910  -0.49806
 Alpha  occ. eigenvalues --   -0.49679  -0.49515  -0.49345  -0.49218  -0.48835
 Alpha  occ. eigenvalues --   -0.48669  -0.48636  -0.48196  -0.48096  -0.47940
 Alpha  occ. eigenvalues --   -0.47737  -0.47588  -0.47399  -0.47151  -0.46763
 Alpha  occ. eigenvalues --   -0.46202  -0.46088  -0.45986  -0.45951  -0.45651
 Alpha  occ. eigenvalues --   -0.45234  -0.45048  -0.44977  -0.44867  -0.44702
 Alpha  occ. eigenvalues --   -0.44656  -0.44559  -0.44475  -0.44340  -0.44206
 Alpha  occ. eigenvalues --   -0.44005  -0.43653  -0.43591  -0.43315  -0.43170
 Alpha  occ. eigenvalues --   -0.42639  -0.42554  -0.42406  -0.41911  -0.41887
 Alpha  occ. eigenvalues --   -0.41834  -0.41686  -0.41501  -0.41250  -0.41006
 Alpha  occ. eigenvalues --   -0.40827  -0.40679  -0.40546  -0.40304  -0.40250
 Alpha  occ. eigenvalues --   -0.39800  -0.39334  -0.39269  -0.39026  -0.38919
 Alpha  occ. eigenvalues --   -0.38478  -0.38189  -0.38067  -0.38038  -0.37591
 Alpha  occ. eigenvalues --   -0.37215  -0.36728  -0.36624  -0.36490  -0.36194
 Alpha  occ. eigenvalues --   -0.35820  -0.35723  -0.35216  -0.34524  -0.34463
 Alpha  occ. eigenvalues --   -0.34279  -0.34025  -0.32371  -0.31551  -0.31295
 Alpha  occ. eigenvalues --   -0.31203  -0.30226  -0.29838  -0.29501  -0.23494
 Alpha  occ. eigenvalues --   -0.20835
 Alpha virt. eigenvalues --   -0.08166  -0.01475   0.00099   0.01506   0.02455
 Alpha virt. eigenvalues --    0.03770   0.04674   0.05608   0.05909   0.06846
 Alpha virt. eigenvalues --    0.07439   0.08006   0.08749   0.09095   0.09285

 Mulliken charges:
               1
     1  Mg   0.845442
     2  C    0.075247
     3  C   -0.067775
     4  C   -0.069611
     5  C   -0.085322
     6  N   -0.251533
     7  C   -0.044284
     8  C   -0.088872
     9  C   -0.051231
    10  C    0.026656
    11  C    0.073971
    12  C    0.100411
    13  C    0.070628
    14  C    0.170049
    15  O   -0.232994
    16  O   -0.353900
    17  N   -0.338452
    18  C    0.124483
    19  C   -0.144651
    20  C   -0.030598
    21  C    0.036445
    22  C    0.134133
    23  C    0.034685
    24  O   -0.217776
    25  C    0.044257
    26  N   -0.266136
    27  C    0.063293
    28  C   -0.045708
    29  C   -0.027166
    30  C    0.022481
    31  C    0.083277
    32  C    0.036735
    33  C   -0.005590
    34  N   -0.315892
    35  C    0.084234
    36  C   -0.141255
    37  C   -0.032987
    38  C    0.058651
    39  C    0.110109
    40  C    0.094239
    41  O   -0.156485
    42  C   -0.064473
    43  C    0.193300
    44  O   -0.244981
    45  O   -0.313678
    46  C    0.185419
    47  C    0.299404
    48  C   -0.169179
    49  C   -0.164632
    50  C    0.077130
    51  C    0.045439
    52  C    0.037506
    53  C    0.050284
    54  C   -0.160778
    55  C    0.041139
    56  C    0.072126
    57  C   -0.008171
    58  C    0.085668
    59  C   -0.194987
    60  C    0.075994
    61  C    0.067554
    62  C    0.018126
    63  C    0.022600
    64  C   -0.172714
    65  C    0.076913
    66  C    0.024239
    67  H   -0.047704
    68  H   -0.018068
    69  H   -0.032093
    70  H    0.010418
    71  H    0.008092
    72  H    0.016167
    73  H    0.019994
    74  H    0.021230
    75  H    0.004684
    76  H    0.032190
    77  H    0.008825
    78  H    0.058211
    79  H    0.032457
    80  H    0.020255
    81  H    0.023307
    82  H    0.045735
    83  H    0.026248
    84  H    0.026760
    85  H    0.008223
    86  H    0.011931
    87  H    0.018348
    88  H    0.024758
    89  H    0.018593
    90  H    0.023525
    91  H    0.005126
    92  H    0.017215
    93  H    0.006604
    94  H    0.015918
    95  H    0.042620
    96  H    0.023938
    97  H    0.028812
    98  H    0.062113
    99  H    0.019216
   100  H    0.029399
   101  H    0.021748
   102  H    0.034268
   103  H    0.051493
   104  H    0.009099
   105  H    0.027294
   106  H    0.031957
   107  H   -0.006760
   108  H    0.016168
   109  H   -0.008824
   110  H    0.000286
   111  H    0.000620
   112  H   -0.000286
   113  H    0.006533
   114  H    0.001194
   115  H    0.013363
   116  H   -0.008336
   117  H    0.002566
   118  H    0.001470
   119  H   -0.021145
   120  H   -0.005870
   121  H    0.012838
   122  H   -0.006092
   123  H   -0.000861
   124  H   -0.000486
   125  H    0.010299
   126  H    0.003577
   127  H   -0.004912
   128  H   -0.014934
   129  H   -0.004612
   130  H    0.003097
   131  H   -0.002377
   132  H   -0.002044
   133  H    0.000347
   134  H   -0.000775
   135  H   -0.001683
   136  H    0.013946
   137  H   -0.005102
   138  H    0.007881
   139  H    0.001672
   140  H    0.009881
 Sum of Mulliken charges =  -0.00000

 Dipole moment (field-independent basis, Debye):
    X=              4.2987    Y=              3.0982    Z=             -1.0248  Tot=              5.3970
 Quadrupole moment (field-independent basis, Debye-Ang):
   XX=           -383.0397   YY=           -435.9601   ZZ=           -405.8634
   XY=            -21.4389   XZ=              4.7125   YZ=              3.6878

 Normal termination of Gaussian 16 at Thu May  5 07:21:17 2022.
