 Gaussian 16, Revision A.03,
 Gaussian 16:  ES64L-G16RevA.03 25-Dec-2016

 ---------------------------------
 #p PBE1PBE/Def2SVP td=(nstates=5)
 ---------------------------------

 -----------------------------------------------------
 step_751_chromophore_15 TDDFT with PBE1PBE functional
 -----------------------------------------------------
 Symbolic Z-matrix:
 Charge =  0 Multiplicity = 1

                         Standard orientation:
 ---------------------------------------------------------------------
 Center     Atomic      Atomic             Coordinates (Angstroms)
 Number     Number       Type             X           Y           Z
 ---------------------------------------------------------------------
      1         12           0       -4.858916    1.087762   -0.363156
      2          6           0       -4.234157   -2.354877    0.212407
      3          6           0       -1.566440    1.542908   -0.571319
      4          6           0       -5.265914    4.304648    0.087664
      5          6           0       -8.148708    0.449774    0.650270
      6          7           0       -3.076543   -0.301499   -0.283161
      7          6           0       -3.046117   -1.637931   -0.119437
      8          6           0       -1.622271   -2.130694   -0.403749
      9          6           0       -0.738451   -0.869392   -0.237978
     10          6           0       -1.830978    0.194977   -0.282064
     11          6           0        0.235406   -0.799858    0.976802
     12          6           0       -1.530920   -2.838699   -1.753934
     13          6           0       -0.709041   -4.141119   -1.727808
     14          6           0        0.347644   -4.308906   -0.637511
     15          8           0        0.199708   -4.844784    0.448422
     16          8           0        1.534048   -3.715817   -1.054907
     17          7           0       -3.616816    2.765429   -0.490241
     18          6           0       -2.282919    2.740518   -0.710653
     19          6           0       -1.757735    4.039169   -0.858116
     20          6           0       -2.818066    4.898927   -0.659333
     21          6           0       -3.956990    4.027318   -0.301051
     22          6           0       -0.308004    4.348147   -1.112669
     23          6           0       -2.846811    6.481869   -0.702035
     24          8           0       -3.905039    7.135057   -0.578148
     25          6           0       -1.556495    7.268399   -0.986640
     26          7           0       -6.403700    2.164587    0.432209
     27          6           0       -6.332856    3.491238    0.428844
     28          6           0       -7.744158    4.196154    0.750234
     29          6           0       -8.677554    2.926912    0.882711
     30          6           0       -7.638587    1.774014    0.612334
     31          6           0       -7.722344    5.212878    1.863533
     32          6           0       -9.848461    2.810431   -0.125726
     33          6           0      -11.247496    2.481853    0.483278
     34          7           0       -6.122724   -0.621865    0.099251
     35          6           0       -7.425498   -0.762035    0.452033
     36          6           0       -7.848192   -2.186852    0.588252
     37          6           0       -6.563171   -2.848741    0.652343
     38          6           0       -5.563718   -1.841568    0.340918
     39          6           0       -9.246640   -2.684331    0.791631
     40          6           0       -5.920920   -4.148016    0.830100
     41          8           0       -6.402462   -5.247554    1.060932
     42          6           0       -4.446771   -3.773371    0.689888
     43          6           0       -3.685164   -4.968878    0.159371
     44          8           0       -3.473803   -5.188674   -1.039896
     45          8           0       -3.277089   -5.790217    1.207598
     46          6           0       -2.514709   -6.909516    0.829458
     47          6           0        2.627050   -3.872357   -0.068190
     48          6           0        3.747369   -3.235309   -0.804430
     49          6           0        5.067646   -3.241709   -0.556565
     50          6           0        5.813357   -3.911730    0.588812
     51          6           0        6.027208   -2.576652   -1.545804
     52          6           0        5.889664   -1.049770   -1.703594
     53          6           0        6.640565   -0.605338   -3.024039
     54          6           0        7.764027    0.445536   -2.673360
     55          6           0        7.981827    1.314068   -3.948335
     56          6           0        9.154118   -0.208966   -2.300162
     57          6           0        9.771261    0.389671   -0.998352
     58          6           0       11.278723    0.527961   -0.873242
     59          6           0       11.646850    2.039713   -0.737214
     60          6           0       12.259180    2.629768   -2.020498
     61          6           0       12.509194    2.238093    0.533041
     62          6           0       11.623517    2.192078    1.808179
     63          6           0       12.025302    1.126659    2.865583
     64          6           0       11.580678    1.522073    4.328578
     65          6           0       12.301064    0.755036    5.407041
     66          6           0       10.014344    1.320512    4.559171
     67          1           0       -0.490317    1.728831   -0.562017
     68          1           0       -5.356085    5.392537    0.112077
     69          1           0       -9.232686    0.322728    0.700506
     70          1           0       -1.323952   -2.854073    0.354715
     71          1           0       -0.076365   -0.930254   -1.102414
     72          1           0       -0.065356   -1.554464    1.703193
     73          1           0        0.176469    0.169179    1.471608
     74          1           0        1.244131   -1.056431    0.652947
     75          1           0       -1.165187   -2.161951   -2.526204
     76          1           0       -2.542504   -3.131293   -2.035644
     77          1           0       -0.120412   -4.019287   -2.637033
     78          1           0       -1.354223   -5.004910   -1.890335
     79          1           0       -0.343041    4.814049   -2.097984
     80          1           0        0.364949    3.492190   -1.072173
     81          1           0        0.061949    5.075977   -0.391018
     82          1           0       -0.823905    7.199476   -0.182361
     83          1           0       -1.749022    8.326384   -1.163451
     84          1           0       -1.179320    6.885446   -1.934457
     85          1           0       -8.029199    4.637976   -0.204044
     86          1           0       -8.932513    2.907142    1.941993
     87          1           0       -7.561350    6.148381    1.327967
     88          1           0       -6.841431    5.127961    2.500151
     89          1           0       -8.642377    5.407471    2.414336
     90          1           0       -9.658322    2.203553   -1.010710
     91          1           0       -9.980050    3.830536   -0.485748
     92          1           0      -11.105650    2.292672    1.547373
     93          1           0      -11.688862    1.582841    0.053707
     94          1           0      -12.054183    3.184511    0.275230
     95          1           0       -9.662833   -2.895772   -0.193751
     96          1           0       -9.795094   -1.972579    1.409750
     97          1           0       -9.330083   -3.580792    1.406465
     98          1           0       -3.977607   -3.779377    1.674259
     99          1           0       -2.954790   -7.509056    0.031632
    100          1           0       -2.291822   -7.643879    1.603359
    101          1           0       -1.584979   -6.490677    0.444682
    102          1           0        2.865760   -4.935286   -0.032502
    103          1           0        2.497331   -3.478452    0.939321
    104          1           0        3.415383   -2.754408   -1.724371
    105          1           0        6.322248   -3.168548    1.203128
    106          1           0        6.520890   -4.705689    0.346770
    107          1           0        5.053921   -4.417266    1.185759
    108          1           0        5.799368   -3.041676   -2.505353
    109          1           0        7.021541   -2.826937   -1.175665
    110          1           0        6.354745   -0.658883   -0.798754
    111          1           0        4.836805   -0.770440   -1.751966
    112          1           0        5.910167   -0.195881   -3.723150
    113          1           0        7.194669   -1.448059   -3.437356
    114          1           0        7.441619    1.152454   -1.908705
    115          1           0        8.825668    1.999387   -3.862826
    116          1           0        7.053709    1.869706   -4.078629
    117          1           0        7.969104    0.715449   -4.858628
    118          1           0        9.786626   -0.315443   -3.181255
    119          1           0        8.895895   -1.219740   -1.981267
    120          1           0        9.481911   -0.337546   -0.239594
    121          1           0        9.333017    1.374414   -0.835174
    122          1           0       11.769040    0.185811   -1.783697
    123          1           0       11.605590   -0.088208   -0.035752
    124          1           0       10.806013    2.716613   -0.582378
    125          1           0       11.599378    3.356628   -2.493053
    126          1           0       12.525338    1.792672   -2.666343
    127          1           0       13.140869    3.197342   -1.723379
    128          1           0       12.998972    3.210200    0.475855
    129          1           0       13.298445    1.486673    0.577479
    130          1           0       10.583748    1.941186    1.599923
    131          1           0       11.667965    3.196702    2.226964
    132          1           0       13.101331    0.959188    2.904064
    133          1           0       11.575169    0.190015    2.536635
    134          1           0       11.786169    2.571929    4.539408
    135          1           0       12.939461    0.091896    4.823158
    136          1           0       11.672861    0.358902    6.205182
    137          1           0       12.994416    1.425094    5.914944
    138          1           0        9.523471    2.263735    4.800016
    139          1           0        9.770798    0.715118    5.432078
    140          1           0        9.610722    0.854383    3.659939
 ---------------------------------------------------------------------

 SCF Done:  E(RPBE1PBE) =  -3005.33991904     A.U. after   15 cycles

 Excitation energies and oscillator strengths:

 Excited State   1:      Singlet-A      1.8804 eV  659.33 nm  f=0.3600  <S**2>=0.000
     245 -> 248        0.18239
     246 -> 247        0.68728
     246 <- 247       -0.10112
 This state for optimization and/or second-order correction.
 Total Energy, E(TD-HF/TD-DFT) =  -3005.27081400
 Copying the excited state density for this state as the 1-particle RhoCI density.

 Excited State   2:      Singlet-A      2.1802 eV  568.69 nm  f=0.1194  <S**2>=0.000
     245 -> 247        0.65363
     246 -> 248       -0.25213

 Excited State   3:      Singlet-A      3.1042 eV  399.40 nm  f=0.0079  <S**2>=0.000
     241 -> 247       -0.26858
     242 -> 247       -0.20589
     244 -> 247        0.55241
     246 -> 248        0.19773

 Excited State   4:      Singlet-A      3.1914 eV  388.49 nm  f=0.0003  <S**2>=0.000
     241 -> 247        0.48255
     241 -> 249       -0.13101
     242 -> 247        0.29305
     244 -> 247        0.34793

 Excited State   5:      Singlet-A      3.2976 eV  375.99 nm  f=0.2857  <S**2>=0.000
     241 -> 247       -0.10566
     242 -> 247        0.18042
     244 -> 247       -0.18909
     245 -> 247        0.20303
     245 -> 250       -0.11483
     246 -> 248        0.56492
     246 -> 249        0.11754
     246 -> 250       -0.11532

 The electronic state is 1-A.
 Alpha  occ. eigenvalues --  -46.93215 -19.26784 -19.25356 -19.21467 -19.20252
 Alpha  occ. eigenvalues --  -19.19804 -19.19344 -14.41695 -14.41396 -14.38771
 Alpha  occ. eigenvalues --  -14.38650 -10.37226 -10.36646 -10.33596 -10.32152
 Alpha  occ. eigenvalues --  -10.29894 -10.28919 -10.28344 -10.28269 -10.28225
 Alpha  occ. eigenvalues --  -10.27433 -10.27057 -10.26831 -10.26814 -10.26669
 Alpha  occ. eigenvalues --  -10.26646 -10.26276 -10.25588 -10.25551 -10.25521
 Alpha  occ. eigenvalues --  -10.25184 -10.25157 -10.25125 -10.25064 -10.24723
 Alpha  occ. eigenvalues --  -10.24562 -10.24162 -10.24095 -10.24087 -10.24070
 Alpha  occ. eigenvalues --  -10.24034 -10.23810 -10.23783 -10.23777 -10.23754
 Alpha  occ. eigenvalues --  -10.23602 -10.23583 -10.23458 -10.23211 -10.23201
 Alpha  occ. eigenvalues --  -10.23071 -10.23019 -10.23005 -10.22933 -10.22864
 Alpha  occ. eigenvalues --  -10.22735 -10.22719 -10.22656 -10.22506 -10.22429
 Alpha  occ. eigenvalues --  -10.22415 -10.22332 -10.21902 -10.21805 -10.21747
 Alpha  occ. eigenvalues --  -10.21321  -3.15267  -1.88088  -1.87647  -1.87492
 Alpha  occ. eigenvalues --   -1.11655  -1.10658  -1.04495  -1.03682  -1.03664
 Alpha  occ. eigenvalues --   -1.02396  -1.00356  -0.99627  -0.99191  -0.97492
 Alpha  occ. eigenvalues --   -0.87092  -0.84809  -0.84170  -0.83927  -0.83519
 Alpha  occ. eigenvalues --   -0.82709  -0.82557  -0.81782  -0.81613  -0.81235
 Alpha  occ. eigenvalues --   -0.80155  -0.79846  -0.78549  -0.77706  -0.77423
 Alpha  occ. eigenvalues --   -0.76808  -0.75894  -0.75503  -0.75124  -0.74646
 Alpha  occ. eigenvalues --   -0.74472  -0.72813  -0.72340  -0.71414  -0.70274
 Alpha  occ. eigenvalues --   -0.69676  -0.69540  -0.69258  -0.69199  -0.68729
 Alpha  occ. eigenvalues --   -0.67273  -0.66771  -0.66112  -0.64588  -0.63357
 Alpha  occ. eigenvalues --   -0.63005  -0.61993  -0.61600  -0.60851  -0.60238
 Alpha  occ. eigenvalues --   -0.60042  -0.59410  -0.59380  -0.59029  -0.58393
 Alpha  occ. eigenvalues --   -0.58127  -0.57245  -0.56910  -0.56323  -0.55235
 Alpha  occ. eigenvalues --   -0.55105  -0.53871  -0.53421  -0.53002  -0.52377
 Alpha  occ. eigenvalues --   -0.51251  -0.51206  -0.50782  -0.50691  -0.50091
 Alpha  occ. eigenvalues --   -0.50055  -0.49813  -0.49276  -0.48868  -0.48545
 Alpha  occ. eigenvalues --   -0.48247  -0.48091  -0.47666  -0.47414  -0.47393
 Alpha  occ. eigenvalues --   -0.47200  -0.46970  -0.46804  -0.46658  -0.46412
 Alpha  occ. eigenvalues --   -0.46022  -0.45755  -0.45401  -0.45312  -0.45232
 Alpha  occ. eigenvalues --   -0.44906  -0.44763  -0.44525  -0.44519  -0.44367
 Alpha  occ. eigenvalues --   -0.44229  -0.44072  -0.43926  -0.43820  -0.43427
 Alpha  occ. eigenvalues --   -0.43280  -0.43218  -0.42808  -0.42715  -0.42570
 Alpha  occ. eigenvalues --   -0.42387  -0.42252  -0.42047  -0.41840  -0.41400
 Alpha  occ. eigenvalues --   -0.40900  -0.40836  -0.40758  -0.40690  -0.40352
 Alpha  occ. eigenvalues --   -0.40010  -0.39818  -0.39741  -0.39670  -0.39463
 Alpha  occ. eigenvalues --   -0.39384  -0.39225  -0.39142  -0.39031  -0.38972
 Alpha  occ. eigenvalues --   -0.38807  -0.38374  -0.38300  -0.38079  -0.37912
 Alpha  occ. eigenvalues --   -0.37500  -0.37279  -0.37210  -0.36756  -0.36697
 Alpha  occ. eigenvalues --   -0.36679  -0.36532  -0.36257  -0.36086  -0.35829
 Alpha  occ. eigenvalues --   -0.35603  -0.35463  -0.35337  -0.35118  -0.35001
 Alpha  occ. eigenvalues --   -0.34707  -0.34253  -0.34083  -0.34046  -0.33734
 Alpha  occ. eigenvalues --   -0.33233  -0.33181  -0.33046  -0.32998  -0.32364
 Alpha  occ. eigenvalues --   -0.31954  -0.31689  -0.31587  -0.31439  -0.31263
 Alpha  occ. eigenvalues --   -0.30771  -0.30591  -0.30188  -0.29703  -0.29400
 Alpha  occ. eigenvalues --   -0.29213  -0.29009  -0.27806  -0.27080  -0.26138
 Alpha  occ. eigenvalues --   -0.26071  -0.25808  -0.25129  -0.25097  -0.20421
 Alpha  occ. eigenvalues --   -0.18463
 Alpha virt. eigenvalues --   -0.10694  -0.04991  -0.04083  -0.02081  -0.01111
 Alpha virt. eigenvalues --   -0.00816   0.00096   0.01096   0.01547   0.03509
 Alpha virt. eigenvalues --    0.03802   0.04228   0.04858   0.05790   0.06016

 Mulliken charges:
               1
     1  Mg   0.987271
     2  C    0.050194
     3  C   -0.071008
     4  C   -0.065714
     5  C   -0.070121
     6  N   -0.354387
     7  C    0.024112
     8  C   -0.158614
     9  C   -0.121420
    10  C    0.066919
    11  C    0.015986
    12  C    0.054117
    13  C   -0.003735
    14  C    0.229065
    15  O   -0.265506
    16  O   -0.385037
    17  N   -0.455209
    18  C    0.154576
    19  C   -0.182387
    20  C   -0.071313
    21  C    0.073692
    22  C    0.075016
    23  C    0.087120
    24  O   -0.253123
    25  C   -0.029195
    26  N   -0.380091
    27  C    0.092609
    28  C   -0.114382
    29  C   -0.100645
    30  C    0.055235
    31  C    0.021185
    32  C   -0.028015
    33  C   -0.074890
    34  N   -0.428498
    35  C    0.099045
    36  C   -0.145879
    37  C   -0.078716
    38  C    0.105190
    39  C    0.056387
    40  C    0.174978
    41  O   -0.205596
    42  C   -0.148190
    43  C    0.273939
    44  O   -0.279967
    45  O   -0.346581
    46  C    0.127215
    47  C    0.260826
    48  C   -0.179747
    49  C   -0.205086
    50  C    0.011430
    51  C   -0.023114
    52  C   -0.023186
    53  C   -0.007186
    54  C   -0.244794
    55  C   -0.021880
    56  C    0.017747
    57  C   -0.071261
    58  C    0.034075
    59  C   -0.282947
    60  C    0.019447
    61  C    0.010326
    62  C   -0.041988
    63  C   -0.040278
    64  C   -0.258707
    65  C    0.015050
    66  C   -0.034693
    67  H   -0.013098
    68  H    0.015941
    69  H    0.003421
    70  H    0.052826
    71  H    0.044873
    72  H    0.043789
    73  H    0.047421
    74  H    0.050328
    75  H    0.035780
    76  H    0.066600
    77  H    0.043866
    78  H    0.088616
    79  H    0.061068
    80  H    0.047012
    81  H    0.051584
    82  H    0.071465
    83  H    0.054096
    84  H    0.054057
    85  H    0.046208
    86  H    0.049155
    87  H    0.045672
    88  H    0.053065
    89  H    0.046493
    90  H    0.054958
    91  H    0.039757
    92  H    0.044117
    93  H    0.033962
    94  H    0.043235
    95  H    0.070063
    96  H    0.049234
    97  H    0.056079
    98  H    0.100015
    99  H    0.041992
   100  H    0.052352
   101  H    0.049515
   102  H    0.062186
   103  H    0.075522
   104  H    0.038226
   105  H    0.055351
   106  H    0.058905
   107  H    0.022508
   108  H    0.049774
   109  H    0.024454
   110  H    0.033933
   111  H    0.032914
   112  H    0.031592
   113  H    0.038914
   114  H    0.037549
   115  H    0.042196
   116  H    0.021444
   117  H    0.030827
   118  H    0.031587
   119  H    0.016243
   120  H    0.026504
   121  H    0.043471
   122  H    0.026741
   123  H    0.031981
   124  H    0.037460
   125  H    0.037267
   126  H    0.030074
   127  H    0.022613
   128  H    0.018035
   129  H    0.027993
   130  H    0.037329
   131  H    0.030109
   132  H    0.030738
   133  H    0.033450
   134  H    0.036606
   135  H    0.026437
   136  H    0.040077
   137  H    0.023496
   138  H    0.035170
   139  H    0.028378
   140  H    0.036757
 Sum of Mulliken charges =  -0.00000

 Dipole moment (field-independent basis, Debye):
    X=              4.3303    Y=              3.2354    Z=             -1.0623  Tot=              5.5089
 Quadrupole moment (field-independent basis, Debye-Ang):
   XX=           -377.6683   YY=           -432.9310   ZZ=           -403.2849
   XY=            -22.9178   XZ=              4.6461   YZ=              3.7602

 Normal termination of Gaussian 16 at Thu May  5 07:58:56 2022.
