 Gaussian 16, Revision A.03,
 Gaussian 16:  ES64L-G16RevA.03 25-Dec-2016

 --------------------------------
 #p wB97XD/Def2SVP td=(nstates=5)
 --------------------------------

 ----------------------------------------------------
 step_751_chromophore_15 TDDFT with wB97XD functional
 ----------------------------------------------------
 Symbolic Z-matrix:
 Charge =  0 Multiplicity = 1

                         Standard orientation:
 ---------------------------------------------------------------------
 Center     Atomic      Atomic             Coordinates (Angstroms)
 Number     Number       Type             X           Y           Z
 ---------------------------------------------------------------------
      1         12           0       -4.858916    1.087762   -0.363156
      2          6           0       -4.234157   -2.354877    0.212407
      3          6           0       -1.566440    1.542908   -0.571319
      4          6           0       -5.265914    4.304648    0.087664
      5          6           0       -8.148708    0.449774    0.650270
      6          7           0       -3.076543   -0.301499   -0.283161
      7          6           0       -3.046117   -1.637931   -0.119437
      8          6           0       -1.622271   -2.130694   -0.403749
      9          6           0       -0.738451   -0.869392   -0.237978
     10          6           0       -1.830978    0.194977   -0.282064
     11          6           0        0.235406   -0.799858    0.976802
     12          6           0       -1.530920   -2.838699   -1.753934
     13          6           0       -0.709041   -4.141119   -1.727808
     14          6           0        0.347644   -4.308906   -0.637511
     15          8           0        0.199708   -4.844784    0.448422
     16          8           0        1.534048   -3.715817   -1.054907
     17          7           0       -3.616816    2.765429   -0.490241
     18          6           0       -2.282919    2.740518   -0.710653
     19          6           0       -1.757735    4.039169   -0.858116
     20          6           0       -2.818066    4.898927   -0.659333
     21          6           0       -3.956990    4.027318   -0.301051
     22          6           0       -0.308004    4.348147   -1.112669
     23          6           0       -2.846811    6.481869   -0.702035
     24          8           0       -3.905039    7.135057   -0.578148
     25          6           0       -1.556495    7.268399   -0.986640
     26          7           0       -6.403700    2.164587    0.432209
     27          6           0       -6.332856    3.491238    0.428844
     28          6           0       -7.744158    4.196154    0.750234
     29          6           0       -8.677554    2.926912    0.882711
     30          6           0       -7.638587    1.774014    0.612334
     31          6           0       -7.722344    5.212878    1.863533
     32          6           0       -9.848461    2.810431   -0.125726
     33          6           0      -11.247496    2.481853    0.483278
     34          7           0       -6.122724   -0.621865    0.099251
     35          6           0       -7.425498   -0.762035    0.452033
     36          6           0       -7.848192   -2.186852    0.588252
     37          6           0       -6.563171   -2.848741    0.652343
     38          6           0       -5.563718   -1.841568    0.340918
     39          6           0       -9.246640   -2.684331    0.791631
     40          6           0       -5.920920   -4.148016    0.830100
     41          8           0       -6.402462   -5.247554    1.060932
     42          6           0       -4.446771   -3.773371    0.689888
     43          6           0       -3.685164   -4.968878    0.159371
     44          8           0       -3.473803   -5.188674   -1.039896
     45          8           0       -3.277089   -5.790217    1.207598
     46          6           0       -2.514709   -6.909516    0.829458
     47          6           0        2.627050   -3.872357   -0.068190
     48          6           0        3.747369   -3.235309   -0.804430
     49          6           0        5.067646   -3.241709   -0.556565
     50          6           0        5.813357   -3.911730    0.588812
     51          6           0        6.027208   -2.576652   -1.545804
     52          6           0        5.889664   -1.049770   -1.703594
     53          6           0        6.640565   -0.605338   -3.024039
     54          6           0        7.764027    0.445536   -2.673360
     55          6           0        7.981827    1.314068   -3.948335
     56          6           0        9.154118   -0.208966   -2.300162
     57          6           0        9.771261    0.389671   -0.998352
     58          6           0       11.278723    0.527961   -0.873242
     59          6           0       11.646850    2.039713   -0.737214
     60          6           0       12.259180    2.629768   -2.020498
     61          6           0       12.509194    2.238093    0.533041
     62          6           0       11.623517    2.192078    1.808179
     63          6           0       12.025302    1.126659    2.865583
     64          6           0       11.580678    1.522073    4.328578
     65          6           0       12.301064    0.755036    5.407041
     66          6           0       10.014344    1.320512    4.559171
     67          1           0       -0.490317    1.728831   -0.562017
     68          1           0       -5.356085    5.392537    0.112077
     69          1           0       -9.232686    0.322728    0.700506
     70          1           0       -1.323952   -2.854073    0.354715
     71          1           0       -0.076365   -0.930254   -1.102414
     72          1           0       -0.065356   -1.554464    1.703193
     73          1           0        0.176469    0.169179    1.471608
     74          1           0        1.244131   -1.056431    0.652947
     75          1           0       -1.165187   -2.161951   -2.526204
     76          1           0       -2.542504   -3.131293   -2.035644
     77          1           0       -0.120412   -4.019287   -2.637033
     78          1           0       -1.354223   -5.004910   -1.890335
     79          1           0       -0.343041    4.814049   -2.097984
     80          1           0        0.364949    3.492190   -1.072173
     81          1           0        0.061949    5.075977   -0.391018
     82          1           0       -0.823905    7.199476   -0.182361
     83          1           0       -1.749022    8.326384   -1.163451
     84          1           0       -1.179320    6.885446   -1.934457
     85          1           0       -8.029199    4.637976   -0.204044
     86          1           0       -8.932513    2.907142    1.941993
     87          1           0       -7.561350    6.148381    1.327967
     88          1           0       -6.841431    5.127961    2.500151
     89          1           0       -8.642377    5.407471    2.414336
     90          1           0       -9.658322    2.203553   -1.010710
     91          1           0       -9.980050    3.830536   -0.485748
     92          1           0      -11.105650    2.292672    1.547373
     93          1           0      -11.688862    1.582841    0.053707
     94          1           0      -12.054183    3.184511    0.275230
     95          1           0       -9.662833   -2.895772   -0.193751
     96          1           0       -9.795094   -1.972579    1.409750
     97          1           0       -9.330083   -3.580792    1.406465
     98          1           0       -3.977607   -3.779377    1.674259
     99          1           0       -2.954790   -7.509056    0.031632
    100          1           0       -2.291822   -7.643879    1.603359
    101          1           0       -1.584979   -6.490677    0.444682
    102          1           0        2.865760   -4.935286   -0.032502
    103          1           0        2.497331   -3.478452    0.939321
    104          1           0        3.415383   -2.754408   -1.724371
    105          1           0        6.322248   -3.168548    1.203128
    106          1           0        6.520890   -4.705689    0.346770
    107          1           0        5.053921   -4.417266    1.185759
    108          1           0        5.799368   -3.041676   -2.505353
    109          1           0        7.021541   -2.826937   -1.175665
    110          1           0        6.354745   -0.658883   -0.798754
    111          1           0        4.836805   -0.770440   -1.751966
    112          1           0        5.910167   -0.195881   -3.723150
    113          1           0        7.194669   -1.448059   -3.437356
    114          1           0        7.441619    1.152454   -1.908705
    115          1           0        8.825668    1.999387   -3.862826
    116          1           0        7.053709    1.869706   -4.078629
    117          1           0        7.969104    0.715449   -4.858628
    118          1           0        9.786626   -0.315443   -3.181255
    119          1           0        8.895895   -1.219740   -1.981267
    120          1           0        9.481911   -0.337546   -0.239594
    121          1           0        9.333017    1.374414   -0.835174
    122          1           0       11.769040    0.185811   -1.783697
    123          1           0       11.605590   -0.088208   -0.035752
    124          1           0       10.806013    2.716613   -0.582378
    125          1           0       11.599378    3.356628   -2.493053
    126          1           0       12.525338    1.792672   -2.666343
    127          1           0       13.140869    3.197342   -1.723379
    128          1           0       12.998972    3.210200    0.475855
    129          1           0       13.298445    1.486673    0.577479
    130          1           0       10.583748    1.941186    1.599923
    131          1           0       11.667965    3.196702    2.226964
    132          1           0       13.101331    0.959188    2.904064
    133          1           0       11.575169    0.190015    2.536635
    134          1           0       11.786169    2.571929    4.539408
    135          1           0       12.939461    0.091896    4.823158
    136          1           0       11.672861    0.358902    6.205182
    137          1           0       12.994416    1.425094    5.914944
    138          1           0        9.523471    2.263735    4.800016
    139          1           0        9.770798    0.715118    5.432078
    140          1           0        9.610722    0.854383    3.659939
 ---------------------------------------------------------------------

 SCF Done:  E(RwB97XD) =  -3007.85000833     A.U. after   19 cycles

 Excitation energies and oscillator strengths:

 Excited State   1:      Singlet-A      1.6822 eV  737.03 nm  f=0.3807  <S**2>=0.000
     245 -> 248       -0.19868
     246 -> 247        0.67894
     245 <- 248       -0.11637
 This state for optimization and/or second-order correction.
 Total Energy, E(TD-HF/TD-DFT) =  -3007.78818842
 Copying the excited state density for this state as the 1-particle RhoCI density.

 Excited State   2:      Singlet-A      2.1396 eV  579.48 nm  f=0.1064  <S**2>=0.000
     245 -> 247        0.63836
     246 -> 248        0.29172

 Excited State   3:      Singlet-A      3.3985 eV  364.82 nm  f=0.2079  <S**2>=0.000
     244 -> 247        0.47355
     245 -> 247        0.16434
     246 -> 248       -0.45166

 Excited State   4:      Singlet-A      3.5665 eV  347.63 nm  f=0.4519  <S**2>=0.000
     242 -> 247       -0.12122
     244 -> 247        0.47655
     245 -> 247       -0.23120
     246 -> 248        0.43150

 Excited State   5:      Singlet-A      3.6120 eV  343.26 nm  f=0.0004  <S**2>=0.000
     240 -> 247        0.50047
     240 -> 249       -0.29615
     240 -> 250       -0.18369
     241 -> 247       -0.13916
     242 -> 247        0.16426
     244 -> 247        0.12707

 The electronic state is 1-A.
 Alpha  occ. eigenvalues --  -46.96144 -19.31306 -19.29978 -19.26113 -19.25050
 Alpha  occ. eigenvalues --  -19.24551 -19.24346 -14.46884 -14.46376 -14.43753
 Alpha  occ. eigenvalues --  -14.43575 -10.43975 -10.43567 -10.40357 -10.39191
 Alpha  occ. eigenvalues --  -10.36381 -10.35236 -10.34654 -10.34499 -10.34430
 Alpha  occ. eigenvalues --  -10.33851 -10.33366 -10.33351 -10.33239 -10.33179
 Alpha  occ. eigenvalues --  -10.32857 -10.32741 -10.32111 -10.31977 -10.31750
 Alpha  occ. eigenvalues --  -10.31452 -10.31381 -10.31349 -10.31248 -10.31206
 Alpha  occ. eigenvalues --  -10.30895 -10.30621 -10.30577 -10.30488 -10.30425
 Alpha  occ. eigenvalues --  -10.30379 -10.30282 -10.30215 -10.30116 -10.30074
 Alpha  occ. eigenvalues --  -10.30045 -10.29955 -10.29724 -10.29568 -10.29560
 Alpha  occ. eigenvalues --  -10.29456 -10.29391 -10.29291 -10.29253 -10.29240
 Alpha  occ. eigenvalues --  -10.29082 -10.29019 -10.28978 -10.28880 -10.28793
 Alpha  occ. eigenvalues --  -10.28777 -10.28686 -10.28310 -10.28237 -10.28161
 Alpha  occ. eigenvalues --  -10.27737  -3.22075  -1.95642  -1.95200  -1.95041
 Alpha  occ. eigenvalues --   -1.19011  -1.18120  -1.12150  -1.11119  -1.10983
 Alpha  occ. eigenvalues --   -1.09847  -1.07659  -1.06959  -1.06536  -1.04897
 Alpha  occ. eigenvalues --   -0.94820  -0.92471  -0.91818  -0.91557  -0.91097
 Alpha  occ. eigenvalues --   -0.90263  -0.90224  -0.89396  -0.89267  -0.88805
 Alpha  occ. eigenvalues --   -0.87864  -0.87467  -0.86186  -0.85350  -0.85048
 Alpha  occ. eigenvalues --   -0.84432  -0.83594  -0.83186  -0.82787  -0.82284
 Alpha  occ. eigenvalues --   -0.82120  -0.80464  -0.79981  -0.78995  -0.77871
 Alpha  occ. eigenvalues --   -0.77342  -0.77131  -0.76952  -0.76879  -0.76391
 Alpha  occ. eigenvalues --   -0.74871  -0.74361  -0.73612  -0.72175  -0.70907
 Alpha  occ. eigenvalues --   -0.70570  -0.69632  -0.69123  -0.68490  -0.67725
 Alpha  occ. eigenvalues --   -0.67482  -0.67048  -0.66856  -0.66521  -0.65851
 Alpha  occ. eigenvalues --   -0.65817  -0.64913  -0.64541  -0.63773  -0.62635
 Alpha  occ. eigenvalues --   -0.62570  -0.61357  -0.60838  -0.60405  -0.59762
 Alpha  occ. eigenvalues --   -0.58821  -0.58611  -0.58243  -0.58092  -0.57518
 Alpha  occ. eigenvalues --   -0.57511  -0.57215  -0.56739  -0.56306  -0.55918
 Alpha  occ. eigenvalues --   -0.55666  -0.55501  -0.55058  -0.54917  -0.54758
 Alpha  occ. eigenvalues --   -0.54573  -0.54360  -0.54197  -0.54048  -0.53777
 Alpha  occ. eigenvalues --   -0.53366  -0.53067  -0.52802  -0.52620  -0.52579
 Alpha  occ. eigenvalues --   -0.52252  -0.52090  -0.51845  -0.51809  -0.51764
 Alpha  occ. eigenvalues --   -0.51635  -0.51436  -0.51304  -0.51122  -0.50761
 Alpha  occ. eigenvalues --   -0.50575  -0.50509  -0.50131  -0.49990  -0.49827
 Alpha  occ. eigenvalues --   -0.49652  -0.49494  -0.49326  -0.49058  -0.48638
 Alpha  occ. eigenvalues --   -0.48099  -0.48042  -0.47893  -0.47865  -0.47539
 Alpha  occ. eigenvalues --   -0.47173  -0.46946  -0.46903  -0.46818  -0.46607
 Alpha  occ. eigenvalues --   -0.46582  -0.46417  -0.46381  -0.46270  -0.46110
 Alpha  occ. eigenvalues --   -0.45923  -0.45582  -0.45460  -0.45213  -0.45079
 Alpha  occ. eigenvalues --   -0.44557  -0.44418  -0.44406  -0.43901  -0.43780
 Alpha  occ. eigenvalues --   -0.43744  -0.43600  -0.43372  -0.43119  -0.42933
 Alpha  occ. eigenvalues --   -0.42703  -0.42608  -0.42412  -0.42177  -0.42119
 Alpha  occ. eigenvalues --   -0.41696  -0.41225  -0.41131  -0.40929  -0.40786
 Alpha  occ. eigenvalues --   -0.40311  -0.40157  -0.40029  -0.39966  -0.39434
 Alpha  occ. eigenvalues --   -0.39040  -0.38696  -0.38568  -0.38341  -0.38170
 Alpha  occ. eigenvalues --   -0.37730  -0.37657  -0.37059  -0.36539  -0.36418
 Alpha  occ. eigenvalues --   -0.36126  -0.35998  -0.34581  -0.33680  -0.33288
 Alpha  occ. eigenvalues --   -0.33199  -0.32425  -0.31882  -0.31702  -0.25420
 Alpha  occ. eigenvalues --   -0.22649
 Alpha virt. eigenvalues --   -0.06513   0.00444   0.02168   0.04317   0.04958
 Alpha virt. eigenvalues --    0.06009   0.06817   0.07849   0.08289   0.09938
 Alpha virt. eigenvalues --    0.10328   0.10932   0.11483   0.12585   0.12785

 Mulliken charges:
               1
     1  Mg   0.979815
     2  C    0.051612
     3  C   -0.075614
     4  C   -0.079229
     5  C   -0.089838
     6  N   -0.318385
     7  C   -0.004531
     8  C   -0.127579
     9  C   -0.097680
    10  C    0.048107
    11  C    0.027622
    12  C    0.060336
    13  C    0.013849
    14  C    0.216895
    15  O   -0.261098
    16  O   -0.382225
    17  N   -0.421832
    18  C    0.140319
    19  C   -0.164915
    20  C   -0.070933
    21  C    0.062395
    22  C    0.086890
    23  C    0.081233
    24  O   -0.248056
    25  C   -0.017213
    26  N   -0.345041
    27  C    0.082170
    28  C   -0.090044
    29  C   -0.077992
    30  C    0.049282
    31  C    0.030486
    32  C   -0.013586
    33  C   -0.059288
    34  N   -0.395546
    35  C    0.094110
    36  C   -0.146106
    37  C   -0.076324
    38  C    0.090435
    39  C    0.066702
    40  C    0.164093
    41  O   -0.193925
    42  C   -0.116373
    43  C    0.252115
    44  O   -0.272186
    45  O   -0.345490
    46  C    0.148290
    47  C    0.268415
    48  C   -0.186711
    49  C   -0.192549
    50  C    0.026574
    51  C   -0.000099
    52  C   -0.008069
    53  C    0.009492
    54  C   -0.216848
    55  C   -0.007355
    56  C    0.032016
    57  C   -0.048942
    58  C    0.046322
    59  C   -0.250293
    60  C    0.030936
    61  C    0.026195
    62  C   -0.025020
    63  C   -0.021048
    64  C   -0.233025
    65  C    0.028298
    66  C   -0.021745
    67  H   -0.024859
    68  H    0.007551
    69  H   -0.007609
    70  H    0.032430
    71  H    0.034387
    72  H    0.037749
    73  H    0.042145
    74  H    0.043179
    75  H    0.029522
    76  H    0.056592
    77  H    0.037637
    78  H    0.083265
    79  H    0.054343
    80  H    0.044341
    81  H    0.045070
    82  H    0.067098
    83  H    0.052872
    84  H    0.047024
    85  H    0.034440
    86  H    0.038211
    87  H    0.039701
    88  H    0.047359
    89  H    0.041888
    90  H    0.047854
    91  H    0.030307
    92  H    0.037126
    93  H    0.027592
    94  H    0.038675
    95  H    0.066086
    96  H    0.044485
    97  H    0.052873
    98  H    0.091711
    99  H    0.037325
   100  H    0.049531
   101  H    0.037082
   102  H    0.056785
   103  H    0.072041
   104  H    0.034079
   105  H    0.049553
   106  H    0.054126
   107  H    0.015880
   108  H    0.040525
   109  H    0.014533
   110  H    0.023427
   111  H    0.025012
   112  H    0.025122
   113  H    0.027557
   114  H    0.025688
   115  H    0.036290
   116  H    0.013930
   117  H    0.023711
   118  H    0.024440
   119  H    0.002050
   120  H    0.018680
   121  H    0.029456
   122  H    0.016104
   123  H    0.022480
   124  H    0.023275
   125  H    0.032373
   126  H    0.023340
   127  H    0.016233
   128  H    0.010285
   129  H    0.018385
   130  H    0.023488
   131  H    0.022421
   132  H    0.020694
   133  H    0.022650
   134  H    0.025783
   135  H    0.019029
   136  H    0.034534
   137  H    0.017724
   138  H    0.029719
   139  H    0.021984
   140  H    0.029361
 Sum of Mulliken charges =  -0.00000

 Dipole moment (field-independent basis, Debye):
    X=              4.3470    Y=              3.1012    Z=             -1.0779  Tot=              5.4475
 Quadrupole moment (field-independent basis, Debye-Ang):
   XX=           -377.7261   YY=           -431.9247   ZZ=           -402.8341
   XY=            -21.0515   XZ=              4.6632   YZ=              3.3555

 Normal termination of Gaussian 16 at Thu May  5 08:40:42 2022.
