 Gaussian 16, Revision A.03,
 Gaussian 16:  ES64L-G16RevA.03 25-Dec-2016

 --------------------
 #p ZINDO=(nstates=5)
 --------------------

 -----------------------------
 step_751_chromophore_15 ZINDO
 -----------------------------
 Symbolic Z-matrix:
 Charge =  0 Multiplicity = 1

                         Standard orientation:
 ---------------------------------------------------------------------
 Center     Atomic      Atomic             Coordinates (Angstroms)
 Number     Number       Type             X           Y           Z
 ---------------------------------------------------------------------
      1         12           0       -4.858916    1.087762   -0.363156
      2          6           0       -4.234157   -2.354877    0.212407
      3          6           0       -1.566440    1.542908   -0.571319
      4          6           0       -5.265914    4.304648    0.087664
      5          6           0       -8.148708    0.449774    0.650270
      6          7           0       -3.076543   -0.301499   -0.283161
      7          6           0       -3.046117   -1.637931   -0.119437
      8          6           0       -1.622271   -2.130694   -0.403749
      9          6           0       -0.738451   -0.869392   -0.237978
     10          6           0       -1.830978    0.194977   -0.282064
     11          6           0        0.235406   -0.799858    0.976802
     12          6           0       -1.530920   -2.838699   -1.753934
     13          6           0       -0.709041   -4.141119   -1.727808
     14          6           0        0.347644   -4.308906   -0.637511
     15          8           0        0.199708   -4.844784    0.448422
     16          8           0        1.534048   -3.715817   -1.054907
     17          7           0       -3.616816    2.765429   -0.490241
     18          6           0       -2.282919    2.740518   -0.710653
     19          6           0       -1.757735    4.039169   -0.858116
     20          6           0       -2.818066    4.898927   -0.659333
     21          6           0       -3.956990    4.027318   -0.301051
     22          6           0       -0.308004    4.348147   -1.112669
     23          6           0       -2.846811    6.481869   -0.702035
     24          8           0       -3.905039    7.135057   -0.578148
     25          6           0       -1.556495    7.268399   -0.986640
     26          7           0       -6.403700    2.164587    0.432209
     27          6           0       -6.332856    3.491238    0.428844
     28          6           0       -7.744158    4.196154    0.750234
     29          6           0       -8.677554    2.926912    0.882711
     30          6           0       -7.638587    1.774014    0.612334
     31          6           0       -7.722344    5.212878    1.863533
     32          6           0       -9.848461    2.810431   -0.125726
     33          6           0      -11.247496    2.481853    0.483278
     34          7           0       -6.122724   -0.621865    0.099251
     35          6           0       -7.425498   -0.762035    0.452033
     36          6           0       -7.848192   -2.186852    0.588252
     37          6           0       -6.563171   -2.848741    0.652343
     38          6           0       -5.563718   -1.841568    0.340918
     39          6           0       -9.246640   -2.684331    0.791631
     40          6           0       -5.920920   -4.148016    0.830100
     41          8           0       -6.402462   -5.247554    1.060932
     42          6           0       -4.446771   -3.773371    0.689888
     43          6           0       -3.685164   -4.968878    0.159371
     44          8           0       -3.473803   -5.188674   -1.039896
     45          8           0       -3.277089   -5.790217    1.207598
     46          6           0       -2.514709   -6.909516    0.829458
     47          6           0        2.627050   -3.872357   -0.068190
     48          6           0        3.747369   -3.235309   -0.804430
     49          6           0        5.067646   -3.241709   -0.556565
     50          6           0        5.813357   -3.911730    0.588812
     51          6           0        6.027208   -2.576652   -1.545804
     52          6           0        5.889664   -1.049770   -1.703594
     53          6           0        6.640565   -0.605338   -3.024039
     54          6           0        7.764027    0.445536   -2.673360
     55          6           0        7.981827    1.314068   -3.948335
     56          6           0        9.154118   -0.208966   -2.300162
     57          6           0        9.771261    0.389671   -0.998352
     58          6           0       11.278723    0.527961   -0.873242
     59          6           0       11.646850    2.039713   -0.737214
     60          6           0       12.259180    2.629768   -2.020498
     61          6           0       12.509194    2.238093    0.533041
     62          6           0       11.623517    2.192078    1.808179
     63          6           0       12.025302    1.126659    2.865583
     64          6           0       11.580678    1.522073    4.328578
     65          6           0       12.301064    0.755036    5.407041
     66          6           0       10.014344    1.320512    4.559171
     67          1           0       -0.490317    1.728831   -0.562017
     68          1           0       -5.356085    5.392537    0.112077
     69          1           0       -9.232686    0.322728    0.700506
     70          1           0       -1.323952   -2.854073    0.354715
     71          1           0       -0.076365   -0.930254   -1.102414
     72          1           0       -0.065356   -1.554464    1.703193
     73          1           0        0.176469    0.169179    1.471608
     74          1           0        1.244131   -1.056431    0.652947
     75          1           0       -1.165187   -2.161951   -2.526204
     76          1           0       -2.542504   -3.131293   -2.035644
     77          1           0       -0.120412   -4.019287   -2.637033
     78          1           0       -1.354223   -5.004910   -1.890335
     79          1           0       -0.343041    4.814049   -2.097984
     80          1           0        0.364949    3.492190   -1.072173
     81          1           0        0.061949    5.075977   -0.391018
     82          1           0       -0.823905    7.199476   -0.182361
     83          1           0       -1.749022    8.326384   -1.163451
     84          1           0       -1.179320    6.885446   -1.934457
     85          1           0       -8.029199    4.637976   -0.204044
     86          1           0       -8.932513    2.907142    1.941993
     87          1           0       -7.561350    6.148381    1.327967
     88          1           0       -6.841431    5.127961    2.500151
     89          1           0       -8.642377    5.407471    2.414336
     90          1           0       -9.658322    2.203553   -1.010710
     91          1           0       -9.980050    3.830536   -0.485748
     92          1           0      -11.105650    2.292672    1.547373
     93          1           0      -11.688862    1.582841    0.053707
     94          1           0      -12.054183    3.184511    0.275230
     95          1           0       -9.662833   -2.895772   -0.193751
     96          1           0       -9.795094   -1.972579    1.409750
     97          1           0       -9.330083   -3.580792    1.406465
     98          1           0       -3.977607   -3.779377    1.674259
     99          1           0       -2.954790   -7.509056    0.031632
    100          1           0       -2.291822   -7.643879    1.603359
    101          1           0       -1.584979   -6.490677    0.444682
    102          1           0        2.865760   -4.935286   -0.032502
    103          1           0        2.497331   -3.478452    0.939321
    104          1           0        3.415383   -2.754408   -1.724371
    105          1           0        6.322248   -3.168548    1.203128
    106          1           0        6.520890   -4.705689    0.346770
    107          1           0        5.053921   -4.417266    1.185759
    108          1           0        5.799368   -3.041676   -2.505353
    109          1           0        7.021541   -2.826937   -1.175665
    110          1           0        6.354745   -0.658883   -0.798754
    111          1           0        4.836805   -0.770440   -1.751966
    112          1           0        5.910167   -0.195881   -3.723150
    113          1           0        7.194669   -1.448059   -3.437356
    114          1           0        7.441619    1.152454   -1.908705
    115          1           0        8.825668    1.999387   -3.862826
    116          1           0        7.053709    1.869706   -4.078629
    117          1           0        7.969104    0.715449   -4.858628
    118          1           0        9.786626   -0.315443   -3.181255
    119          1           0        8.895895   -1.219740   -1.981267
    120          1           0        9.481911   -0.337546   -0.239594
    121          1           0        9.333017    1.374414   -0.835174
    122          1           0       11.769040    0.185811   -1.783697
    123          1           0       11.605590   -0.088208   -0.035752
    124          1           0       10.806013    2.716613   -0.582378
    125          1           0       11.599378    3.356628   -2.493053
    126          1           0       12.525338    1.792672   -2.666343
    127          1           0       13.140869    3.197342   -1.723379
    128          1           0       12.998972    3.210200    0.475855
    129          1           0       13.298445    1.486673    0.577479
    130          1           0       10.583748    1.941186    1.599923
    131          1           0       11.667965    3.196702    2.226964
    132          1           0       13.101331    0.959188    2.904064
    133          1           0       11.575169    0.190015    2.536635
    134          1           0       11.786169    2.571929    4.539408
    135          1           0       12.939461    0.091896    4.823158
    136          1           0       11.672861    0.358902    6.205182
    137          1           0       12.994416    1.425094    5.914944
    138          1           0        9.523471    2.263735    4.800016
    139          1           0        9.770798    0.715118    5.432078
    140          1           0        9.610722    0.854383    3.659939
 ---------------------------------------------------------------------

 SCF Done:  E(RZINDO/S) =  -474.372036065     A.U. after   19 cycles

 Excitation energies and oscillator strengths:

 Excited State   1:      Singlet-A      1.2693 eV  976.75 nm  f=0.5867  <S**2>=0.000
     175 ->178        -0.20710
     176 ->177         0.65836
 This state for optimization and/or second-order correction.
 Total Energy, E(CIS/TDA) =  -474.325388356
 Copying the excited state density for this state as the 1-particle RhoCI density.

 Excited State   2:      Singlet-A      1.8715 eV  662.48 nm  f=0.0222  <S**2>=0.000
     175 ->177         0.52942
     176 ->178         0.44405

 Excited State   3:      Singlet-A      2.8782 eV  430.76 nm  f=0.5018  <S**2>=0.000
     172 ->177        -0.10558
     175 ->177        -0.28795
     176 ->178         0.39169
     176 ->179         0.41322

 Excited State   4:      Singlet-A      2.9247 eV  423.92 nm  f=0.1360  <S**2>=0.000
     175 ->177         0.15523
     176 ->178        -0.19240
     176 ->179         0.28022
     176 ->180         0.57767
     176 ->181        -0.11322

 Excited State   5:      Singlet-A      3.0214 eV  410.35 nm  f=0.1819  <S**2>=0.000
     168 ->177         0.32419
     168 ->178        -0.14111
     168 ->179        -0.35081
     168 ->181         0.18817
     168 ->185        -0.16769
     168 ->194         0.10906
     170 ->177         0.10737
     175 ->177         0.15635
     176 ->178        -0.18395

 The electronic state is 1-A.
 Alpha  occ. eigenvalues --   -1.85045  -1.82632  -1.81988  -1.73990  -1.73248
 Alpha  occ. eigenvalues --   -1.71045  -1.65439  -1.60518  -1.58761  -1.55397
 Alpha  occ. eigenvalues --   -1.55038  -1.52146  -1.49059  -1.47774  -1.47250
 Alpha  occ. eigenvalues --   -1.45473  -1.43162  -1.41542  -1.39176  -1.37950
 Alpha  occ. eigenvalues --   -1.37055  -1.33522  -1.33056  -1.31980  -1.29741
 Alpha  occ. eigenvalues --   -1.28690  -1.25313  -1.21980  -1.20832  -1.18408
 Alpha  occ. eigenvalues --   -1.17924  -1.15084  -1.14870  -1.13905  -1.13689
 Alpha  occ. eigenvalues --   -1.12498  -1.11736  -1.09970  -1.04643  -1.03185
 Alpha  occ. eigenvalues --   -1.01300  -1.00802  -0.97627  -0.97470  -0.96972
 Alpha  occ. eigenvalues --   -0.95835  -0.94198  -0.93500  -0.93218  -0.92235
 Alpha  occ. eigenvalues --   -0.90564  -0.90371  -0.89352  -0.88788  -0.87328
 Alpha  occ. eigenvalues --   -0.86967  -0.86735  -0.83719  -0.83455  -0.80759
 Alpha  occ. eigenvalues --   -0.79576  -0.78698  -0.77576  -0.77099  -0.76042
 Alpha  occ. eigenvalues --   -0.75082  -0.74198  -0.73640  -0.73213  -0.73054
 Alpha  occ. eigenvalues --   -0.72305  -0.71443  -0.71160  -0.70982  -0.70015
 Alpha  occ. eigenvalues --   -0.69482  -0.69221  -0.69049  -0.68462  -0.67815
 Alpha  occ. eigenvalues --   -0.67502  -0.67460  -0.67037  -0.66642  -0.66098
 Alpha  occ. eigenvalues --   -0.65294  -0.65032  -0.64458  -0.64208  -0.63591
 Alpha  occ. eigenvalues --   -0.63384  -0.62705  -0.62635  -0.62305  -0.61908
 Alpha  occ. eigenvalues --   -0.61285  -0.61060  -0.60653  -0.60335  -0.60264
 Alpha  occ. eigenvalues --   -0.59475  -0.59305  -0.58659  -0.58559  -0.58491
 Alpha  occ. eigenvalues --   -0.58006  -0.57567  -0.57241  -0.57136  -0.56688
 Alpha  occ. eigenvalues --   -0.56592  -0.55561  -0.55334  -0.55285  -0.54312
 Alpha  occ. eigenvalues --   -0.54042  -0.53905  -0.53093  -0.52985  -0.52932
 Alpha  occ. eigenvalues --   -0.52818  -0.52067  -0.51628  -0.51319  -0.51187
 Alpha  occ. eigenvalues --   -0.51087  -0.50859  -0.50514  -0.50406  -0.50172
 Alpha  occ. eigenvalues --   -0.50014  -0.49800  -0.48951  -0.48902  -0.48825
 Alpha  occ. eigenvalues --   -0.48619  -0.48546  -0.48238  -0.48033  -0.47455
 Alpha  occ. eigenvalues --   -0.47130  -0.47084  -0.46873  -0.46435  -0.46357
 Alpha  occ. eigenvalues --   -0.45899  -0.45752  -0.45705  -0.45278  -0.45181
 Alpha  occ. eigenvalues --   -0.44995  -0.44970  -0.44802  -0.44433  -0.44268
 Alpha  occ. eigenvalues --   -0.43289  -0.43227  -0.43010  -0.42785  -0.42568
 Alpha  occ. eigenvalues --   -0.42073  -0.41479  -0.40966  -0.39027  -0.38614
 Alpha  occ. eigenvalues --   -0.37845  -0.37575  -0.35781  -0.35455  -0.34165
 Alpha  occ. eigenvalues --   -0.33063  -0.32794  -0.32247  -0.32045  -0.26260
 Alpha  occ. eigenvalues --   -0.21455
 Alpha virt. eigenvalues --   -0.08009  -0.02090  -0.00549   0.01000   0.01463
 Alpha virt. eigenvalues --    0.01957   0.02245   0.03128   0.04809   0.04969
 Alpha virt. eigenvalues --    0.06369   0.06618   0.07258   0.07712   0.08332

 Mulliken charges:
               1
     1  Mg   0.437822
     2  C   -0.051026
     3  C   -0.068074
     4  C   -0.070062
     5  C   -0.099946
     6  N   -0.268124
     7  C    0.136375
     8  C    0.011724
     9  C   -0.000917
    10  C    0.099045
    11  C   -0.051158
    12  C   -0.010323
    13  C   -0.000098
    14  C    0.471424
    15  O   -0.518524
    16  O   -0.273150
    17  N   -0.309481
    18  C    0.085649
    19  C    0.017381
    20  C   -0.060713
    21  C    0.135084
    22  C   -0.044847
    23  C    0.317405
    24  O   -0.525512
    25  C   -0.027721
    26  N   -0.237989
    27  C    0.117511
    28  C   -0.005060
    29  C   -0.006088
    30  C    0.150843
    31  C   -0.048623
    32  C   -0.024796
    33  C   -0.062321
    34  N   -0.332161
    35  C    0.120582
    36  C    0.039327
    37  C   -0.058225
    38  C    0.103939
    39  C   -0.030180
    40  C    0.348195
    41  O   -0.504482
    42  C    0.058440
    43  C    0.482998
    44  O   -0.531599
    45  O   -0.252834
    46  C    0.075832
    47  C    0.107341
    48  C   -0.083425
    49  C   -0.024308
    50  C   -0.043116
    51  C   -0.029430
    52  C   -0.036526
    53  C   -0.038017
    54  C   -0.021676
    55  C   -0.065344
    56  C   -0.040714
    57  C   -0.038841
    58  C   -0.030861
    59  C   -0.018281
    60  C   -0.063772
    61  C   -0.034247
    62  C   -0.040061
    63  C   -0.031635
    64  C   -0.016949
    65  C   -0.062998
    66  C   -0.066060
    67  H    0.005347
    68  H    0.036812
    69  H    0.022150
    70  H    0.033497
    71  H    0.029120
    72  H    0.021483
    73  H    0.025916
    74  H    0.023853
    75  H    0.025979
    76  H    0.034535
    77  H    0.019716
    78  H    0.064027
    79  H    0.032188
    80  H    0.028829
    81  H    0.025825
    82  H    0.040508
    83  H    0.034550
    84  H    0.033524
    85  H    0.030510
    86  H    0.038376
    87  H    0.015006
    88  H    0.029694
    89  H    0.026381
    90  H    0.034745
    91  H    0.012295
    92  H    0.021267
    93  H    0.012526
    94  H    0.025633
    95  H    0.044874
    96  H    0.027826
    97  H    0.032583
    98  H    0.056225
    99  H    0.037858
   100  H    0.033794
   101  H    0.040984
   102  H    0.049585
   103  H    0.064180
   104  H    0.030933
   105  H    0.029454
   106  H    0.032756
   107  H    0.009155
   108  H    0.024587
   109  H    0.020607
   110  H    0.022799
   111  H    0.024968
   112  H    0.025619
   113  H    0.026649
   114  H    0.025689
   115  H    0.022470
   116  H    0.004159
   117  H    0.020499
   118  H    0.031470
   119  H    0.007420
   120  H    0.015402
   121  H    0.025450
   122  H    0.021045
   123  H    0.023807
   124  H    0.019933
   125  H    0.020531
   126  H    0.023875
   127  H    0.015634
   128  H    0.013069
   129  H    0.019244
   130  H    0.021058
   131  H    0.018135
   132  H    0.016661
   133  H    0.021041
   134  H    0.021317
   135  H    0.023582
   136  H    0.030542
   137  H    0.006310
   138  H    0.016108
   139  H    0.019012
   140  H    0.020186
 Sum of Mulliken charges =   0.00000

 Dipole moment (field-independent basis, Debye):
    X=              4.7939    Y=              2.7471    Z=             -0.7401  Tot=              5.5746
 N-N= 4.365800331030D+03 E-N= 0.000000000000D+00  KE=-9.406077381720D+03
 Leave Link  601 at Thu May  5 08:59:17 2022, MaxMem=  6710886400 cpu:               0.7 elap:               0.0
 (Enter /sw/apps/gaussian-16.0/g16/l9999.exe)
 1\1\GINC-BP1-COMPUTE164\SP\RZINDO CIS\STO-3G\C55H74Mg1N4O6\OF15641\05-
 May-2022\0\\#p ZINDO=(nstates=5)\\step_751_chromophore_15 ZINDO\\0,1\M
 g,0,47.242,34.809,27.677\C,0,45.784,32.81,30.217\C,0,47.572,37.242,29.
 927\C,0,47.651,36.991,25.271\C,0,46.087,32.406,25.408\N,0,46.805,34.96
 7,29.89\C,0,46.296,34.041,30.725\C,0,46.445,34.549,32.164\C,0,46.619,3
 6.081,32.015\C,0,46.938,36.141,30.524\C,0,45.468,37.01,32.506\C,0,47.5
 62,33.818,32.906\C,0,47.197,33.404,34.344\C,0,46.104,34.188,35.068\O,0

 Normal termination of Gaussian 16 at Thu May  5 08:59:17 2022.
