 Gaussian 16, Revision A.03,
 Gaussian 16:  ES64L-G16RevA.03 25-Dec-2016

 ------------------------------
 #p blyp/Def2SVP td=(nstates=5)
 ------------------------------

 --------------------------------------------------
 step_851_chromophore_26 TDDFT with blyp functional
 --------------------------------------------------
 Symbolic Z-matrix:
 Charge =  0 Multiplicity = 1

                         Standard orientation:
 ---------------------------------------------------------------------
 Center     Atomic      Atomic             Coordinates (Angstroms)
 Number     Number       Type             X           Y           Z
 ---------------------------------------------------------------------
      1         12           0       -3.882739    1.462517    0.455925
      2          6           0       -5.158628   -1.833991    0.079312
      3          6           0       -2.509650    0.350411    3.478519
      4          6           0       -2.475451    4.429524    0.583684
      5          6           0       -4.642508    2.032195   -2.922006
      6          7           0       -3.625717   -0.568709    1.536803
      7          6           0       -4.331309   -1.670951    1.186746
      8          6           0       -3.945900   -2.860964    2.064620
      9          6           0       -3.398178   -2.123255    3.326973
     10          6           0       -3.181629   -0.718086    2.780051
     11          6           0       -4.314978   -1.910945    4.663069
     12          6           0       -3.086035   -3.924861    1.325541
     13          6           0       -1.828632   -3.367900    0.630216
     14          6           0       -0.749694   -4.411376    0.147930
     15          8           0       -0.702747   -5.584121    0.554772
     16          8           0        0.244619   -3.866907   -0.602284
     17          7           0       -2.576685    2.278270    1.825363
     18          6           0       -2.200553    1.713583    3.067605
     19          6           0       -1.386654    2.694369    3.740096
     20          6           0       -1.395234    3.906796    2.973565
     21          6           0       -2.139758    3.634426    1.732460
     22          6           0       -0.651293    2.332345    4.970708
     23          6           0       -0.722899    5.171492    3.388732
     24          8           0       -0.091989    5.293295    4.458959
     25          6           0       -0.821621    6.381732    2.524961
     26          7           0       -3.406260    2.852992   -1.011441
     27          6           0       -3.076041    4.121084   -0.600650
     28          6           0       -3.288120    5.198464   -1.712508
     29          6           0       -3.546298    4.304679   -2.952860
     30          6           0       -3.868354    2.978461   -2.285773
     31          6           0       -4.529653    6.222700   -1.461961
     32          6           0       -2.387885    4.123423   -3.954632
     33          6           0       -2.593300    4.429789   -5.438416
     34          7           0       -4.949342    0.443250   -1.015109
     35          6           0       -5.102090    0.779685   -2.360918
     36          6           0       -5.917265   -0.252383   -2.947609
     37          6           0       -6.038012   -1.256282   -2.015163
     38          6           0       -5.331693   -0.831547   -0.859562
     39          6           0       -6.476408   -0.346786   -4.356606
     40          6           0       -6.482897   -2.538143   -1.794990
     41          8           0       -7.052320   -3.284876   -2.568874
     42          6           0       -6.024434   -2.989791   -0.370208
     43          6           0       -7.176452   -3.444248    0.426610
     44          8           0       -7.358179   -4.578738    0.872730
     45          8           0       -8.100768   -2.399539    0.594566
     46          6           0       -9.510571   -2.586411    1.025033
     47          6           0        1.337110   -4.779597   -0.930465
     48          6           0        2.228307   -4.060699   -1.833635
     49          6           0        3.245699   -3.334106   -1.478122
     50          6           0        3.816450   -3.165765   -0.085169
     51          6           0        4.139751   -2.637197   -2.474579
     52          6           0        3.972290   -1.127903   -2.475909
     53          6           0        5.194934   -0.355761   -2.737943
     54          6           0        5.705529    0.258277   -1.480699
     55          6           0        6.079170    1.753731   -1.724445
     56          6           0        6.846608   -0.469527   -0.814831
     57          6           0        7.010114   -0.126295    0.664941
     58          6           0        7.963926   -1.108658    1.366868
     59          6           0        9.367391   -0.349378    1.568568
     60          6           0       10.191504   -0.998858    2.773518
     61          6           0       10.259530   -0.662357    0.311413
     62          6           0       11.306176    0.446559    0.159551
     63          6           0       12.757652   -0.171010    0.179218
     64          6           0       13.704916    0.331241   -1.017256
     65          6           0       14.602429   -0.847561   -1.396304
     66          6           0       14.466265    1.544021   -0.648112
     67          1           0       -2.116687    0.030810    4.446551
     68          1           0       -2.389750    5.518236    0.597786
     69          1           0       -4.973936    2.284658   -3.930473
     70          1           0       -4.819033   -3.398457    2.433648
     71          1           0       -2.472244   -2.571350    3.686854
     72          1           0       -3.902576   -2.521959    5.465677
     73          1           0       -5.271542   -2.387101    4.446675
     74          1           0       -4.337587   -0.858162    4.943456
     75          1           0       -3.716342   -4.440803    0.601187
     76          1           0       -2.830061   -4.671986    2.076570
     77          1           0       -1.282892   -2.622893    1.209906
     78          1           0       -2.197579   -2.847130   -0.253365
     79          1           0        0.259905    2.925986    5.044746
     80          1           0       -0.372294    1.279022    4.998369
     81          1           0       -1.144635    2.713865    5.864351
     82          1           0       -1.832414    6.768707    2.401124
     83          1           0       -0.488483    6.140542    1.515268
     84          1           0       -0.209726    7.157009    2.986105
     85          1           0       -2.417785    5.787064   -2.002604
     86          1           0       -4.421664    4.607494   -3.526011
     87          1           0       -4.208228    7.235665   -1.706177
     88          1           0       -4.907067    6.206050   -0.440122
     89          1           0       -5.280739    5.891042   -2.178982
     90          1           0       -1.950867    3.128394   -3.865491
     91          1           0       -1.604739    4.833267   -3.691088
     92          1           0       -3.612563    4.740482   -5.665128
     93          1           0       -2.378071    3.620472   -6.137639
     94          1           0       -2.027914    5.338292   -5.644166
     95          1           0       -7.184541   -1.172513   -4.425522
     96          1           0       -5.700353   -0.592519   -5.081925
     97          1           0       -6.876355    0.643520   -4.577506
     98          1           0       -5.436313   -3.906061   -0.320628
     99          1           0       -9.892314   -3.597985    0.887084
    100          1           0      -10.185280   -1.897939    0.516637
    101          1           0       -9.702515   -2.239738    2.040349
    102          1           0        0.909868   -5.664942   -1.403622
    103          1           0        1.921987   -5.295356   -0.169676
    104          1           0        2.071392   -4.107654   -2.911331
    105          1           0        4.799478   -3.636135   -0.094176
    106          1           0        3.299642   -3.713444    0.702034
    107          1           0        3.956027   -2.140724    0.257950
    108          1           0        3.966951   -3.036381   -3.474712
    109          1           0        5.189995   -2.887948   -2.329353
    110          1           0        3.392016   -0.779950   -1.622841
    111          1           0        3.261634   -0.929673   -3.278806
    112          1           0        4.923590    0.332096   -3.538621
    113          1           0        6.053115   -0.913041   -3.114831
    114          1           0        4.878013    0.386823   -0.782363
    115          1           0        5.934646    2.197915   -2.708913
    116          1           0        7.158216    1.833890   -1.588867
    117          1           0        5.513643    2.470090   -1.128463
    118          1           0        7.772050   -0.179899   -1.313475
    119          1           0        6.845882   -1.529989   -1.068395
    120          1           0        6.035729   -0.221795    1.144223
    121          1           0        7.258672    0.934936    0.661496
    122          1           0        8.075214   -2.076724    0.878748
    123          1           0        7.598893   -1.435029    2.341119
    124          1           0        9.219621    0.723645    1.688189
    125          1           0       11.246221   -1.032031    2.502022
    126          1           0        9.808877   -1.987674    3.026281
    127          1           0       10.172426   -0.397412    3.681814
    128          1           0        9.569115   -0.747801   -0.527723
    129          1           0       10.642086   -1.666823    0.494116
    130          1           0       11.072355    1.238822    0.871754
    131          1           0       11.079019    1.057777   -0.713654
    132          1           0       12.801472   -1.251654    0.320629
    133          1           0       13.174551    0.168449    1.127028
    134          1           0       13.001687    0.526121   -1.827475
    135          1           0       14.581819   -1.226641   -2.418440
    136          1           0       14.400793   -1.668894   -0.708333
    137          1           0       15.651909   -0.564886   -1.303330
    138          1           0       14.034599    2.140829    0.156334
    139          1           0       14.671384    2.138005   -1.538802
    140          1           0       15.496505    1.337037   -0.357479
 ---------------------------------------------------------------------

 SCF Done:  E(RB-LYP) =  -3007.35062840     A.U. after   22 cycles

 Excitation energies and oscillator strengths:

 Excited State   1:      Singlet-A      1.6745 eV  740.43 nm  f=0.0029  <S**2>=0.000
     244 -> 247        0.69863
 This state for optimization and/or second-order correction.
 Total Energy, E(TD-HF/TD-DFT) =  -3007.28909192
 Copying the excited state density for this state as the 1-particle RhoCI density.

 Excited State   2:      Singlet-A      1.7477 eV  709.42 nm  f=0.0385  <S**2>=0.000
     243 -> 247        0.46816
     245 -> 247       -0.44252
     246 -> 247       -0.25824

 Excited State   3:      Singlet-A      1.7933 eV  691.39 nm  f=0.2745  <S**2>=0.000
     243 -> 247        0.16203
     245 -> 247       -0.21162
     245 -> 248       -0.16857
     246 -> 247        0.63990
     246 <- 247       -0.14754

 Excited State   4:      Singlet-A      2.0457 eV  606.08 nm  f=0.0537  <S**2>=0.000
     242 -> 247        0.11780
     243 -> 247        0.48381
     245 -> 247        0.43450
     246 -> 248        0.21844

 Excited State   5:      Singlet-A      2.2829 eV  543.10 nm  f=0.0001  <S**2>=0.000
     241 -> 247        0.70701

 The electronic state is 1-A.
 Alpha  occ. eigenvalues --  -46.27570 -18.82457 -18.81558 -18.77044 -18.76484
 Alpha  occ. eigenvalues --  -18.75477 -18.75175 -14.03917 -14.03463 -14.01589
 Alpha  occ. eigenvalues --  -14.01541 -10.04471 -10.04239  -9.99478  -9.99137
 Alpha  occ. eigenvalues --   -9.98091  -9.97318  -9.97295  -9.97182  -9.97048
 Alpha  occ. eigenvalues --   -9.96816  -9.96680  -9.96527  -9.96427  -9.95201
 Alpha  occ. eigenvalues --   -9.94798  -9.94692  -9.94292  -9.94227  -9.94166
 Alpha  occ. eigenvalues --   -9.94155  -9.94142  -9.94126  -9.93940  -9.93759
 Alpha  occ. eigenvalues --   -9.93700  -9.93581  -9.93342  -9.93334  -9.93243
 Alpha  occ. eigenvalues --   -9.93124  -9.93076  -9.92474  -9.92428  -9.92361
 Alpha  occ. eigenvalues --   -9.92059  -9.91899  -9.91859  -9.91632  -9.91561
 Alpha  occ. eigenvalues --   -9.91342  -9.91288  -9.91279  -9.91215  -9.91212
 Alpha  occ. eigenvalues --   -9.91155  -9.90915  -9.90780  -9.90736  -9.90658
 Alpha  occ. eigenvalues --   -9.90571  -9.90529  -9.90492  -9.90444  -9.90434
 Alpha  occ. eigenvalues --   -9.90391  -2.92252  -1.72643  -1.72197  -1.71924
 Alpha  occ. eigenvalues --   -0.97957  -0.96012  -0.91741  -0.90049  -0.88926
 Alpha  occ. eigenvalues --   -0.88887  -0.87935  -0.87023  -0.86289  -0.83378
 Alpha  occ. eigenvalues --   -0.76760  -0.74852  -0.73386  -0.73263  -0.72660
 Alpha  occ. eigenvalues --   -0.72221  -0.72143  -0.71188  -0.70957  -0.70227
 Alpha  occ. eigenvalues --   -0.69512  -0.69294  -0.68662  -0.68027  -0.67666
 Alpha  occ. eigenvalues --   -0.66828  -0.66461  -0.65460  -0.65189  -0.64892
 Alpha  occ. eigenvalues --   -0.63603  -0.62800  -0.62637  -0.61989  -0.61553
 Alpha  occ. eigenvalues --   -0.60744  -0.60298  -0.60135  -0.59236  -0.58689
 Alpha  occ. eigenvalues --   -0.58548  -0.58309  -0.57310  -0.56422  -0.55225
 Alpha  occ. eigenvalues --   -0.54807  -0.54118  -0.52950  -0.52642  -0.52209
 Alpha  occ. eigenvalues --   -0.51769  -0.51226  -0.50968  -0.50894  -0.50343
 Alpha  occ. eigenvalues --   -0.49952  -0.49882  -0.49506  -0.49278  -0.47540
 Alpha  occ. eigenvalues --   -0.46413  -0.46155  -0.45941  -0.45607  -0.44769
 Alpha  occ. eigenvalues --   -0.44294  -0.43505  -0.43269  -0.43185  -0.42478
 Alpha  occ. eigenvalues --   -0.42130  -0.41913  -0.41794  -0.41408  -0.41261
 Alpha  occ. eigenvalues --   -0.41028  -0.40673  -0.40522  -0.40384  -0.39968
 Alpha  occ. eigenvalues --   -0.39819  -0.39737  -0.39617  -0.39456  -0.39220
 Alpha  occ. eigenvalues --   -0.39157  -0.38829  -0.38679  -0.38546  -0.38480
 Alpha  occ. eigenvalues --   -0.38070  -0.37993  -0.37665  -0.37316  -0.37218
 Alpha  occ. eigenvalues --   -0.37079  -0.36971  -0.36813  -0.36721  -0.36459
 Alpha  occ. eigenvalues --   -0.36415  -0.36098  -0.36006  -0.35912  -0.35518
 Alpha  occ. eigenvalues --   -0.35469  -0.35190  -0.35183  -0.34807  -0.34679
 Alpha  occ. eigenvalues --   -0.34425  -0.34305  -0.34207  -0.34162  -0.34011
 Alpha  occ. eigenvalues --   -0.33869  -0.33514  -0.33453  -0.33278  -0.33090
 Alpha  occ. eigenvalues --   -0.32992  -0.32939  -0.32818  -0.32684  -0.32300
 Alpha  occ. eigenvalues --   -0.32221  -0.31797  -0.31663  -0.31574  -0.31494
 Alpha  occ. eigenvalues --   -0.31357  -0.31294  -0.31118  -0.30707  -0.30658
 Alpha  occ. eigenvalues --   -0.30532  -0.30452  -0.30346  -0.30104  -0.29854
 Alpha  occ. eigenvalues --   -0.29823  -0.29702  -0.29635  -0.29476  -0.29418
 Alpha  occ. eigenvalues --   -0.29096  -0.29078  -0.28887  -0.28786  -0.28486
 Alpha  occ. eigenvalues --   -0.28092  -0.27489  -0.27068  -0.26673  -0.26478
 Alpha  occ. eigenvalues --   -0.26229  -0.26194  -0.26005  -0.25297  -0.24846
 Alpha  occ. eigenvalues --   -0.24678  -0.24627  -0.24093  -0.24045  -0.23860
 Alpha  occ. eigenvalues --   -0.22884  -0.22823  -0.22590  -0.21938  -0.21127
 Alpha  occ. eigenvalues --   -0.20728  -0.20305  -0.19011  -0.18436  -0.17814
 Alpha  occ. eigenvalues --   -0.16460
 Alpha virt. eigenvalues --   -0.12340  -0.07427  -0.06531  -0.05067  -0.03693
 Alpha virt. eigenvalues --   -0.03271  -0.02758  -0.02560  -0.01753  -0.00209
 Alpha virt. eigenvalues --    0.00553   0.01406   0.02148   0.02618   0.02861

 Mulliken charges:
               1
     1  Mg   0.690038
     2  C    0.017589
     3  C   -0.044752
     4  C   -0.034411
     5  C   -0.080705
     6  N   -0.143835
     7  C   -0.118732
     8  C    0.043505
     9  C   -0.014753
    10  C   -0.019922
    11  C    0.111506
    12  C    0.139396
    13  C    0.077765
    14  C    0.104465
    15  O   -0.218707
    16  O   -0.245877
    17  N   -0.359057
    18  C    0.139246
    19  C   -0.138643
    20  C    0.072659
    21  C    0.163536
    22  C    0.197066
    23  C   -0.098816
    24  O   -0.188348
    25  C    0.130562
    26  N   -0.246344
    27  C    0.016365
    28  C    0.008672
    29  C    0.003896
    30  C    0.035753
    31  C    0.111990
    32  C    0.104961
    33  C    0.060199
    34  N   -0.269095
    35  C    0.119766
    36  C   -0.196884
    37  C    0.177307
    38  C    0.055351
    39  C    0.169963
    40  C   -0.102424
    41  O   -0.125242
    42  C    0.131181
    43  C    0.092779
    44  O   -0.165484
    45  O   -0.314879
    46  C    0.224564
    47  C    0.344837
    48  C   -0.091987
    49  C   -0.118508
    50  C    0.140248
    51  C    0.137928
    52  C    0.075145
    53  C    0.170545
    54  C   -0.060094
    55  C    0.080320
    56  C    0.067653
    57  C    0.107895
    58  C    0.131750
    59  C   -0.122649
    60  C    0.108302
    61  C    0.080250
    62  C    0.106200
    63  C    0.061246
    64  C   -0.065434
    65  C    0.107922
    66  C    0.131101
    67  H   -0.055041
    68  H   -0.068085
    69  H   -0.063763
    70  H   -0.031379
    71  H   -0.020297
    72  H   -0.006075
    73  H   -0.001825
    74  H    0.016376
    75  H   -0.007768
    76  H   -0.008337
    77  H    0.016470
    78  H    0.008736
    79  H   -0.009165
    80  H   -0.002379
    81  H   -0.003867
    82  H    0.011869
    83  H    0.003476
    84  H   -0.008388
    85  H   -0.023856
    86  H   -0.031989
    87  H    0.001463
    88  H    0.003374
    89  H   -0.004796
    90  H   -0.006116
    91  H   -0.028470
    92  H   -0.025158
    93  H    0.006060
    94  H   -0.009287
    95  H    0.008179
    96  H    0.001645
    97  H   -0.003606
    98  H   -0.018240
    99  H    0.028485
   100  H    0.005272
   101  H    0.003604
   102  H   -0.027654
   103  H   -0.004200
   104  H   -0.051730
   105  H   -0.009995
   106  H   -0.021569
   107  H    0.003696
   108  H   -0.045583
   109  H   -0.035824
   110  H   -0.023899
   111  H   -0.047842
   112  H   -0.045892
   113  H   -0.042761
   114  H   -0.042974
   115  H   -0.031544
   116  H   -0.024886
   117  H   -0.016663
   118  H   -0.026786
   119  H   -0.047285
   120  H   -0.037363
   121  H   -0.027414
   122  H   -0.037293
   123  H   -0.046758
   124  H   -0.025529
   125  H   -0.018982
   126  H   -0.011833
   127  H   -0.024033
   128  H   -0.048005
   129  H   -0.031140
   130  H   -0.036553
   131  H   -0.040893
   132  H   -0.018569
   133  H   -0.032758
   134  H   -0.028175
   135  H   -0.016746
   136  H   -0.020774
   137  H   -0.032500
   138  H   -0.010198
   139  H   -0.024670
   140  H   -0.029383
 Sum of Mulliken charges =  -0.00000

 Dipole moment (field-independent basis, Debye):
    X=              0.3662    Y=              5.6148    Z=             -1.9560  Tot=              5.9570
 Quadrupole moment (field-independent basis, Debye-Ang):
   XX=           -394.4199   YY=           -431.8395   ZZ=           -405.1245
   XY=            -46.9029   XZ=            -18.2273   YZ=            -32.5405

 Normal termination of Gaussian 16 at Thu May  5 12:50:29 2022.
