 Gaussian 16, Revision A.03,
 Gaussian 16:  ES64L-G16RevA.03 25-Dec-2016

 -----------------------------------
 #p cam-b3lyp/Def2SVP td=(nstates=5)
 -----------------------------------

 -------------------------------------------------------
 step_851_chromophore_26 TDDFT with cam-b3lyp functional
 -------------------------------------------------------
 Symbolic Z-matrix:
 Charge =  0 Multiplicity = 1

                         Standard orientation:
 ---------------------------------------------------------------------
 Center     Atomic      Atomic             Coordinates (Angstroms)
 Number     Number       Type             X           Y           Z
 ---------------------------------------------------------------------
      1         12           0       -3.882739    1.462517    0.455925
      2          6           0       -5.158628   -1.833991    0.079312
      3          6           0       -2.509650    0.350411    3.478519
      4          6           0       -2.475451    4.429524    0.583684
      5          6           0       -4.642508    2.032195   -2.922006
      6          7           0       -3.625717   -0.568709    1.536803
      7          6           0       -4.331309   -1.670951    1.186746
      8          6           0       -3.945900   -2.860964    2.064620
      9          6           0       -3.398178   -2.123255    3.326973
     10          6           0       -3.181629   -0.718086    2.780051
     11          6           0       -4.314978   -1.910945    4.663069
     12          6           0       -3.086035   -3.924861    1.325541
     13          6           0       -1.828632   -3.367900    0.630216
     14          6           0       -0.749694   -4.411376    0.147930
     15          8           0       -0.702747   -5.584121    0.554772
     16          8           0        0.244619   -3.866907   -0.602284
     17          7           0       -2.576685    2.278270    1.825363
     18          6           0       -2.200553    1.713583    3.067605
     19          6           0       -1.386654    2.694369    3.740096
     20          6           0       -1.395234    3.906796    2.973565
     21          6           0       -2.139758    3.634426    1.732460
     22          6           0       -0.651293    2.332345    4.970708
     23          6           0       -0.722899    5.171492    3.388732
     24          8           0       -0.091989    5.293295    4.458959
     25          6           0       -0.821621    6.381732    2.524961
     26          7           0       -3.406260    2.852992   -1.011441
     27          6           0       -3.076041    4.121084   -0.600650
     28          6           0       -3.288120    5.198464   -1.712508
     29          6           0       -3.546298    4.304679   -2.952860
     30          6           0       -3.868354    2.978461   -2.285773
     31          6           0       -4.529653    6.222700   -1.461961
     32          6           0       -2.387885    4.123423   -3.954632
     33          6           0       -2.593300    4.429789   -5.438416
     34          7           0       -4.949342    0.443250   -1.015109
     35          6           0       -5.102090    0.779685   -2.360918
     36          6           0       -5.917265   -0.252383   -2.947609
     37          6           0       -6.038012   -1.256282   -2.015163
     38          6           0       -5.331693   -0.831547   -0.859562
     39          6           0       -6.476408   -0.346786   -4.356606
     40          6           0       -6.482897   -2.538143   -1.794990
     41          8           0       -7.052320   -3.284876   -2.568874
     42          6           0       -6.024434   -2.989791   -0.370208
     43          6           0       -7.176452   -3.444248    0.426610
     44          8           0       -7.358179   -4.578738    0.872730
     45          8           0       -8.100768   -2.399539    0.594566
     46          6           0       -9.510571   -2.586411    1.025033
     47          6           0        1.337110   -4.779597   -0.930465
     48          6           0        2.228307   -4.060699   -1.833635
     49          6           0        3.245699   -3.334106   -1.478122
     50          6           0        3.816450   -3.165765   -0.085169
     51          6           0        4.139751   -2.637197   -2.474579
     52          6           0        3.972290   -1.127903   -2.475909
     53          6           0        5.194934   -0.355761   -2.737943
     54          6           0        5.705529    0.258277   -1.480699
     55          6           0        6.079170    1.753731   -1.724445
     56          6           0        6.846608   -0.469527   -0.814831
     57          6           0        7.010114   -0.126295    0.664941
     58          6           0        7.963926   -1.108658    1.366868
     59          6           0        9.367391   -0.349378    1.568568
     60          6           0       10.191504   -0.998858    2.773518
     61          6           0       10.259530   -0.662357    0.311413
     62          6           0       11.306176    0.446559    0.159551
     63          6           0       12.757652   -0.171010    0.179218
     64          6           0       13.704916    0.331241   -1.017256
     65          6           0       14.602429   -0.847561   -1.396304
     66          6           0       14.466265    1.544021   -0.648112
     67          1           0       -2.116687    0.030810    4.446551
     68          1           0       -2.389750    5.518236    0.597786
     69          1           0       -4.973936    2.284658   -3.930473
     70          1           0       -4.819033   -3.398457    2.433648
     71          1           0       -2.472244   -2.571350    3.686854
     72          1           0       -3.902576   -2.521959    5.465677
     73          1           0       -5.271542   -2.387101    4.446675
     74          1           0       -4.337587   -0.858162    4.943456
     75          1           0       -3.716342   -4.440803    0.601187
     76          1           0       -2.830061   -4.671986    2.076570
     77          1           0       -1.282892   -2.622893    1.209906
     78          1           0       -2.197579   -2.847130   -0.253365
     79          1           0        0.259905    2.925986    5.044746
     80          1           0       -0.372294    1.279022    4.998369
     81          1           0       -1.144635    2.713865    5.864351
     82          1           0       -1.832414    6.768707    2.401124
     83          1           0       -0.488483    6.140542    1.515268
     84          1           0       -0.209726    7.157009    2.986105
     85          1           0       -2.417785    5.787064   -2.002604
     86          1           0       -4.421664    4.607494   -3.526011
     87          1           0       -4.208228    7.235665   -1.706177
     88          1           0       -4.907067    6.206050   -0.440122
     89          1           0       -5.280739    5.891042   -2.178982
     90          1           0       -1.950867    3.128394   -3.865491
     91          1           0       -1.604739    4.833267   -3.691088
     92          1           0       -3.612563    4.740482   -5.665128
     93          1           0       -2.378071    3.620472   -6.137639
     94          1           0       -2.027914    5.338292   -5.644166
     95          1           0       -7.184541   -1.172513   -4.425522
     96          1           0       -5.700353   -0.592519   -5.081925
     97          1           0       -6.876355    0.643520   -4.577506
     98          1           0       -5.436313   -3.906061   -0.320628
     99          1           0       -9.892314   -3.597985    0.887084
    100          1           0      -10.185280   -1.897939    0.516637
    101          1           0       -9.702515   -2.239738    2.040349
    102          1           0        0.909868   -5.664942   -1.403622
    103          1           0        1.921987   -5.295356   -0.169676
    104          1           0        2.071392   -4.107654   -2.911331
    105          1           0        4.799478   -3.636135   -0.094176
    106          1           0        3.299642   -3.713444    0.702034
    107          1           0        3.956027   -2.140724    0.257950
    108          1           0        3.966951   -3.036381   -3.474712
    109          1           0        5.189995   -2.887948   -2.329353
    110          1           0        3.392016   -0.779950   -1.622841
    111          1           0        3.261634   -0.929673   -3.278806
    112          1           0        4.923590    0.332096   -3.538621
    113          1           0        6.053115   -0.913041   -3.114831
    114          1           0        4.878013    0.386823   -0.782363
    115          1           0        5.934646    2.197915   -2.708913
    116          1           0        7.158216    1.833890   -1.588867
    117          1           0        5.513643    2.470090   -1.128463
    118          1           0        7.772050   -0.179899   -1.313475
    119          1           0        6.845882   -1.529989   -1.068395
    120          1           0        6.035729   -0.221795    1.144223
    121          1           0        7.258672    0.934936    0.661496
    122          1           0        8.075214   -2.076724    0.878748
    123          1           0        7.598893   -1.435029    2.341119
    124          1           0        9.219621    0.723645    1.688189
    125          1           0       11.246221   -1.032031    2.502022
    126          1           0        9.808877   -1.987674    3.026281
    127          1           0       10.172426   -0.397412    3.681814
    128          1           0        9.569115   -0.747801   -0.527723
    129          1           0       10.642086   -1.666823    0.494116
    130          1           0       11.072355    1.238822    0.871754
    131          1           0       11.079019    1.057777   -0.713654
    132          1           0       12.801472   -1.251654    0.320629
    133          1           0       13.174551    0.168449    1.127028
    134          1           0       13.001687    0.526121   -1.827475
    135          1           0       14.581819   -1.226641   -2.418440
    136          1           0       14.400793   -1.668894   -0.708333
    137          1           0       15.651909   -0.564886   -1.303330
    138          1           0       14.034599    2.140829    0.156334
    139          1           0       14.671384    2.138005   -1.538802
    140          1           0       15.496505    1.337037   -0.357479
 ---------------------------------------------------------------------

 SCF Done:  E(RCAM-B3LYP) =  -3007.14525821     A.U. after   17 cycles

 Excitation energies and oscillator strengths:

 Excited State   1:      Singlet-A      1.6522 eV  750.44 nm  f=0.3698  <S**2>=0.000
     245 -> 248        0.17545
     246 -> 247        0.68712
     245 <- 248        0.10918
 This state for optimization and/or second-order correction.
 Total Energy, E(TD-HF/TD-DFT) =  -3007.08454263
 Copying the excited state density for this state as the 1-particle RhoCI density.

 Excited State   2:      Singlet-A      2.2014 eV  563.20 nm  f=0.1092  <S**2>=0.000
     245 -> 247        0.64331
     246 -> 248       -0.27283

 Excited State   3:      Singlet-A      3.1163 eV  397.85 nm  f=0.0010  <S**2>=0.000
     244 -> 247        0.68592

 Excited State   4:      Singlet-A      3.3130 eV  374.24 nm  f=0.0158  <S**2>=0.000
     241 -> 247       -0.17678
     241 -> 249       -0.10798
     243 -> 247        0.56403
     243 -> 249        0.10157
     246 -> 248        0.27185

 Excited State   5:      Singlet-A      3.4826 eV  356.01 nm  f=0.0044  <S**2>=0.000
     242 -> 247        0.54782
     242 -> 248        0.15039
     242 -> 249       -0.29754
     242 -> 251        0.22943

 The electronic state is 1-A.
 Alpha  occ. eigenvalues --  -46.89149 -19.25284 -19.24491 -19.20314 -19.19359
 Alpha  occ. eigenvalues --  -19.18621 -19.18388 -14.42995 -14.42198 -14.40138
 Alpha  occ. eigenvalues --  -14.39970 -10.40097 -10.39507 -10.34700 -10.34402
 Alpha  occ. eigenvalues --  -10.32106 -10.32056 -10.31860 -10.31630 -10.31310
 Alpha  occ. eigenvalues --  -10.31185 -10.31031 -10.30875 -10.30816 -10.29247
 Alpha  occ. eigenvalues --  -10.28961 -10.28890 -10.28666 -10.28662 -10.28622
 Alpha  occ. eigenvalues --  -10.28551 -10.28373 -10.28128 -10.28036 -10.28029
 Alpha  occ. eigenvalues --  -10.27545 -10.27488 -10.27440 -10.27264 -10.27259
 Alpha  occ. eigenvalues --  -10.27161 -10.26771 -10.26429 -10.26059 -10.26035
 Alpha  occ. eigenvalues --  -10.25870 -10.25685 -10.25514 -10.25494 -10.25381
 Alpha  occ. eigenvalues --  -10.24975 -10.24962 -10.24926 -10.24914 -10.24829
 Alpha  occ. eigenvalues --  -10.24813 -10.24532 -10.24488 -10.24370 -10.24288
 Alpha  occ. eigenvalues --  -10.24280 -10.24230 -10.24055 -10.24047 -10.24004
 Alpha  occ. eigenvalues --  -10.23930  -3.17733  -1.92600  -1.92240  -1.91999
 Alpha  occ. eigenvalues --   -1.16313  -1.14600  -1.10137  -1.08410  -1.06881
 Alpha  occ. eigenvalues --   -1.06659  -1.05823  -1.04696  -1.03870  -1.00926
 Alpha  occ. eigenvalues --   -0.93986  -0.91737  -0.90156  -0.89939  -0.89434
 Alpha  occ. eigenvalues --   -0.88935  -0.88815  -0.87843  -0.87520  -0.86739
 Alpha  occ. eigenvalues --   -0.86115  -0.85628  -0.85035  -0.84182  -0.83859
 Alpha  occ. eigenvalues --   -0.82908  -0.82615  -0.81336  -0.81101  -0.80806
 Alpha  occ. eigenvalues --   -0.79347  -0.78454  -0.78153  -0.77568  -0.77098
 Alpha  occ. eigenvalues --   -0.76071  -0.75654  -0.75446  -0.74462  -0.73805
 Alpha  occ. eigenvalues --   -0.73718  -0.73365  -0.72250  -0.71261  -0.69804
 Alpha  occ. eigenvalues --   -0.69475  -0.68679  -0.67519  -0.67016  -0.66300
 Alpha  occ. eigenvalues --   -0.65828  -0.65366  -0.65074  -0.64897  -0.64374
 Alpha  occ. eigenvalues --   -0.63905  -0.63705  -0.63233  -0.63117  -0.61219
 Alpha  occ. eigenvalues --   -0.60055  -0.59621  -0.59487  -0.58900  -0.58246
 Alpha  occ. eigenvalues --   -0.57654  -0.56989  -0.56468  -0.56398  -0.55697
 Alpha  occ. eigenvalues --   -0.55407  -0.54696  -0.54590  -0.54334  -0.54235
 Alpha  occ. eigenvalues --   -0.53722  -0.53578  -0.53100  -0.52949  -0.52787
 Alpha  occ. eigenvalues --   -0.52732  -0.52424  -0.52259  -0.52189  -0.52061
 Alpha  occ. eigenvalues --   -0.51678  -0.51430  -0.51181  -0.51042  -0.50820
 Alpha  occ. eigenvalues --   -0.50689  -0.50336  -0.49994  -0.49586  -0.49538
 Alpha  occ. eigenvalues --   -0.49449  -0.49389  -0.49122  -0.48871  -0.48785
 Alpha  occ. eigenvalues --   -0.48619  -0.48463  -0.48301  -0.48141  -0.47863
 Alpha  occ. eigenvalues --   -0.47285  -0.47187  -0.47175  -0.46723  -0.46629
 Alpha  occ. eigenvalues --   -0.46386  -0.46294  -0.46109  -0.46073  -0.45977
 Alpha  occ. eigenvalues --   -0.45665  -0.45303  -0.45076  -0.45000  -0.44827
 Alpha  occ. eigenvalues --   -0.44681  -0.44499  -0.44430  -0.44293  -0.43781
 Alpha  occ. eigenvalues --   -0.43738  -0.43395  -0.43257  -0.43226  -0.43076
 Alpha  occ. eigenvalues --   -0.42889  -0.42765  -0.42422  -0.42013  -0.41926
 Alpha  occ. eigenvalues --   -0.41841  -0.41726  -0.41608  -0.41467  -0.41367
 Alpha  occ. eigenvalues --   -0.41127  -0.41028  -0.40865  -0.40813  -0.40739
 Alpha  occ. eigenvalues --   -0.40511  -0.40209  -0.40193  -0.39750  -0.39523
 Alpha  occ. eigenvalues --   -0.39032  -0.38341  -0.37883  -0.37668  -0.37481
 Alpha  occ. eigenvalues --   -0.37172  -0.36879  -0.36702  -0.36141  -0.36108
 Alpha  occ. eigenvalues --   -0.35895  -0.35166  -0.35109  -0.34671  -0.34288
 Alpha  occ. eigenvalues --   -0.34103  -0.33390  -0.33147  -0.31999  -0.31094
 Alpha  occ. eigenvalues --   -0.31078  -0.30898  -0.30360  -0.29607  -0.24840
 Alpha  occ. eigenvalues --   -0.21771
 Alpha virt. eigenvalues --   -0.09604  -0.02304  -0.00170   0.01542   0.01895
 Alpha virt. eigenvalues --    0.04116   0.04481   0.05377   0.05754   0.06684
 Alpha virt. eigenvalues --    0.07652   0.07945   0.08453   0.08761   0.09393

 Mulliken charges:
               1
     1  Mg   0.820870
     2  C   -0.010390
     3  C   -0.054633
     4  C   -0.060506
     5  C   -0.086547
     6  N   -0.205192
     7  C   -0.081467
     8  C   -0.009501
     9  C   -0.062516
    10  C   -0.009877
    11  C    0.057546
    12  C    0.090648
    13  C    0.009099
    14  C    0.186500
    15  O   -0.261661
    16  O   -0.308924
    17  N   -0.444351
    18  C    0.145517
    19  C   -0.136315
    20  C   -0.005851
    21  C    0.195370
    22  C    0.131742
    23  C   -0.015914
    24  O   -0.230115
    25  C    0.045062
    26  N   -0.318788
    27  C    0.036115
    28  C   -0.048188
    29  C   -0.048339
    30  C    0.051434
    31  C    0.060231
    32  C    0.048359
    33  C   -0.001457
    34  N   -0.357278
    35  C    0.124021
    36  C   -0.188288
    37  C    0.093617
    38  C    0.094470
    39  C    0.119488
    40  C   -0.011069
    41  O   -0.165398
    42  C    0.055551
    43  C    0.189766
    44  O   -0.204326
    45  O   -0.380468
    46  C    0.190500
    47  C    0.304773
    48  C   -0.114167
    49  C   -0.140024
    50  C    0.083687
    51  C    0.080126
    52  C    0.014379
    53  C    0.109027
    54  C   -0.116633
    55  C    0.023724
    56  C    0.017778
    57  C    0.052108
    58  C    0.074015
    59  C   -0.174253
    60  C    0.053127
    61  C    0.029796
    62  C    0.050539
    63  C    0.007593
    64  C   -0.125244
    65  C    0.048730
    66  C    0.067176
    67  H   -0.018058
    68  H   -0.035138
    69  H   -0.028859
    70  H    0.005012
    71  H    0.015180
    72  H    0.018804
    73  H    0.022254
    74  H    0.040739
    75  H    0.019546
    76  H    0.024324
    77  H    0.045620
    78  H    0.039941
    79  H    0.023983
    80  H    0.023098
    81  H    0.026336
    82  H    0.039281
    83  H    0.031378
    84  H    0.028132
    85  H    0.011535
    86  H    0.002780
    87  H    0.024969
    88  H    0.027173
    89  H    0.018703
    90  H    0.024688
    91  H   -0.000372
    92  H   -0.002027
    93  H    0.029859
    94  H    0.013921
    95  H    0.036945
    96  H    0.027702
    97  H    0.018724
    98  H    0.024198
    99  H    0.051718
   100  H    0.027791
   101  H    0.024642
   102  H    0.005735
   103  H    0.023930
   104  H   -0.016875
   105  H    0.013352
   106  H    0.004750
   107  H    0.024503
   108  H   -0.013446
   109  H   -0.007361
   110  H    0.006198
   111  H   -0.015273
   112  H   -0.012148
   113  H   -0.012867
   114  H   -0.011026
   115  H   -0.005328
   116  H   -0.002432
   117  H    0.007783
   118  H   -0.002605
   119  H   -0.020955
   120  H   -0.008762
   121  H    0.000374
   122  H   -0.008213
   123  H   -0.014748
   124  H    0.004271
   125  H    0.001707
   126  H    0.011548
   127  H    0.001250
   128  H   -0.020200
   129  H   -0.002612
   130  H   -0.007799
   131  H   -0.012001
   132  H    0.007621
   133  H   -0.004972
   134  H    0.003444
   135  H    0.008216
   136  H    0.003039
   137  H   -0.007858
   138  H    0.013461
   139  H    0.001167
   140  H   -0.004185
 Sum of Mulliken charges =  -0.00000

 Dipole moment (field-independent basis, Debye):
    X=              0.3250    Y=              6.0005    Z=             -1.7070  Tot=              6.2470
 Quadrupole moment (field-independent basis, Debye-Ang):
   XX=           -393.0373   YY=           -429.2689   ZZ=           -403.1023
   XY=            -47.5911   XZ=            -19.0274   YZ=            -33.3456

 Normal termination of Gaussian 16 at Thu May  5 11:46:58 2022.
