 Gaussian 16, Revision A.03,
 Gaussian 16:  ES64L-G16RevA.03 25-Dec-2016

 ---------------------------------
 #p PBE1PBE/Def2SVP td=(nstates=5)
 ---------------------------------

 -----------------------------------------------------
 step_851_chromophore_26 TDDFT with PBE1PBE functional
 -----------------------------------------------------
 Symbolic Z-matrix:
 Charge =  0 Multiplicity = 1

                         Standard orientation:
 ---------------------------------------------------------------------
 Center     Atomic      Atomic             Coordinates (Angstroms)
 Number     Number       Type             X           Y           Z
 ---------------------------------------------------------------------
      1         12           0       -3.882739    1.462517    0.455925
      2          6           0       -5.158628   -1.833991    0.079312
      3          6           0       -2.509650    0.350411    3.478519
      4          6           0       -2.475451    4.429524    0.583684
      5          6           0       -4.642508    2.032195   -2.922006
      6          7           0       -3.625717   -0.568709    1.536803
      7          6           0       -4.331309   -1.670951    1.186746
      8          6           0       -3.945900   -2.860964    2.064620
      9          6           0       -3.398178   -2.123255    3.326973
     10          6           0       -3.181629   -0.718086    2.780051
     11          6           0       -4.314978   -1.910945    4.663069
     12          6           0       -3.086035   -3.924861    1.325541
     13          6           0       -1.828632   -3.367900    0.630216
     14          6           0       -0.749694   -4.411376    0.147930
     15          8           0       -0.702747   -5.584121    0.554772
     16          8           0        0.244619   -3.866907   -0.602284
     17          7           0       -2.576685    2.278270    1.825363
     18          6           0       -2.200553    1.713583    3.067605
     19          6           0       -1.386654    2.694369    3.740096
     20          6           0       -1.395234    3.906796    2.973565
     21          6           0       -2.139758    3.634426    1.732460
     22          6           0       -0.651293    2.332345    4.970708
     23          6           0       -0.722899    5.171492    3.388732
     24          8           0       -0.091989    5.293295    4.458959
     25          6           0       -0.821621    6.381732    2.524961
     26          7           0       -3.406260    2.852992   -1.011441
     27          6           0       -3.076041    4.121084   -0.600650
     28          6           0       -3.288120    5.198464   -1.712508
     29          6           0       -3.546298    4.304679   -2.952860
     30          6           0       -3.868354    2.978461   -2.285773
     31          6           0       -4.529653    6.222700   -1.461961
     32          6           0       -2.387885    4.123423   -3.954632
     33          6           0       -2.593300    4.429789   -5.438416
     34          7           0       -4.949342    0.443250   -1.015109
     35          6           0       -5.102090    0.779685   -2.360918
     36          6           0       -5.917265   -0.252383   -2.947609
     37          6           0       -6.038012   -1.256282   -2.015163
     38          6           0       -5.331693   -0.831547   -0.859562
     39          6           0       -6.476408   -0.346786   -4.356606
     40          6           0       -6.482897   -2.538143   -1.794990
     41          8           0       -7.052320   -3.284876   -2.568874
     42          6           0       -6.024434   -2.989791   -0.370208
     43          6           0       -7.176452   -3.444248    0.426610
     44          8           0       -7.358179   -4.578738    0.872730
     45          8           0       -8.100768   -2.399539    0.594566
     46          6           0       -9.510571   -2.586411    1.025033
     47          6           0        1.337110   -4.779597   -0.930465
     48          6           0        2.228307   -4.060699   -1.833635
     49          6           0        3.245699   -3.334106   -1.478122
     50          6           0        3.816450   -3.165765   -0.085169
     51          6           0        4.139751   -2.637197   -2.474579
     52          6           0        3.972290   -1.127903   -2.475909
     53          6           0        5.194934   -0.355761   -2.737943
     54          6           0        5.705529    0.258277   -1.480699
     55          6           0        6.079170    1.753731   -1.724445
     56          6           0        6.846608   -0.469527   -0.814831
     57          6           0        7.010114   -0.126295    0.664941
     58          6           0        7.963926   -1.108658    1.366868
     59          6           0        9.367391   -0.349378    1.568568
     60          6           0       10.191504   -0.998858    2.773518
     61          6           0       10.259530   -0.662357    0.311413
     62          6           0       11.306176    0.446559    0.159551
     63          6           0       12.757652   -0.171010    0.179218
     64          6           0       13.704916    0.331241   -1.017256
     65          6           0       14.602429   -0.847561   -1.396304
     66          6           0       14.466265    1.544021   -0.648112
     67          1           0       -2.116687    0.030810    4.446551
     68          1           0       -2.389750    5.518236    0.597786
     69          1           0       -4.973936    2.284658   -3.930473
     70          1           0       -4.819033   -3.398457    2.433648
     71          1           0       -2.472244   -2.571350    3.686854
     72          1           0       -3.902576   -2.521959    5.465677
     73          1           0       -5.271542   -2.387101    4.446675
     74          1           0       -4.337587   -0.858162    4.943456
     75          1           0       -3.716342   -4.440803    0.601187
     76          1           0       -2.830061   -4.671986    2.076570
     77          1           0       -1.282892   -2.622893    1.209906
     78          1           0       -2.197579   -2.847130   -0.253365
     79          1           0        0.259905    2.925986    5.044746
     80          1           0       -0.372294    1.279022    4.998369
     81          1           0       -1.144635    2.713865    5.864351
     82          1           0       -1.832414    6.768707    2.401124
     83          1           0       -0.488483    6.140542    1.515268
     84          1           0       -0.209726    7.157009    2.986105
     85          1           0       -2.417785    5.787064   -2.002604
     86          1           0       -4.421664    4.607494   -3.526011
     87          1           0       -4.208228    7.235665   -1.706177
     88          1           0       -4.907067    6.206050   -0.440122
     89          1           0       -5.280739    5.891042   -2.178982
     90          1           0       -1.950867    3.128394   -3.865491
     91          1           0       -1.604739    4.833267   -3.691088
     92          1           0       -3.612563    4.740482   -5.665128
     93          1           0       -2.378071    3.620472   -6.137639
     94          1           0       -2.027914    5.338292   -5.644166
     95          1           0       -7.184541   -1.172513   -4.425522
     96          1           0       -5.700353   -0.592519   -5.081925
     97          1           0       -6.876355    0.643520   -4.577506
     98          1           0       -5.436313   -3.906061   -0.320628
     99          1           0       -9.892314   -3.597985    0.887084
    100          1           0      -10.185280   -1.897939    0.516637
    101          1           0       -9.702515   -2.239738    2.040349
    102          1           0        0.909868   -5.664942   -1.403622
    103          1           0        1.921987   -5.295356   -0.169676
    104          1           0        2.071392   -4.107654   -2.911331
    105          1           0        4.799478   -3.636135   -0.094176
    106          1           0        3.299642   -3.713444    0.702034
    107          1           0        3.956027   -2.140724    0.257950
    108          1           0        3.966951   -3.036381   -3.474712
    109          1           0        5.189995   -2.887948   -2.329353
    110          1           0        3.392016   -0.779950   -1.622841
    111          1           0        3.261634   -0.929673   -3.278806
    112          1           0        4.923590    0.332096   -3.538621
    113          1           0        6.053115   -0.913041   -3.114831
    114          1           0        4.878013    0.386823   -0.782363
    115          1           0        5.934646    2.197915   -2.708913
    116          1           0        7.158216    1.833890   -1.588867
    117          1           0        5.513643    2.470090   -1.128463
    118          1           0        7.772050   -0.179899   -1.313475
    119          1           0        6.845882   -1.529989   -1.068395
    120          1           0        6.035729   -0.221795    1.144223
    121          1           0        7.258672    0.934936    0.661496
    122          1           0        8.075214   -2.076724    0.878748
    123          1           0        7.598893   -1.435029    2.341119
    124          1           0        9.219621    0.723645    1.688189
    125          1           0       11.246221   -1.032031    2.502022
    126          1           0        9.808877   -1.987674    3.026281
    127          1           0       10.172426   -0.397412    3.681814
    128          1           0        9.569115   -0.747801   -0.527723
    129          1           0       10.642086   -1.666823    0.494116
    130          1           0       11.072355    1.238822    0.871754
    131          1           0       11.079019    1.057777   -0.713654
    132          1           0       12.801472   -1.251654    0.320629
    133          1           0       13.174551    0.168449    1.127028
    134          1           0       13.001687    0.526121   -1.827475
    135          1           0       14.581819   -1.226641   -2.418440
    136          1           0       14.400793   -1.668894   -0.708333
    137          1           0       15.651909   -0.564886   -1.303330
    138          1           0       14.034599    2.140829    0.156334
    139          1           0       14.671384    2.138005   -1.538802
    140          1           0       15.496505    1.337037   -0.357479
 ---------------------------------------------------------------------

 SCF Done:  E(RPBE1PBE) =  -3005.33477027     A.U. after   15 cycles

 Excitation energies and oscillator strengths:

 Excited State   1:      Singlet-A      1.8206 eV  681.02 nm  f=0.3561  <S**2>=0.000
     245 -> 248        0.16935
     246 -> 247        0.69491
     246 <- 247       -0.11558
 This state for optimization and/or second-order correction.
 Total Energy, E(TD-HF/TD-DFT) =  -3005.26786597
 Copying the excited state density for this state as the 1-particle RhoCI density.

 Excited State   2:      Singlet-A      2.1944 eV  564.99 nm  f=0.0999  <S**2>=0.000
     245 -> 247        0.65276
     246 -> 248       -0.24283

 Excited State   3:      Singlet-A      2.7776 eV  446.37 nm  f=0.0019  <S**2>=0.000
     242 -> 247       -0.20792
     244 -> 247        0.66564

 Excited State   4:      Singlet-A      2.8652 eV  432.72 nm  f=0.0025  <S**2>=0.000
     241 -> 247       -0.10820
     242 -> 247        0.48187
     242 -> 249       -0.10196
     243 -> 247       -0.41450
     244 -> 247        0.18133
     246 -> 248        0.13021

 Excited State   5:      Singlet-A      2.8928 eV  428.60 nm  f=0.0016  <S**2>=0.000
     242 -> 247        0.38576
     243 -> 247        0.53599
     243 -> 249        0.12690
     244 -> 247        0.10484
     246 -> 248        0.10956

 The electronic state is 1-A.
 Alpha  occ. eigenvalues --  -46.92526 -19.25938 -19.25104 -19.20509 -19.19653
 Alpha  occ. eigenvalues --  -19.18856 -19.18593 -14.42341 -14.41788 -14.39823
 Alpha  occ. eigenvalues --  -14.39633 -10.37072 -10.36551 -10.31793 -10.31504
 Alpha  occ. eigenvalues --  -10.29661 -10.29529 -10.29282 -10.29279 -10.29050
 Alpha  occ. eigenvalues --  -10.28786 -10.28581 -10.28554 -10.28535 -10.27103
 Alpha  occ. eigenvalues --  -10.26674 -10.26662 -10.26246 -10.26230 -10.26216
 Alpha  occ. eigenvalues --  -10.26165 -10.26154 -10.25899 -10.25774 -10.25577
 Alpha  occ. eigenvalues --  -10.25132 -10.25102 -10.25054 -10.24998 -10.24959
 Alpha  occ. eigenvalues --  -10.24650 -10.24437 -10.24057 -10.23631 -10.23519
 Alpha  occ. eigenvalues --  -10.23501 -10.23163 -10.22956 -10.22853 -10.22765
 Alpha  occ. eigenvalues --  -10.22567 -10.22542 -10.22524 -10.22505 -10.22452
 Alpha  occ. eigenvalues --  -10.22378 -10.22094 -10.22072 -10.21979 -10.21818
 Alpha  occ. eigenvalues --  -10.21817 -10.21695 -10.21470 -10.21467 -10.21405
 Alpha  occ. eigenvalues --  -10.21395  -3.14689  -1.87496  -1.87115  -1.86878
 Alpha  occ. eigenvalues --   -1.11118  -1.09292  -1.04885  -1.03091  -1.01669
 Alpha  occ. eigenvalues --   -1.01501  -1.00381  -0.99336  -0.98557  -0.95491
 Alpha  occ. eigenvalues --   -0.88338  -0.85867  -0.84302  -0.84261  -0.83641
 Alpha  occ. eigenvalues --   -0.83136  -0.83028  -0.82167  -0.81627  -0.81062
 Alpha  occ. eigenvalues --   -0.80378  -0.79812  -0.79243  -0.78458  -0.78078
 Alpha  occ. eigenvalues --   -0.77139  -0.76793  -0.75639  -0.75346  -0.75026
 Alpha  occ. eigenvalues --   -0.73497  -0.72707  -0.72412  -0.71812  -0.71357
 Alpha  occ. eigenvalues --   -0.70211  -0.69789  -0.69742  -0.68601  -0.68085
 Alpha  occ. eigenvalues --   -0.67900  -0.67750  -0.66646  -0.65589  -0.64260
 Alpha  occ. eigenvalues --   -0.63903  -0.62883  -0.61961  -0.61231  -0.60719
 Alpha  occ. eigenvalues --   -0.60294  -0.59885  -0.59487  -0.59265  -0.58503
 Alpha  occ. eigenvalues --   -0.58223  -0.58041  -0.57659  -0.57410  -0.55750
 Alpha  occ. eigenvalues --   -0.54579  -0.54093  -0.53916  -0.53534  -0.52867
 Alpha  occ. eigenvalues --   -0.52023  -0.51512  -0.51008  -0.50743  -0.50282
 Alpha  occ. eigenvalues --   -0.49843  -0.49226  -0.49054  -0.48832  -0.48768
 Alpha  occ. eigenvalues --   -0.48215  -0.48146  -0.47670  -0.47510  -0.47376
 Alpha  occ. eigenvalues --   -0.47254  -0.46931  -0.46806  -0.46648  -0.46629
 Alpha  occ. eigenvalues --   -0.46188  -0.45870  -0.45662  -0.45555  -0.45321
 Alpha  occ. eigenvalues --   -0.45271  -0.44935  -0.44553  -0.44165  -0.44123
 Alpha  occ. eigenvalues --   -0.44025  -0.43918  -0.43650  -0.43454  -0.43369
 Alpha  occ. eigenvalues --   -0.43219  -0.43067  -0.42962  -0.42795  -0.42536
 Alpha  occ. eigenvalues --   -0.41906  -0.41886  -0.41843  -0.41426  -0.41230
 Alpha  occ. eigenvalues --   -0.41095  -0.40993  -0.40804  -0.40682  -0.40645
 Alpha  occ. eigenvalues --   -0.40389  -0.40001  -0.39802  -0.39709  -0.39586
 Alpha  occ. eigenvalues --   -0.39455  -0.39187  -0.39110  -0.39048  -0.38513
 Alpha  occ. eigenvalues --   -0.38491  -0.38124  -0.38007  -0.37918  -0.37846
 Alpha  occ. eigenvalues --   -0.37768  -0.37533  -0.37248  -0.36885  -0.36751
 Alpha  occ. eigenvalues --   -0.36573  -0.36538  -0.36476  -0.36235  -0.36147
 Alpha  occ. eigenvalues --   -0.36062  -0.35844  -0.35730  -0.35656  -0.35569
 Alpha  occ. eigenvalues --   -0.35253  -0.35055  -0.34879  -0.34509  -0.34443
 Alpha  occ. eigenvalues --   -0.33804  -0.33137  -0.32657  -0.32652  -0.32533
 Alpha  occ. eigenvalues --   -0.32245  -0.31700  -0.31533  -0.31051  -0.31018
 Alpha  occ. eigenvalues --   -0.30722  -0.30246  -0.30051  -0.29533  -0.29175
 Alpha  occ. eigenvalues --   -0.28948  -0.28872  -0.28144  -0.27599  -0.26325
 Alpha  occ. eigenvalues --   -0.26275  -0.25719  -0.25577  -0.25174  -0.21700
 Alpha  occ. eigenvalues --   -0.19408
 Alpha virt. eigenvalues --   -0.12004  -0.05793  -0.04284  -0.02549  -0.01234
 Alpha virt. eigenvalues --   -0.00468   0.00179   0.00724   0.01322   0.02783
 Alpha virt. eigenvalues --    0.03585   0.04053   0.04936   0.05544   0.05845

 Mulliken charges:
               1
     1  Mg   0.966563
     2  C   -0.017433
     3  C   -0.053952
     4  C   -0.064164
     5  C   -0.070438
     6  N   -0.306454
     7  C   -0.013429
     8  C   -0.073541
     9  C   -0.127739
    10  C    0.021173
    11  C    0.000032
    12  C    0.035436
    13  C   -0.069234
    14  C    0.252812
    15  O   -0.292110
    16  O   -0.339567
    17  N   -0.550313
    18  C    0.177131
    19  C   -0.167005
    20  C   -0.060896
    21  C    0.227551
    22  C    0.074441
    23  C    0.037746
    24  O   -0.266432
    25  C   -0.028946
    26  N   -0.415085
    27  C    0.061352
    28  C   -0.124568
    29  C   -0.121145
    30  C    0.079263
    31  C    0.004813
    32  C   -0.005631
    33  C   -0.071440
    34  N   -0.483613
    35  C    0.142979
    36  C   -0.198441
    37  C    0.037705
    38  C    0.150972
    39  C    0.067150
    40  C    0.077489
    41  O   -0.213120
    42  C   -0.057389
    43  C    0.285970
    44  O   -0.243934
    45  O   -0.410214
    46  C    0.138342
    47  C    0.260512
    48  C   -0.129006
    49  C   -0.183966
    50  C    0.024828
    51  C    0.018910
    52  C   -0.048204
    53  C    0.053757
    54  C   -0.203587
    55  C   -0.029977
    56  C   -0.040493
    57  C   -0.012628
    58  C    0.020631
    59  C   -0.260255
    60  C   -0.008560
    61  C   -0.029049
    62  C   -0.005440
    63  C   -0.046413
    64  C   -0.222207
    65  C   -0.008402
    66  C    0.007644
    67  H    0.012321
    68  H   -0.002390
    69  H    0.003509
    70  H    0.045383
    71  H    0.051092
    72  H    0.046181
    73  H    0.049735
    74  H    0.068051
    75  H    0.054028
    76  H    0.056461
    77  H    0.078338
    78  H    0.073917
    79  H    0.052181
    80  H    0.048646
    81  H    0.054805
    82  H    0.065484
    83  H    0.058208
    84  H    0.055922
    85  H    0.046773
    86  H    0.038662
    87  H    0.052060
    88  H    0.053891
    89  H    0.045772
    90  H    0.056919
    91  H    0.032723
    92  H    0.025278
    93  H    0.056694
    94  H    0.041479
    95  H    0.064203
    96  H    0.056124
    97  H    0.045966
    98  H    0.065030
    99  H    0.071510
   100  H    0.049272
   101  H    0.045978
   102  H    0.033669
   103  H    0.049044
   104  H    0.013167
   105  H    0.041274
   106  H    0.032344
   107  H    0.052470
   108  H    0.018839
   109  H    0.025352
   110  H    0.037751
   111  H    0.019236
   112  H    0.020258
   113  H    0.019877
   114  H    0.027350
   115  H    0.021633
   116  H    0.024106
   117  H    0.034755
   118  H    0.032021
   119  H    0.012533
   120  H    0.025339
   121  H    0.032576
   122  H    0.022522
   123  H    0.018502
   124  H    0.039728
   125  H    0.032512
   126  H    0.038526
   127  H    0.029876
   128  H    0.017634
   129  H    0.030178
   130  H    0.023018
   131  H    0.019372
   132  H    0.036471
   133  H    0.027779
   134  H    0.041239
   135  H    0.035539
   136  H    0.030085
   137  H    0.019460
   138  H    0.040577
   139  H    0.029507
   140  H    0.022888
 Sum of Mulliken charges =  -0.00000

 Dipole moment (field-independent basis, Debye):
    X=              0.3390    Y=              6.0656    Z=             -1.9066  Tot=              6.3672
 Quadrupole moment (field-independent basis, Debye-Ang):
   XX=           -390.0546   YY=           -425.7993   ZZ=           -398.7589
   XY=            -48.0689   XZ=            -18.1203   YZ=            -34.7856

 Normal termination of Gaussian 16 at Thu May  5 12:04:09 2022.
