 Gaussian 16, Revision A.03,
 Gaussian 16:  ES64L-G16RevA.03 25-Dec-2016

 --------------------------------
 #p wB97XD/Def2SVP td=(nstates=5)
 --------------------------------

 ----------------------------------------------------
 step_851_chromophore_26 TDDFT with wB97XD functional
 ----------------------------------------------------
 Symbolic Z-matrix:
 Charge =  0 Multiplicity = 1

                         Standard orientation:
 ---------------------------------------------------------------------
 Center     Atomic      Atomic             Coordinates (Angstroms)
 Number     Number       Type             X           Y           Z
 ---------------------------------------------------------------------
      1         12           0       -3.882739    1.462517    0.455925
      2          6           0       -5.158628   -1.833991    0.079312
      3          6           0       -2.509650    0.350411    3.478519
      4          6           0       -2.475451    4.429524    0.583684
      5          6           0       -4.642508    2.032195   -2.922006
      6          7           0       -3.625717   -0.568709    1.536803
      7          6           0       -4.331309   -1.670951    1.186746
      8          6           0       -3.945900   -2.860964    2.064620
      9          6           0       -3.398178   -2.123255    3.326973
     10          6           0       -3.181629   -0.718086    2.780051
     11          6           0       -4.314978   -1.910945    4.663069
     12          6           0       -3.086035   -3.924861    1.325541
     13          6           0       -1.828632   -3.367900    0.630216
     14          6           0       -0.749694   -4.411376    0.147930
     15          8           0       -0.702747   -5.584121    0.554772
     16          8           0        0.244619   -3.866907   -0.602284
     17          7           0       -2.576685    2.278270    1.825363
     18          6           0       -2.200553    1.713583    3.067605
     19          6           0       -1.386654    2.694369    3.740096
     20          6           0       -1.395234    3.906796    2.973565
     21          6           0       -2.139758    3.634426    1.732460
     22          6           0       -0.651293    2.332345    4.970708
     23          6           0       -0.722899    5.171492    3.388732
     24          8           0       -0.091989    5.293295    4.458959
     25          6           0       -0.821621    6.381732    2.524961
     26          7           0       -3.406260    2.852992   -1.011441
     27          6           0       -3.076041    4.121084   -0.600650
     28          6           0       -3.288120    5.198464   -1.712508
     29          6           0       -3.546298    4.304679   -2.952860
     30          6           0       -3.868354    2.978461   -2.285773
     31          6           0       -4.529653    6.222700   -1.461961
     32          6           0       -2.387885    4.123423   -3.954632
     33          6           0       -2.593300    4.429789   -5.438416
     34          7           0       -4.949342    0.443250   -1.015109
     35          6           0       -5.102090    0.779685   -2.360918
     36          6           0       -5.917265   -0.252383   -2.947609
     37          6           0       -6.038012   -1.256282   -2.015163
     38          6           0       -5.331693   -0.831547   -0.859562
     39          6           0       -6.476408   -0.346786   -4.356606
     40          6           0       -6.482897   -2.538143   -1.794990
     41          8           0       -7.052320   -3.284876   -2.568874
     42          6           0       -6.024434   -2.989791   -0.370208
     43          6           0       -7.176452   -3.444248    0.426610
     44          8           0       -7.358179   -4.578738    0.872730
     45          8           0       -8.100768   -2.399539    0.594566
     46          6           0       -9.510571   -2.586411    1.025033
     47          6           0        1.337110   -4.779597   -0.930465
     48          6           0        2.228307   -4.060699   -1.833635
     49          6           0        3.245699   -3.334106   -1.478122
     50          6           0        3.816450   -3.165765   -0.085169
     51          6           0        4.139751   -2.637197   -2.474579
     52          6           0        3.972290   -1.127903   -2.475909
     53          6           0        5.194934   -0.355761   -2.737943
     54          6           0        5.705529    0.258277   -1.480699
     55          6           0        6.079170    1.753731   -1.724445
     56          6           0        6.846608   -0.469527   -0.814831
     57          6           0        7.010114   -0.126295    0.664941
     58          6           0        7.963926   -1.108658    1.366868
     59          6           0        9.367391   -0.349378    1.568568
     60          6           0       10.191504   -0.998858    2.773518
     61          6           0       10.259530   -0.662357    0.311413
     62          6           0       11.306176    0.446559    0.159551
     63          6           0       12.757652   -0.171010    0.179218
     64          6           0       13.704916    0.331241   -1.017256
     65          6           0       14.602429   -0.847561   -1.396304
     66          6           0       14.466265    1.544021   -0.648112
     67          1           0       -2.116687    0.030810    4.446551
     68          1           0       -2.389750    5.518236    0.597786
     69          1           0       -4.973936    2.284658   -3.930473
     70          1           0       -4.819033   -3.398457    2.433648
     71          1           0       -2.472244   -2.571350    3.686854
     72          1           0       -3.902576   -2.521959    5.465677
     73          1           0       -5.271542   -2.387101    4.446675
     74          1           0       -4.337587   -0.858162    4.943456
     75          1           0       -3.716342   -4.440803    0.601187
     76          1           0       -2.830061   -4.671986    2.076570
     77          1           0       -1.282892   -2.622893    1.209906
     78          1           0       -2.197579   -2.847130   -0.253365
     79          1           0        0.259905    2.925986    5.044746
     80          1           0       -0.372294    1.279022    4.998369
     81          1           0       -1.144635    2.713865    5.864351
     82          1           0       -1.832414    6.768707    2.401124
     83          1           0       -0.488483    6.140542    1.515268
     84          1           0       -0.209726    7.157009    2.986105
     85          1           0       -2.417785    5.787064   -2.002604
     86          1           0       -4.421664    4.607494   -3.526011
     87          1           0       -4.208228    7.235665   -1.706177
     88          1           0       -4.907067    6.206050   -0.440122
     89          1           0       -5.280739    5.891042   -2.178982
     90          1           0       -1.950867    3.128394   -3.865491
     91          1           0       -1.604739    4.833267   -3.691088
     92          1           0       -3.612563    4.740482   -5.665128
     93          1           0       -2.378071    3.620472   -6.137639
     94          1           0       -2.027914    5.338292   -5.644166
     95          1           0       -7.184541   -1.172513   -4.425522
     96          1           0       -5.700353   -0.592519   -5.081925
     97          1           0       -6.876355    0.643520   -4.577506
     98          1           0       -5.436313   -3.906061   -0.320628
     99          1           0       -9.892314   -3.597985    0.887084
    100          1           0      -10.185280   -1.897939    0.516637
    101          1           0       -9.702515   -2.239738    2.040349
    102          1           0        0.909868   -5.664942   -1.403622
    103          1           0        1.921987   -5.295356   -0.169676
    104          1           0        2.071392   -4.107654   -2.911331
    105          1           0        4.799478   -3.636135   -0.094176
    106          1           0        3.299642   -3.713444    0.702034
    107          1           0        3.956027   -2.140724    0.257950
    108          1           0        3.966951   -3.036381   -3.474712
    109          1           0        5.189995   -2.887948   -2.329353
    110          1           0        3.392016   -0.779950   -1.622841
    111          1           0        3.261634   -0.929673   -3.278806
    112          1           0        4.923590    0.332096   -3.538621
    113          1           0        6.053115   -0.913041   -3.114831
    114          1           0        4.878013    0.386823   -0.782363
    115          1           0        5.934646    2.197915   -2.708913
    116          1           0        7.158216    1.833890   -1.588867
    117          1           0        5.513643    2.470090   -1.128463
    118          1           0        7.772050   -0.179899   -1.313475
    119          1           0        6.845882   -1.529989   -1.068395
    120          1           0        6.035729   -0.221795    1.144223
    121          1           0        7.258672    0.934936    0.661496
    122          1           0        8.075214   -2.076724    0.878748
    123          1           0        7.598893   -1.435029    2.341119
    124          1           0        9.219621    0.723645    1.688189
    125          1           0       11.246221   -1.032031    2.502022
    126          1           0        9.808877   -1.987674    3.026281
    127          1           0       10.172426   -0.397412    3.681814
    128          1           0        9.569115   -0.747801   -0.527723
    129          1           0       10.642086   -1.666823    0.494116
    130          1           0       11.072355    1.238822    0.871754
    131          1           0       11.079019    1.057777   -0.713654
    132          1           0       12.801472   -1.251654    0.320629
    133          1           0       13.174551    0.168449    1.127028
    134          1           0       13.001687    0.526121   -1.827475
    135          1           0       14.581819   -1.226641   -2.418440
    136          1           0       14.400793   -1.668894   -0.708333
    137          1           0       15.651909   -0.564886   -1.303330
    138          1           0       14.034599    2.140829    0.156334
    139          1           0       14.671384    2.138005   -1.538802
    140          1           0       15.496505    1.337037   -0.357479
 ---------------------------------------------------------------------

 SCF Done:  E(RwB97XD) =  -3007.84358178     A.U. after   18 cycles

 Excitation energies and oscillator strengths:

 Excited State   1:      Singlet-A      1.5918 eV  778.89 nm  f=0.3693  <S**2>=0.000
     245 -> 248        0.18118
     246 -> 247        0.68474
     245 <- 248        0.11856
 This state for optimization and/or second-order correction.
 Total Energy, E(TD-HF/TD-DFT) =  -3007.78508363
 Copying the excited state density for this state as the 1-particle RhoCI density.

 Excited State   2:      Singlet-A      2.1463 eV  577.66 nm  f=0.1061  <S**2>=0.000
     245 -> 247        0.64097
     246 -> 248       -0.27532

 Excited State   3:      Singlet-A      3.1390 eV  394.98 nm  f=0.0007  <S**2>=0.000
     244 -> 247        0.67938
     246 -> 248        0.10079

 Excited State   4:      Singlet-A      3.3340 eV  371.88 nm  f=0.0258  <S**2>=0.000
     240 -> 247       -0.11412
     240 -> 249        0.11381
     240 -> 250        0.10896
     243 -> 247        0.56877
     243 -> 249       -0.13094
     246 -> 248        0.29927

 Excited State   5:      Singlet-A      3.5014 eV  354.10 nm  f=0.0038  <S**2>=0.000
     242 -> 247        0.52581
     242 -> 248        0.15086
     242 -> 249        0.33326
     242 -> 250       -0.21672

 The electronic state is 1-A.
 Alpha  occ. eigenvalues --  -46.95504 -19.30511 -19.29726 -19.25274 -19.24295
 Alpha  occ. eigenvalues --  -19.23663 -19.23417 -14.47592 -14.46780 -14.44778
 Alpha  occ. eigenvalues --  -14.44559 -10.43966 -10.43316 -10.38659 -10.38389
 Alpha  occ. eigenvalues --  -10.36160 -10.35882 -10.35829 -10.35672 -10.35305
 Alpha  occ. eigenvalues --  -10.35062 -10.35015 -10.34960 -10.34834 -10.33318
 Alpha  occ. eigenvalues --  -10.32947 -10.32923 -10.32825 -10.32755 -10.32710
 Alpha  occ. eigenvalues --  -10.32679 -10.32433 -10.32127 -10.32070 -10.32025
 Alpha  occ. eigenvalues --  -10.31543 -10.31466 -10.31422 -10.31303 -10.31256
 Alpha  occ. eigenvalues --  -10.31049 -10.30688 -10.30396 -10.29904 -10.29880
 Alpha  occ. eigenvalues --  -10.29863 -10.29550 -10.29452 -10.29315 -10.29312
 Alpha  occ. eigenvalues --  -10.28915 -10.28883 -10.28880 -10.28833 -10.28801
 Alpha  occ. eigenvalues --  -10.28737 -10.28470 -10.28365 -10.28357 -10.28174
 Alpha  occ. eigenvalues --  -10.28162 -10.28125 -10.27880 -10.27849 -10.27821
 Alpha  occ. eigenvalues --  -10.27809  -3.21525  -1.95080  -1.94702  -1.94461
 Alpha  occ. eigenvalues --   -1.18492  -1.16764  -1.12361  -1.10614  -1.09094
 Alpha  occ. eigenvalues --   -1.08839  -1.07824  -1.06693  -1.05896  -1.02974
 Alpha  occ. eigenvalues --   -0.95974  -0.93512  -0.91951  -0.91807  -0.91283
 Alpha  occ. eigenvalues --   -0.90739  -0.90692  -0.89777  -0.89288  -0.88680
 Alpha  occ. eigenvalues --   -0.88091  -0.87475  -0.86911  -0.86062  -0.85741
 Alpha  occ. eigenvalues --   -0.84802  -0.84482  -0.83270  -0.83036  -0.82681
 Alpha  occ. eigenvalues --   -0.81162  -0.80359  -0.80052  -0.79492  -0.79022
 Alpha  occ. eigenvalues --   -0.77887  -0.77433  -0.77396  -0.76274  -0.75683
 Alpha  occ. eigenvalues --   -0.75577  -0.75329  -0.74211  -0.73190  -0.71751
 Alpha  occ. eigenvalues --   -0.71445  -0.70527  -0.69532  -0.68863  -0.68209
 Alpha  occ. eigenvalues --   -0.67794  -0.67374  -0.66962  -0.66861  -0.66173
 Alpha  occ. eigenvalues --   -0.65725  -0.65657  -0.65105  -0.65057  -0.63185
 Alpha  occ. eigenvalues --   -0.62033  -0.61555  -0.61427  -0.60898  -0.60269
 Alpha  occ. eigenvalues --   -0.59548  -0.58937  -0.58435  -0.58260  -0.57679
 Alpha  occ. eigenvalues --   -0.57352  -0.56616  -0.56481  -0.56238  -0.56165
 Alpha  occ. eigenvalues --   -0.55601  -0.55519  -0.54987  -0.54888  -0.54674
 Alpha  occ. eigenvalues --   -0.54638  -0.54314  -0.54211  -0.54036  -0.54006
 Alpha  occ. eigenvalues --   -0.53576  -0.53353  -0.53081  -0.52919  -0.52682
 Alpha  occ. eigenvalues --   -0.52599  -0.52244  -0.51892  -0.51492  -0.51477
 Alpha  occ. eigenvalues --   -0.51353  -0.51328  -0.50981  -0.50773  -0.50669
 Alpha  occ. eigenvalues --   -0.50564  -0.50349  -0.50201  -0.50022  -0.49777
 Alpha  occ. eigenvalues --   -0.49153  -0.49108  -0.49088  -0.48666  -0.48494
 Alpha  occ. eigenvalues --   -0.48303  -0.48233  -0.48037  -0.47923  -0.47896
 Alpha  occ. eigenvalues --   -0.47635  -0.47221  -0.47005  -0.46858  -0.46734
 Alpha  occ. eigenvalues --   -0.46606  -0.46341  -0.46324  -0.46206  -0.45650
 Alpha  occ. eigenvalues --   -0.45609  -0.45322  -0.45205  -0.45107  -0.44964
 Alpha  occ. eigenvalues --   -0.44806  -0.44650  -0.44349  -0.43933  -0.43810
 Alpha  occ. eigenvalues --   -0.43704  -0.43581  -0.43514  -0.43393  -0.43247
 Alpha  occ. eigenvalues --   -0.43042  -0.43025  -0.42753  -0.42713  -0.42653
 Alpha  occ. eigenvalues --   -0.42354  -0.42092  -0.42018  -0.41585  -0.41424
 Alpha  occ. eigenvalues --   -0.40866  -0.40182  -0.39729  -0.39597  -0.39443
 Alpha  occ. eigenvalues --   -0.39266  -0.38726  -0.38563  -0.38161  -0.38090
 Alpha  occ. eigenvalues --   -0.37734  -0.37102  -0.37011  -0.36631  -0.36120
 Alpha  occ. eigenvalues --   -0.36006  -0.35635  -0.34985  -0.34200  -0.33104
 Alpha  occ. eigenvalues --   -0.33069  -0.32814  -0.32468  -0.31795  -0.26758
 Alpha  occ. eigenvalues --   -0.23567
 Alpha virt. eigenvalues --   -0.07957  -0.00387   0.01961   0.03938   0.04701
 Alpha virt. eigenvalues --    0.06234   0.06889   0.07644   0.08007   0.09412
 Alpha virt. eigenvalues --    0.10369   0.10537   0.11606   0.12212   0.12653

 Mulliken charges:
               1
     1  Mg   0.957673
     2  C   -0.021655
     3  C   -0.067972
     4  C   -0.076604
     5  C   -0.092875
     6  N   -0.268886
     7  C   -0.047298
     8  C   -0.049121
     9  C   -0.114276
    10  C    0.012933
    11  C    0.013105
    12  C    0.046509
    13  C   -0.049232
    14  C    0.243488
    15  O   -0.290467
    16  O   -0.338502
    17  N   -0.524226
    18  C    0.165011
    19  C   -0.153061
    20  C   -0.053934
    21  C    0.222489
    22  C    0.082994
    23  C    0.032594
    24  O   -0.261034
    25  C   -0.016546
    26  N   -0.387526
    27  C    0.054198
    28  C   -0.100812
    29  C   -0.090735
    30  C    0.071696
    31  C    0.015635
    32  C    0.003434
    33  C   -0.055867
    34  N   -0.446474
    35  C    0.135669
    36  C   -0.198246
    37  C    0.045024
    38  C    0.129898
    39  C    0.077385
    40  C    0.061500
    41  O   -0.202485
    42  C   -0.011220
    43  C    0.259462
    44  O   -0.237155
    45  O   -0.410350
    46  C    0.153877
    47  C    0.272277
    48  C   -0.134841
    49  C   -0.168332
    50  C    0.038145
    51  C    0.037032
    52  C   -0.032914
    53  C    0.067552
    54  C   -0.172583
    55  C   -0.019954
    56  C   -0.014813
    57  C    0.005891
    58  C    0.034871
    59  C   -0.231396
    60  C    0.006187
    61  C   -0.005417
    62  C    0.007038
    63  C   -0.029502
    64  C   -0.191537
    65  C    0.004294
    66  C    0.017446
    67  H    0.007518
    68  H   -0.012749
    69  H   -0.001496
    70  H    0.033802
    71  H    0.042925
    72  H    0.041236
    73  H    0.043980
    74  H    0.060722
    75  H    0.045008
    76  H    0.050474
    77  H    0.070129
    78  H    0.064769
    79  H    0.047994
    80  H    0.044316
    81  H    0.051743
    82  H    0.060614
    83  H    0.051792
    84  H    0.054885
    85  H    0.037454
    86  H    0.024398
    87  H    0.047050
    88  H    0.048347
    89  H    0.039351
    90  H    0.049629
    91  H    0.023448
    92  H    0.018150
    93  H    0.051902
    94  H    0.035533
    95  H    0.060422
    96  H    0.051002
    97  H    0.039825
    98  H    0.053885
    99  H    0.068521
   100  H    0.045268
   101  H    0.041610
   102  H    0.029429
   103  H    0.043753
   104  H    0.010586
   105  H    0.034439
   106  H    0.027014
   107  H    0.044436
   108  H    0.012448
   109  H    0.014056
   110  H    0.027626
   111  H    0.012164
   112  H    0.013580
   113  H    0.010546
   114  H    0.010950
   115  H    0.016166
   116  H    0.016291
   117  H    0.029992
   118  H    0.015673
   119  H   -0.001823
   120  H    0.016428
   121  H    0.021777
   122  H    0.013670
   123  H    0.011099
   124  H    0.027193
   125  H    0.021265
   126  H    0.032795
   127  H    0.024643
   128  H    0.003595
   129  H    0.018291
   130  H    0.014262
   131  H    0.011373
   132  H    0.025761
   133  H    0.017945
   134  H    0.030134
   135  H    0.030722
   136  H    0.023323
   137  H    0.012404
   138  H    0.034873
   139  H    0.024201
   140  H    0.016008
 Sum of Mulliken charges =  -0.00000

 Dipole moment (field-independent basis, Debye):
    X=              0.3316    Y=              6.1414    Z=             -1.6767  Tot=              6.3748
 Quadrupole moment (field-independent basis, Debye-Ang):
   XX=           -389.1141   YY=           -425.5510   ZZ=           -398.5325
   XY=            -47.8496   XZ=            -18.8568   YZ=            -33.8956

 Normal termination of Gaussian 16 at Thu May  5 12:36:46 2022.
