 Gaussian 16, Revision A.03,
 Gaussian 16:  ES64L-G16RevA.03 25-Dec-2016

 --------------------
 #p ZINDO=(nstates=5)
 --------------------

 -----------------------------
 step_851_chromophore_26 ZINDO
 -----------------------------
 Symbolic Z-matrix:
 Charge =  0 Multiplicity = 1

                         Standard orientation:
 ---------------------------------------------------------------------
 Center     Atomic      Atomic             Coordinates (Angstroms)
 Number     Number       Type             X           Y           Z
 ---------------------------------------------------------------------
      1         12           0       -3.882739    1.462517    0.455925
      2          6           0       -5.158628   -1.833991    0.079312
      3          6           0       -2.509650    0.350411    3.478519
      4          6           0       -2.475451    4.429524    0.583684
      5          6           0       -4.642508    2.032195   -2.922006
      6          7           0       -3.625717   -0.568709    1.536803
      7          6           0       -4.331309   -1.670951    1.186746
      8          6           0       -3.945900   -2.860964    2.064620
      9          6           0       -3.398178   -2.123255    3.326973
     10          6           0       -3.181629   -0.718086    2.780051
     11          6           0       -4.314978   -1.910945    4.663069
     12          6           0       -3.086035   -3.924861    1.325541
     13          6           0       -1.828632   -3.367900    0.630216
     14          6           0       -0.749694   -4.411376    0.147930
     15          8           0       -0.702747   -5.584121    0.554772
     16          8           0        0.244619   -3.866907   -0.602284
     17          7           0       -2.576685    2.278270    1.825363
     18          6           0       -2.200553    1.713583    3.067605
     19          6           0       -1.386654    2.694369    3.740096
     20          6           0       -1.395234    3.906796    2.973565
     21          6           0       -2.139758    3.634426    1.732460
     22          6           0       -0.651293    2.332345    4.970708
     23          6           0       -0.722899    5.171492    3.388732
     24          8           0       -0.091989    5.293295    4.458959
     25          6           0       -0.821621    6.381732    2.524961
     26          7           0       -3.406260    2.852992   -1.011441
     27          6           0       -3.076041    4.121084   -0.600650
     28          6           0       -3.288120    5.198464   -1.712508
     29          6           0       -3.546298    4.304679   -2.952860
     30          6           0       -3.868354    2.978461   -2.285773
     31          6           0       -4.529653    6.222700   -1.461961
     32          6           0       -2.387885    4.123423   -3.954632
     33          6           0       -2.593300    4.429789   -5.438416
     34          7           0       -4.949342    0.443250   -1.015109
     35          6           0       -5.102090    0.779685   -2.360918
     36          6           0       -5.917265   -0.252383   -2.947609
     37          6           0       -6.038012   -1.256282   -2.015163
     38          6           0       -5.331693   -0.831547   -0.859562
     39          6           0       -6.476408   -0.346786   -4.356606
     40          6           0       -6.482897   -2.538143   -1.794990
     41          8           0       -7.052320   -3.284876   -2.568874
     42          6           0       -6.024434   -2.989791   -0.370208
     43          6           0       -7.176452   -3.444248    0.426610
     44          8           0       -7.358179   -4.578738    0.872730
     45          8           0       -8.100768   -2.399539    0.594566
     46          6           0       -9.510571   -2.586411    1.025033
     47          6           0        1.337110   -4.779597   -0.930465
     48          6           0        2.228307   -4.060699   -1.833635
     49          6           0        3.245699   -3.334106   -1.478122
     50          6           0        3.816450   -3.165765   -0.085169
     51          6           0        4.139751   -2.637197   -2.474579
     52          6           0        3.972290   -1.127903   -2.475909
     53          6           0        5.194934   -0.355761   -2.737943
     54          6           0        5.705529    0.258277   -1.480699
     55          6           0        6.079170    1.753731   -1.724445
     56          6           0        6.846608   -0.469527   -0.814831
     57          6           0        7.010114   -0.126295    0.664941
     58          6           0        7.963926   -1.108658    1.366868
     59          6           0        9.367391   -0.349378    1.568568
     60          6           0       10.191504   -0.998858    2.773518
     61          6           0       10.259530   -0.662357    0.311413
     62          6           0       11.306176    0.446559    0.159551
     63          6           0       12.757652   -0.171010    0.179218
     64          6           0       13.704916    0.331241   -1.017256
     65          6           0       14.602429   -0.847561   -1.396304
     66          6           0       14.466265    1.544021   -0.648112
     67          1           0       -2.116687    0.030810    4.446551
     68          1           0       -2.389750    5.518236    0.597786
     69          1           0       -4.973936    2.284658   -3.930473
     70          1           0       -4.819033   -3.398457    2.433648
     71          1           0       -2.472244   -2.571350    3.686854
     72          1           0       -3.902576   -2.521959    5.465677
     73          1           0       -5.271542   -2.387101    4.446675
     74          1           0       -4.337587   -0.858162    4.943456
     75          1           0       -3.716342   -4.440803    0.601187
     76          1           0       -2.830061   -4.671986    2.076570
     77          1           0       -1.282892   -2.622893    1.209906
     78          1           0       -2.197579   -2.847130   -0.253365
     79          1           0        0.259905    2.925986    5.044746
     80          1           0       -0.372294    1.279022    4.998369
     81          1           0       -1.144635    2.713865    5.864351
     82          1           0       -1.832414    6.768707    2.401124
     83          1           0       -0.488483    6.140542    1.515268
     84          1           0       -0.209726    7.157009    2.986105
     85          1           0       -2.417785    5.787064   -2.002604
     86          1           0       -4.421664    4.607494   -3.526011
     87          1           0       -4.208228    7.235665   -1.706177
     88          1           0       -4.907067    6.206050   -0.440122
     89          1           0       -5.280739    5.891042   -2.178982
     90          1           0       -1.950867    3.128394   -3.865491
     91          1           0       -1.604739    4.833267   -3.691088
     92          1           0       -3.612563    4.740482   -5.665128
     93          1           0       -2.378071    3.620472   -6.137639
     94          1           0       -2.027914    5.338292   -5.644166
     95          1           0       -7.184541   -1.172513   -4.425522
     96          1           0       -5.700353   -0.592519   -5.081925
     97          1           0       -6.876355    0.643520   -4.577506
     98          1           0       -5.436313   -3.906061   -0.320628
     99          1           0       -9.892314   -3.597985    0.887084
    100          1           0      -10.185280   -1.897939    0.516637
    101          1           0       -9.702515   -2.239738    2.040349
    102          1           0        0.909868   -5.664942   -1.403622
    103          1           0        1.921987   -5.295356   -0.169676
    104          1           0        2.071392   -4.107654   -2.911331
    105          1           0        4.799478   -3.636135   -0.094176
    106          1           0        3.299642   -3.713444    0.702034
    107          1           0        3.956027   -2.140724    0.257950
    108          1           0        3.966951   -3.036381   -3.474712
    109          1           0        5.189995   -2.887948   -2.329353
    110          1           0        3.392016   -0.779950   -1.622841
    111          1           0        3.261634   -0.929673   -3.278806
    112          1           0        4.923590    0.332096   -3.538621
    113          1           0        6.053115   -0.913041   -3.114831
    114          1           0        4.878013    0.386823   -0.782363
    115          1           0        5.934646    2.197915   -2.708913
    116          1           0        7.158216    1.833890   -1.588867
    117          1           0        5.513643    2.470090   -1.128463
    118          1           0        7.772050   -0.179899   -1.313475
    119          1           0        6.845882   -1.529989   -1.068395
    120          1           0        6.035729   -0.221795    1.144223
    121          1           0        7.258672    0.934936    0.661496
    122          1           0        8.075214   -2.076724    0.878748
    123          1           0        7.598893   -1.435029    2.341119
    124          1           0        9.219621    0.723645    1.688189
    125          1           0       11.246221   -1.032031    2.502022
    126          1           0        9.808877   -1.987674    3.026281
    127          1           0       10.172426   -0.397412    3.681814
    128          1           0        9.569115   -0.747801   -0.527723
    129          1           0       10.642086   -1.666823    0.494116
    130          1           0       11.072355    1.238822    0.871754
    131          1           0       11.079019    1.057777   -0.713654
    132          1           0       12.801472   -1.251654    0.320629
    133          1           0       13.174551    0.168449    1.127028
    134          1           0       13.001687    0.526121   -1.827475
    135          1           0       14.581819   -1.226641   -2.418440
    136          1           0       14.400793   -1.668894   -0.708333
    137          1           0       15.651909   -0.564886   -1.303330
    138          1           0       14.034599    2.140829    0.156334
    139          1           0       14.671384    2.138005   -1.538802
    140          1           0       15.496505    1.337037   -0.357479
 ---------------------------------------------------------------------

 SCF Done:  E(RZINDO/S) =  -474.394623711     A.U. after   20 cycles

 Excitation energies and oscillator strengths:

 Excited State   1:      Singlet-A      1.1876 eV 1044.02 nm  f=0.6046  <S**2>=0.000
     175 ->178         0.19200
     176 ->177         0.66193
 This state for optimization and/or second-order correction.
 Total Energy, E(CIS/TDA) =  -474.350981637
 Copying the excited state density for this state as the 1-particle RhoCI density.

 Excited State   2:      Singlet-A      1.8828 eV  658.52 nm  f=0.0427  <S**2>=0.000
     175 ->177         0.54909
     176 ->178        -0.41940

 Excited State   3:      Singlet-A      2.8412 eV  436.38 nm  f=0.1390  <S**2>=0.000
     169 ->177         0.23175
     169 ->179        -0.21789
     169 ->180        -0.17280
     169 ->185        -0.10475
     170 ->177        -0.19037
     170 ->179         0.19109
     170 ->180         0.14413
     172 ->177         0.17191
     174 ->177         0.11276
     175 ->177        -0.15801
     176 ->178        -0.24068
     176 ->179         0.11393

 Excited State   4:      Singlet-A      2.9520 eV  419.99 nm  f=0.5689  <S**2>=0.000
     169 ->177         0.13292
     169 ->179        -0.16350
     169 ->180        -0.10989
     170 ->177        -0.10243
     175 ->177         0.28378
     176 ->178         0.38042
     176 ->179        -0.31506

 Excited State   5:      Singlet-A      2.9579 eV  419.17 nm  f=0.0012  <S**2>=0.000
     168 ->177         0.25147
     168 ->178         0.16067
     168 ->179         0.35334
     168 ->180        -0.22550
     168 ->181        -0.18511
     168 ->183         0.10061
     168 ->185         0.22396
     168 ->187        -0.11693
     168 ->195        -0.12311
     176 ->179         0.26352

 The electronic state is 1-A.
 Alpha  occ. eigenvalues --   -1.86691  -1.82301  -1.79501  -1.73304  -1.71370
 Alpha  occ. eigenvalues --   -1.69429  -1.68611  -1.62247  -1.58650  -1.57974
 Alpha  occ. eigenvalues --   -1.56141  -1.52620  -1.49145  -1.48397  -1.47234
 Alpha  occ. eigenvalues --   -1.45860  -1.42174  -1.40190  -1.40103  -1.38235
 Alpha  occ. eigenvalues --   -1.35893  -1.33453  -1.32895  -1.30086  -1.29780
 Alpha  occ. eigenvalues --   -1.26822  -1.26071  -1.23278  -1.21730  -1.19433
 Alpha  occ. eigenvalues --   -1.17431  -1.16011  -1.15814  -1.14771  -1.13967
 Alpha  occ. eigenvalues --   -1.11747  -1.11288  -1.09628  -1.07500  -1.04793
 Alpha  occ. eigenvalues --   -1.03208  -1.02174  -1.00998  -0.98495  -0.97884
 Alpha  occ. eigenvalues --   -0.96836  -0.95499  -0.93738  -0.92824  -0.92060
 Alpha  occ. eigenvalues --   -0.91624  -0.91278  -0.90628  -0.88943  -0.88265
 Alpha  occ. eigenvalues --   -0.86474  -0.85326  -0.83752  -0.82998  -0.81602
 Alpha  occ. eigenvalues --   -0.80675  -0.79523  -0.78676  -0.77500  -0.77075
 Alpha  occ. eigenvalues --   -0.76943  -0.76224  -0.74603  -0.74229  -0.73645
 Alpha  occ. eigenvalues --   -0.72801  -0.72554  -0.72109  -0.71378  -0.70856
 Alpha  occ. eigenvalues --   -0.69940  -0.69755  -0.69366  -0.68851  -0.68777
 Alpha  occ. eigenvalues --   -0.67684  -0.67378  -0.66833  -0.65965  -0.65292
 Alpha  occ. eigenvalues --   -0.64832  -0.64633  -0.64263  -0.63762  -0.63557
 Alpha  occ. eigenvalues --   -0.63327  -0.63068  -0.62392  -0.61661  -0.61268
 Alpha  occ. eigenvalues --   -0.61168  -0.60970  -0.60532  -0.59976  -0.59635
 Alpha  occ. eigenvalues --   -0.59361  -0.58920  -0.58802  -0.58683  -0.57838
 Alpha  occ. eigenvalues --   -0.57495  -0.57400  -0.56998  -0.56845  -0.56610
 Alpha  occ. eigenvalues --   -0.56366  -0.56224  -0.55943  -0.55429  -0.55230
 Alpha  occ. eigenvalues --   -0.54638  -0.54427  -0.53818  -0.53541  -0.52885
 Alpha  occ. eigenvalues --   -0.52794  -0.52535  -0.52194  -0.52052  -0.51852
 Alpha  occ. eigenvalues --   -0.51348  -0.51164  -0.50712  -0.50620  -0.50291
 Alpha  occ. eigenvalues --   -0.50078  -0.49838  -0.49722  -0.49397  -0.49338
 Alpha  occ. eigenvalues --   -0.48687  -0.48566  -0.48488  -0.48374  -0.48327
 Alpha  occ. eigenvalues --   -0.47569  -0.47460  -0.47435  -0.47077  -0.46923
 Alpha  occ. eigenvalues --   -0.46279  -0.46163  -0.46078  -0.45876  -0.45462
 Alpha  occ. eigenvalues --   -0.45170  -0.45091  -0.44794  -0.44235  -0.43944
 Alpha  occ. eigenvalues --   -0.43019  -0.42753  -0.42120  -0.42102  -0.41964
 Alpha  occ. eigenvalues --   -0.41813  -0.41499  -0.40504  -0.39471  -0.39167
 Alpha  occ. eigenvalues --   -0.38919  -0.38014  -0.35565  -0.35259  -0.34944
 Alpha  occ. eigenvalues --   -0.33546  -0.33448  -0.33294  -0.32884  -0.27392
 Alpha  occ. eigenvalues --   -0.22262
 Alpha virt. eigenvalues --   -0.09383  -0.02788  -0.01084   0.00743   0.01113
 Alpha virt. eigenvalues --    0.01447   0.02024   0.02210   0.04302   0.05489
 Alpha virt. eigenvalues --    0.05812   0.06615   0.06730   0.07189   0.07701

 Mulliken charges:
               1
     1  Mg   0.430708
     2  C   -0.036254
     3  C   -0.076706
     4  C   -0.083741
     5  C   -0.085434
     6  N   -0.268292
     7  C    0.119761
     8  C    0.001289
     9  C   -0.003494
    10  C    0.147831
    11  C   -0.054916
    12  C   -0.011238
    13  C    0.010862
    14  C    0.453248
    15  O   -0.522270
    16  O   -0.250261
    17  N   -0.350670
    18  C    0.093181
    19  C    0.061895
    20  C   -0.050855
    21  C    0.129375
    22  C   -0.039526
    23  C    0.328271
    24  O   -0.538496
    25  C   -0.029350
    26  N   -0.288637
    27  C    0.145272
    28  C   -0.006297
    29  C    0.002568
    30  C    0.140168
    31  C   -0.056647
    32  C   -0.025933
    33  C   -0.057523
    34  N   -0.323250
    35  C    0.092834
    36  C    0.031723
    37  C   -0.046120
    38  C    0.112187
    39  C   -0.042798
    40  C    0.340281
    41  O   -0.526052
    42  C    0.056898
    43  C    0.494860
    44  O   -0.510202
    45  O   -0.291776
    46  C    0.076971
    47  C    0.111805
    48  C   -0.077159
    49  C    0.005052
    50  C   -0.046354
    51  C   -0.021645
    52  C   -0.022021
    53  C   -0.019786
    54  C   -0.004010
    55  C   -0.070015
    56  C   -0.028985
    57  C   -0.029945
    58  C   -0.038468
    59  C   -0.028955
    60  C   -0.064760
    61  C   -0.038637
    62  C   -0.039502
    63  C   -0.043840
    64  C    0.000378
    65  C   -0.060515
    66  C   -0.047008
    67  H    0.027278
    68  H    0.021604
    69  H    0.025483
    70  H    0.027266
    71  H    0.032441
    72  H    0.021141
    73  H    0.028369
    74  H    0.039954
    75  H    0.034981
    76  H    0.030488
    77  H    0.047424
    78  H    0.036517
    79  H    0.034655
    80  H    0.029248
    81  H    0.043242
    82  H    0.036910
    83  H    0.032598
    84  H    0.036864
    85  H    0.035285
    86  H    0.028580
    87  H    0.023060
    88  H    0.029959
    89  H    0.026980
    90  H    0.025342
    91  H    0.014027
    92  H    0.012414
    93  H    0.028104
    94  H    0.017886
    95  H    0.040208
    96  H    0.030642
    97  H    0.026793
    98  H    0.057112
    99  H    0.054312
   100  H    0.033031
   101  H    0.035085
   102  H    0.034337
   103  H    0.055057
   104  H    0.027387
   105  H    0.021320
   106  H    0.015707
   107  H    0.030201
   108  H    0.011592
   109  H    0.019123
   110  H    0.024134
   111  H    0.003099
   112  H    0.014362
   113  H    0.017715
   114  H    0.016034
   115  H    0.012435
   116  H    0.014605
   117  H    0.016875
   118  H    0.012527
   119  H    0.015599
   120  H    0.011129
   121  H    0.030478
   122  H    0.025263
   123  H    0.009535
   124  H    0.035789
   125  H    0.018791
   126  H    0.024130
   127  H    0.010775
   128  H    0.014423
   129  H    0.023979
   130  H    0.022872
   131  H    0.014412
   132  H    0.029720
   133  H    0.010182
   134  H    0.022387
   135  H    0.018605
   136  H    0.020937
   137  H    0.012161
   138  H    0.021566
   139  H    0.011732
   140  H    0.014667
 Sum of Mulliken charges =  -0.00000

 Dipole moment (field-independent basis, Debye):
    X=              0.6374    Y=              7.8106    Z=             -1.6558  Tot=              8.0095
 N-N= 4.469518400716D+03 E-N= 0.000000000000D+00  KE=-9.612542575419D+03
 Leave Link  601 at Thu May  5 12:50:35 2022, MaxMem=  6710886400 cpu:               0.8 elap:               0.0
 (Enter /sw/apps/gaussian-16.0/g16/l9999.exe)
 1\1\GINC-BP1-COMPUTE063\SP\RZINDO CIS\STO-3G\C55H74Mg1N4O6\OF15641\05-
 May-2022\0\\#p ZINDO=(nstates=5)\\step_851_chromophore_26 ZINDO\\0,1\M
 g,0,-8.78,18.618,42.727\C,0,-5.252,18.383,43.094\C,0,-8.284,22.054,42.
 273\C,0,-12.002,18.713,42.087\C,0,-8.874,15.127,42.386\N,0,-6.967,20.0
 3,42.445\C,0,-5.701,19.654,42.747\C,0,-4.716,20.784,42.45\C,0,-5.664,2
 2.022,42.53\C,0,-7.031,21.357,42.432\C,0,-5.751,22.952,43.871\C,0,-3.8
 4,20.529,41.191\C,0,-4.631,20.185,39.914\C,0,-3.849,20.236,38.546\O,0,

 Normal termination of Gaussian 16 at Thu May  5 12:50:35 2022.
