 Gaussian 16, Revision A.03,
 Gaussian 16:  ES64L-G16RevA.03 25-Dec-2016

 ------------------------------
 #p blyp/Def2SVP td=(nstates=5)
 ------------------------------

 --------------------------------------------------
 step_351_chromophore_23 TDDFT with blyp functional
 --------------------------------------------------
 Symbolic Z-matrix:
 Charge =  0 Multiplicity = 1

                         Standard orientation:
 ---------------------------------------------------------------------
 Center     Atomic      Atomic             Coordinates (Angstroms)
 Number     Number       Type             X           Y           Z
 ---------------------------------------------------------------------
      1         12           0        4.868256    0.824849   -0.548707
      2          6           0        3.339229   -2.536256   -0.583100
      3          6           0        2.187118    1.966895   -2.084485
      4          6           0        6.014625    3.966377    0.213780
      5          6           0        6.895270   -0.440624    2.053831
      6          7           0        2.989333   -0.288797   -1.183651
      7          6           0        2.586777   -1.560795   -1.205994
      8          6           0        1.382588   -1.836319   -2.055055
      9          6           0        1.080619   -0.411356   -2.646420
     10          6           0        2.184207    0.486637   -1.967804
     11          6           0        0.860967   -0.288794   -4.165355
     12          6           0        0.193445   -2.486885   -1.235478
     13          6           0       -0.333406   -3.830876   -1.793177
     14          6           0       -1.739978   -3.884866   -2.285364
     15          8           0       -2.136302   -3.593836   -3.456799
     16          8           0       -2.548787   -4.152870   -1.225760
     17          7           0        4.324380    2.703824   -1.074747
     18          6           0        3.136801    2.959140   -1.669016
     19          6           0        2.990288    4.367768   -1.823658
     20          6           0        4.122766    5.010457   -1.271575
     21          6           0        4.918585    3.904873   -0.737205
     22          6           0        1.761736    5.112272   -2.383340
     23          6           0        4.399828    6.536858   -1.140944
     24          8           0        3.691126    7.363174   -1.682281
     25          6           0        5.656015    7.095946   -0.465623
     26          7           0        6.079935    1.644574    1.171040
     27          6           0        6.470937    2.982992    1.112661
     28          6           0        7.562014    3.257436    2.160134
     29          6           0        7.975330    1.818095    2.587857
     30          6           0        6.839762    0.929704    1.974010
     31          6           0        8.744686    4.109550    1.712782
     32          6           0        8.075110    1.585809    4.142150
     33          6           0        9.440240    1.071794    4.648017
     34          7           0        5.227238   -1.117838    0.488206
     35          6           0        6.078549   -1.461990    1.500439
     36          6           0        6.122063   -2.880717    1.666877
     37          6           0        5.061773   -3.328487    0.853171
     38          6           0        4.523067   -2.205392    0.186166
     39          6           0        6.960761   -3.611158    2.632129
     40          6           0        4.394649   -4.552309    0.486676
     41          8           0        4.603160   -5.729221    0.671064
     42          6           0        3.156580   -4.092173   -0.430315
     43          6           0        3.294550   -4.808705   -1.645674
     44          8           0        4.223587   -4.661470   -2.471332
     45          8           0        2.461969   -5.885556   -1.654417
     46          6           0        2.746386   -6.957163   -2.643528
     47          6           0       -3.994330   -3.943838   -1.484813
     48          6           0       -4.881021   -4.251517   -0.307340
     49          6           0       -5.462898   -3.306745    0.432289
     50          6           0       -5.029871   -1.902795    0.586197
     51          6           0       -6.422834   -3.821448    1.480328
     52          6           0       -7.949045   -3.488943    1.302418
     53          6           0       -8.638545   -2.845425    2.499177
     54          6           0      -10.089646   -2.317962    2.101887
     55          6           0      -11.168925   -3.388973    2.387999
     56          6           0      -10.245822   -0.938797    2.748502
     57          6           0       -9.813608    0.129245    1.738614
     58          6           0       -9.025932    1.277422    2.342020
     59          6           0       -7.951092    1.959103    1.466427
     60          6           0       -6.524008    1.555440    1.726941
     61          6           0       -8.192275    3.412201    1.418355
     62          6           0       -9.463430    3.925425    0.685928
     63          6           0       -9.315253    5.170581   -0.268692
     64          6           0      -10.272121    5.339702   -1.441462
     65          6           0       -9.690780    6.190333   -2.576105
     66          6           0      -11.581371    5.901315   -0.987031
     67          1           0        1.317691    2.245689   -2.682860
     68          1           0        6.344107    4.940982    0.581824
     69          1           0        7.763394   -0.593841    2.699427
     70          1           0        1.649341   -2.446582   -2.917208
     71          1           0        0.122690   -0.047305   -2.275943
     72          1           0        0.163914    0.515784   -4.402763
     73          1           0        0.440694   -1.201949   -4.585176
     74          1           0        1.880198   -0.201125   -4.542537
     75          1           0       -0.663501   -1.826782   -1.370741
     76          1           0        0.477830   -2.565161   -0.185780
     77          1           0       -0.085611   -4.560957   -1.022980
     78          1           0        0.252237   -4.085890   -2.676609
     79          1           0        1.550758    5.981729   -1.761568
     80          1           0        0.900186    4.445666   -2.411396
     81          1           0        2.031696    5.404195   -3.398479
     82          1           0        5.840098    8.144929   -0.702064
     83          1           0        6.527886    6.586331   -0.876882
     84          1           0        5.602826    7.086108    0.623170
     85          1           0        7.179871    3.728876    3.065269
     86          1           0        8.860347    1.600538    1.989132
     87          1           0        8.565310    4.454646    0.694225
     88          1           0        9.630887    3.528990    1.969563
     89          1           0        8.681854    5.017392    2.313666
     90          1           0        7.269170    0.885051    4.360003
     91          1           0        7.869284    2.455699    4.766217
     92          1           0        9.275324    0.128877    5.170062
     93          1           0        9.813616    1.790190    5.377236
     94          1           0       10.150867    0.923096    3.835190
     95          1           0        7.932414   -3.126022    2.720872
     96          1           0        7.089977   -4.634630    2.280533
     97          1           0        6.463278   -3.591196    3.602508
     98          1           0        2.198286   -4.309607    0.040213
     99          1           0        3.574760   -7.637670   -2.447231
    100          1           0        2.861524   -6.588385   -3.663704
    101          1           0        1.877779   -7.615347   -2.657326
    102          1           0       -4.442983   -4.660988   -2.172489
    103          1           0       -4.341397   -2.971328   -1.833772
    104          1           0       -5.313806   -5.250141   -0.252360
    105          1           0       -3.983754   -1.796760    0.298585
    106          1           0       -5.226025   -1.487728    1.574183
    107          1           0       -5.623269   -1.356257   -0.147330
    108          1           0       -6.156324   -3.372887    2.437657
    109          1           0       -6.285896   -4.893373    1.629559
    110          1           0       -8.566970   -4.370270    1.130406
    111          1           0       -8.052165   -2.864701    0.413848
    112          1           0       -7.944805   -2.019698    2.656127
    113          1           0       -8.589276   -3.501822    3.368303
    114          1           0      -10.049749   -2.175023    1.021320
    115          1           0      -11.481192   -3.973593    1.522476
    116          1           0      -12.060229   -2.939166    2.824545
    117          1           0      -10.965478   -4.096723    3.190809
    118          1           0       -9.753695   -0.836356    3.716005
    119          1           0      -11.314552   -0.785843    2.895089
    120          1           0      -10.660246    0.571942    1.215040
    121          1           0       -9.119071   -0.421602    1.104021
    122          1           0       -8.523333    0.976287    3.261032
    123          1           0       -9.739057    2.023588    2.692126
    124          1           0       -8.221121    1.620980    0.466531
    125          1           0       -6.413614    0.910051    2.597937
    126          1           0       -5.932851    2.380252    2.124873
    127          1           0       -5.949640    1.179606    0.879415
    128          1           0       -7.278907    3.875651    1.044136
    129          1           0       -8.161243    3.697028    2.469890
    130          1           0      -10.095729    4.264769    1.506555
    131          1           0       -9.925447    3.041716    0.244464
    132          1           0       -8.322083    5.162509   -0.719212
    133          1           0       -9.520570    5.947817    0.467589
    134          1           0      -10.410575    4.353949   -1.885961
    135          1           0       -8.816091    6.796130   -2.337717
    136          1           0      -10.290850    7.053410   -2.862769
    137          1           0       -9.575820    5.696245   -3.541191
    138          1           0      -11.426169    6.955576   -0.756927
    139          1           0      -11.816630    5.466410   -0.015867
    140          1           0      -12.410444    5.903372   -1.695289
 ---------------------------------------------------------------------

 SCF Done:  E(RB-LYP) =  -3007.34007217     A.U. after   21 cycles

 Excitation energies and oscillator strengths:

 Excited State   1:      Singlet-A      1.8136 eV  683.63 nm  f=0.2732  <S**2>=0.000
     245 -> 248        0.19643
     246 -> 247        0.68625
     246 <- 247       -0.14813
 This state for optimization and/or second-order correction.
 Total Energy, E(TD-HF/TD-DFT) =  -3007.27342304
 Copying the excited state density for this state as the 1-particle RhoCI density.

 Excited State   2:      Singlet-A      1.9399 eV  639.11 nm  f=0.0220  <S**2>=0.000
     244 -> 247        0.61457
     245 -> 247        0.32296

 Excited State   3:      Singlet-A      2.0004 eV  619.79 nm  f=0.0680  <S**2>=0.000
     243 -> 247       -0.22698
     244 -> 247       -0.34237
     245 -> 247        0.53169
     246 -> 248       -0.19090

 Excited State   4:      Singlet-A      2.0952 eV  591.76 nm  f=0.0149  <S**2>=0.000
     243 -> 247        0.66408
     245 -> 247        0.20057

 Excited State   5:      Singlet-A      2.3794 eV  521.08 nm  f=0.0004  <S**2>=0.000
     241 -> 247        0.69919

 The electronic state is 1-A.
 Alpha  occ. eigenvalues --  -46.29684 -18.83038 -18.82088 -18.76788 -18.76426
 Alpha  occ. eigenvalues --  -18.76089 -18.75379 -14.03847 -14.02789 -14.01957
 Alpha  occ. eigenvalues --  -14.00893 -10.04242 -10.02913 -10.00758 -10.00150
 Alpha  occ. eigenvalues --   -9.97735  -9.97610  -9.97332  -9.97032  -9.96834
 Alpha  occ. eigenvalues --   -9.96339  -9.96237  -9.95790  -9.95435  -9.94627
 Alpha  occ. eigenvalues --   -9.94283  -9.94205  -9.94092  -9.94068  -9.93957
 Alpha  occ. eigenvalues --   -9.93787  -9.93733  -9.93712  -9.93452  -9.93378
 Alpha  occ. eigenvalues --   -9.93327  -9.93152  -9.92980  -9.92908  -9.92813
 Alpha  occ. eigenvalues --   -9.92591  -9.92456  -9.92430  -9.92409  -9.92370
 Alpha  occ. eigenvalues --   -9.92348  -9.92294  -9.92119  -9.91952  -9.91905
 Alpha  occ. eigenvalues --   -9.91784  -9.91532  -9.91468  -9.91399  -9.91393
 Alpha  occ. eigenvalues --   -9.91328  -9.91212  -9.91189  -9.91178  -9.91105
 Alpha  occ. eigenvalues --   -9.91079  -9.90974  -9.90617  -9.90602  -9.90557
 Alpha  occ. eigenvalues --   -9.90523  -2.94002  -1.74382  -1.73939  -1.73695
 Alpha  occ. eigenvalues --   -0.97454  -0.96886  -0.92477  -0.92372  -0.88114
 Alpha  occ. eigenvalues --   -0.87716  -0.87293  -0.86476  -0.86405  -0.85538
 Alpha  occ. eigenvalues --   -0.74920  -0.74415  -0.73984  -0.72983  -0.72623
 Alpha  occ. eigenvalues --   -0.72419  -0.71925  -0.71888  -0.70857  -0.70262
 Alpha  occ. eigenvalues --   -0.69652  -0.69551  -0.68585  -0.67974  -0.67714
 Alpha  occ. eigenvalues --   -0.66617  -0.66013  -0.65557  -0.65028  -0.64966
 Alpha  occ. eigenvalues --   -0.64724  -0.62888  -0.61995  -0.61714  -0.61172
 Alpha  occ. eigenvalues --   -0.60923  -0.60531  -0.60305  -0.60011  -0.59503
 Alpha  occ. eigenvalues --   -0.58290  -0.57789  -0.56589  -0.55753  -0.54497
 Alpha  occ. eigenvalues --   -0.54202  -0.54156  -0.53176  -0.52608  -0.51649
 Alpha  occ. eigenvalues --   -0.51385  -0.51274  -0.51094  -0.50534  -0.50504
 Alpha  occ. eigenvalues --   -0.50121  -0.49199  -0.49025  -0.48546  -0.46501
 Alpha  occ. eigenvalues --   -0.46220  -0.46090  -0.45843  -0.45216  -0.44644
 Alpha  occ. eigenvalues --   -0.44324  -0.44082  -0.43362  -0.43143  -0.42582
 Alpha  occ. eigenvalues --   -0.42516  -0.42191  -0.41860  -0.41746  -0.41529
 Alpha  occ. eigenvalues --   -0.41278  -0.40577  -0.40233  -0.40167  -0.39995
 Alpha  occ. eigenvalues --   -0.39654  -0.39449  -0.39357  -0.39186  -0.39102
 Alpha  occ. eigenvalues --   -0.38936  -0.38901  -0.38780  -0.38742  -0.38405
 Alpha  occ. eigenvalues --   -0.38048  -0.37882  -0.37786  -0.37668  -0.37362
 Alpha  occ. eigenvalues --   -0.37160  -0.37095  -0.36799  -0.36781  -0.36534
 Alpha  occ. eigenvalues --   -0.36280  -0.36231  -0.36032  -0.35770  -0.35709
 Alpha  occ. eigenvalues --   -0.35442  -0.35432  -0.35039  -0.34886  -0.34726
 Alpha  occ. eigenvalues --   -0.34639  -0.34506  -0.34285  -0.34001  -0.33934
 Alpha  occ. eigenvalues --   -0.33875  -0.33756  -0.33567  -0.33375  -0.33221
 Alpha  occ. eigenvalues --   -0.32993  -0.32912  -0.32559  -0.32469  -0.32278
 Alpha  occ. eigenvalues --   -0.31995  -0.31935  -0.31839  -0.31448  -0.31344
 Alpha  occ. eigenvalues --   -0.31138  -0.31024  -0.30811  -0.30763  -0.30723
 Alpha  occ. eigenvalues --   -0.30473  -0.30316  -0.30260  -0.30060  -0.29796
 Alpha  occ. eigenvalues --   -0.29609  -0.29387  -0.29305  -0.29244  -0.29053
 Alpha  occ. eigenvalues --   -0.28918  -0.28600  -0.28287  -0.28181  -0.28029
 Alpha  occ. eigenvalues --   -0.27652  -0.27467  -0.27437  -0.26914  -0.26558
 Alpha  occ. eigenvalues --   -0.26443  -0.26257  -0.26000  -0.25449  -0.25353
 Alpha  occ. eigenvalues --   -0.25257  -0.24788  -0.24638  -0.24528  -0.23792
 Alpha  occ. eigenvalues --   -0.23335  -0.22316  -0.22008  -0.21075  -0.20697
 Alpha  occ. eigenvalues --   -0.20616  -0.20497  -0.19424  -0.18990  -0.17428
 Alpha  occ. eigenvalues --   -0.16172
 Alpha virt. eigenvalues --   -0.11874  -0.07126  -0.06349  -0.04839  -0.04629
 Alpha virt. eigenvalues --   -0.04008  -0.03122  -0.02838  -0.01601  -0.00403
 Alpha virt. eigenvalues --    0.01255   0.01701   0.01886   0.02539   0.03111

 Mulliken charges:
               1
     1  Mg   0.711102
     2  C   -0.017467
     3  C   -0.059754
     4  C   -0.037477
     5  C   -0.031152
     6  N   -0.171680
     7  C   -0.121144
     8  C    0.027434
     9  C   -0.028293
    10  C   -0.016253
    11  C    0.121471
    12  C    0.119908
    13  C    0.150844
    14  C    0.085304
    15  O   -0.240862
    16  O   -0.252359
    17  N   -0.318313
    18  C    0.187616
    19  C   -0.179101
    20  C    0.036144
    21  C    0.099036
    22  C    0.194533
    23  C   -0.060918
    24  O   -0.152927
    25  C    0.123154
    26  N   -0.176876
    27  C   -0.022288
    28  C    0.008473
    29  C   -0.023104
    30  C   -0.080443
    31  C    0.159053
    32  C    0.080124
    33  C    0.066809
    34  N   -0.191664
    35  C    0.136560
    36  C   -0.169406
    37  C    0.072776
    38  C    0.079056
    39  C    0.174252
    40  C   -0.039706
    41  O   -0.108676
    42  C    0.084981
    43  C    0.104419
    44  O   -0.225148
    45  O   -0.264418
    46  C    0.221648
    47  C    0.326617
    48  C   -0.128542
    49  C   -0.159796
    50  C    0.160133
    51  C    0.150780
    52  C    0.036362
    53  C    0.067309
    54  C   -0.070104
    55  C    0.120352
    56  C    0.145352
    57  C    0.062757
    58  C    0.087055
    59  C   -0.071819
    60  C    0.133463
    61  C    0.091280
    62  C    0.069643
    63  C    0.096227
    64  C   -0.036423
    65  C    0.099574
    66  C    0.116944
    67  H   -0.053816
    68  H   -0.061594
    69  H   -0.068975
    70  H   -0.003923
    71  H   -0.026458
    72  H    0.002087
    73  H    0.003668
    74  H   -0.003377
    75  H   -0.013435
    76  H   -0.001401
    77  H   -0.000401
    78  H   -0.009589
    79  H    0.014378
    80  H   -0.020533
    81  H    0.007341
    82  H   -0.015692
    83  H    0.013480
    84  H    0.019635
    85  H   -0.025860
    86  H   -0.017545
    87  H   -0.003596
    88  H   -0.001504
    89  H   -0.022210
    90  H   -0.012916
    91  H   -0.021619
    92  H   -0.004990
    93  H   -0.008310
    94  H   -0.004031
    95  H   -0.008446
    96  H    0.010692
    97  H    0.011712
    98  H   -0.011486
    99  H    0.023926
   100  H    0.014248
   101  H    0.001530
   102  H   -0.006970
   103  H   -0.008997
   104  H   -0.030715
   105  H    0.005991
   106  H    0.004047
   107  H    0.006456
   108  H   -0.038059
   109  H   -0.032228
   110  H   -0.036575
   111  H   -0.028275
   112  H   -0.036800
   113  H   -0.019591
   114  H   -0.031771
   115  H   -0.008163
   116  H   -0.033985
   117  H   -0.026346
   118  H   -0.024701
   119  H   -0.054168
   120  H   -0.013913
   121  H   -0.021557
   122  H   -0.050650
   123  H   -0.044450
   124  H   -0.052670
   125  H   -0.027981
   126  H   -0.038864
   127  H   -0.002754
   128  H   -0.051789
   129  H   -0.047454
   130  H   -0.025366
   131  H   -0.025511
   132  H   -0.024163
   133  H   -0.030951
   134  H   -0.041312
   135  H   -0.027638
   136  H   -0.043471
   137  H   -0.014130
   138  H   -0.030457
   139  H   -0.026473
   140  H   -0.011014
 Sum of Mulliken charges =  -0.00000

 Dipole moment (field-independent basis, Debye):
    X=             -0.4742    Y=              1.8208    Z=              3.3233  Tot=              3.8189
 Quadrupole moment (field-independent basis, Debye-Ang):
   XX=           -363.5785   YY=           -439.9672   ZZ=           -405.9387
   XY=             24.8966   XZ=             13.2904   YZ=              9.8150

 Normal termination of Gaussian 16 at Fri Apr 29 15:55:56 2022.
