 Gaussian 16, Revision A.03,
 Gaussian 16:  ES64L-G16RevA.03 25-Dec-2016

 -----------------------------------
 #p cam-b3lyp/Def2SVP td=(nstates=5)
 -----------------------------------

 -------------------------------------------------------
 step_351_chromophore_23 TDDFT with cam-b3lyp functional
 -------------------------------------------------------
 Symbolic Z-matrix:
 Charge =  0 Multiplicity = 1

                         Standard orientation:
 ---------------------------------------------------------------------
 Center     Atomic      Atomic             Coordinates (Angstroms)
 Number     Number       Type             X           Y           Z
 ---------------------------------------------------------------------
      1         12           0        4.868256    0.824849   -0.548707
      2          6           0        3.339229   -2.536256   -0.583100
      3          6           0        2.187118    1.966895   -2.084485
      4          6           0        6.014625    3.966377    0.213780
      5          6           0        6.895270   -0.440624    2.053831
      6          7           0        2.989333   -0.288797   -1.183651
      7          6           0        2.586777   -1.560795   -1.205994
      8          6           0        1.382588   -1.836319   -2.055055
      9          6           0        1.080619   -0.411356   -2.646420
     10          6           0        2.184207    0.486637   -1.967804
     11          6           0        0.860967   -0.288794   -4.165355
     12          6           0        0.193445   -2.486885   -1.235478
     13          6           0       -0.333406   -3.830876   -1.793177
     14          6           0       -1.739978   -3.884866   -2.285364
     15          8           0       -2.136302   -3.593836   -3.456799
     16          8           0       -2.548787   -4.152870   -1.225760
     17          7           0        4.324380    2.703824   -1.074747
     18          6           0        3.136801    2.959140   -1.669016
     19          6           0        2.990288    4.367768   -1.823658
     20          6           0        4.122766    5.010457   -1.271575
     21          6           0        4.918585    3.904873   -0.737205
     22          6           0        1.761736    5.112272   -2.383340
     23          6           0        4.399828    6.536858   -1.140944
     24          8           0        3.691126    7.363174   -1.682281
     25          6           0        5.656015    7.095946   -0.465623
     26          7           0        6.079935    1.644574    1.171040
     27          6           0        6.470937    2.982992    1.112661
     28          6           0        7.562014    3.257436    2.160134
     29          6           0        7.975330    1.818095    2.587857
     30          6           0        6.839762    0.929704    1.974010
     31          6           0        8.744686    4.109550    1.712782
     32          6           0        8.075110    1.585809    4.142150
     33          6           0        9.440240    1.071794    4.648017
     34          7           0        5.227238   -1.117838    0.488206
     35          6           0        6.078549   -1.461990    1.500439
     36          6           0        6.122063   -2.880717    1.666877
     37          6           0        5.061773   -3.328487    0.853171
     38          6           0        4.523067   -2.205392    0.186166
     39          6           0        6.960761   -3.611158    2.632129
     40          6           0        4.394649   -4.552309    0.486676
     41          8           0        4.603160   -5.729221    0.671064
     42          6           0        3.156580   -4.092173   -0.430315
     43          6           0        3.294550   -4.808705   -1.645674
     44          8           0        4.223587   -4.661470   -2.471332
     45          8           0        2.461969   -5.885556   -1.654417
     46          6           0        2.746386   -6.957163   -2.643528
     47          6           0       -3.994330   -3.943838   -1.484813
     48          6           0       -4.881021   -4.251517   -0.307340
     49          6           0       -5.462898   -3.306745    0.432289
     50          6           0       -5.029871   -1.902795    0.586197
     51          6           0       -6.422834   -3.821448    1.480328
     52          6           0       -7.949045   -3.488943    1.302418
     53          6           0       -8.638545   -2.845425    2.499177
     54          6           0      -10.089646   -2.317962    2.101887
     55          6           0      -11.168925   -3.388973    2.387999
     56          6           0      -10.245822   -0.938797    2.748502
     57          6           0       -9.813608    0.129245    1.738614
     58          6           0       -9.025932    1.277422    2.342020
     59          6           0       -7.951092    1.959103    1.466427
     60          6           0       -6.524008    1.555440    1.726941
     61          6           0       -8.192275    3.412201    1.418355
     62          6           0       -9.463430    3.925425    0.685928
     63          6           0       -9.315253    5.170581   -0.268692
     64          6           0      -10.272121    5.339702   -1.441462
     65          6           0       -9.690780    6.190333   -2.576105
     66          6           0      -11.581371    5.901315   -0.987031
     67          1           0        1.317691    2.245689   -2.682860
     68          1           0        6.344107    4.940982    0.581824
     69          1           0        7.763394   -0.593841    2.699427
     70          1           0        1.649341   -2.446582   -2.917208
     71          1           0        0.122690   -0.047305   -2.275943
     72          1           0        0.163914    0.515784   -4.402763
     73          1           0        0.440694   -1.201949   -4.585176
     74          1           0        1.880198   -0.201125   -4.542537
     75          1           0       -0.663501   -1.826782   -1.370741
     76          1           0        0.477830   -2.565161   -0.185780
     77          1           0       -0.085611   -4.560957   -1.022980
     78          1           0        0.252237   -4.085890   -2.676609
     79          1           0        1.550758    5.981729   -1.761568
     80          1           0        0.900186    4.445666   -2.411396
     81          1           0        2.031696    5.404195   -3.398479
     82          1           0        5.840098    8.144929   -0.702064
     83          1           0        6.527886    6.586331   -0.876882
     84          1           0        5.602826    7.086108    0.623170
     85          1           0        7.179871    3.728876    3.065269
     86          1           0        8.860347    1.600538    1.989132
     87          1           0        8.565310    4.454646    0.694225
     88          1           0        9.630887    3.528990    1.969563
     89          1           0        8.681854    5.017392    2.313666
     90          1           0        7.269170    0.885051    4.360003
     91          1           0        7.869284    2.455699    4.766217
     92          1           0        9.275324    0.128877    5.170062
     93          1           0        9.813616    1.790190    5.377236
     94          1           0       10.150867    0.923096    3.835190
     95          1           0        7.932414   -3.126022    2.720872
     96          1           0        7.089977   -4.634630    2.280533
     97          1           0        6.463278   -3.591196    3.602508
     98          1           0        2.198286   -4.309607    0.040213
     99          1           0        3.574760   -7.637670   -2.447231
    100          1           0        2.861524   -6.588385   -3.663704
    101          1           0        1.877779   -7.615347   -2.657326
    102          1           0       -4.442983   -4.660988   -2.172489
    103          1           0       -4.341397   -2.971328   -1.833772
    104          1           0       -5.313806   -5.250141   -0.252360
    105          1           0       -3.983754   -1.796760    0.298585
    106          1           0       -5.226025   -1.487728    1.574183
    107          1           0       -5.623269   -1.356257   -0.147330
    108          1           0       -6.156324   -3.372887    2.437657
    109          1           0       -6.285896   -4.893373    1.629559
    110          1           0       -8.566970   -4.370270    1.130406
    111          1           0       -8.052165   -2.864701    0.413848
    112          1           0       -7.944805   -2.019698    2.656127
    113          1           0       -8.589276   -3.501822    3.368303
    114          1           0      -10.049749   -2.175023    1.021320
    115          1           0      -11.481192   -3.973593    1.522476
    116          1           0      -12.060229   -2.939166    2.824545
    117          1           0      -10.965478   -4.096723    3.190809
    118          1           0       -9.753695   -0.836356    3.716005
    119          1           0      -11.314552   -0.785843    2.895089
    120          1           0      -10.660246    0.571942    1.215040
    121          1           0       -9.119071   -0.421602    1.104021
    122          1           0       -8.523333    0.976287    3.261032
    123          1           0       -9.739057    2.023588    2.692126
    124          1           0       -8.221121    1.620980    0.466531
    125          1           0       -6.413614    0.910051    2.597937
    126          1           0       -5.932851    2.380252    2.124873
    127          1           0       -5.949640    1.179606    0.879415
    128          1           0       -7.278907    3.875651    1.044136
    129          1           0       -8.161243    3.697028    2.469890
    130          1           0      -10.095729    4.264769    1.506555
    131          1           0       -9.925447    3.041716    0.244464
    132          1           0       -8.322083    5.162509   -0.719212
    133          1           0       -9.520570    5.947817    0.467589
    134          1           0      -10.410575    4.353949   -1.885961
    135          1           0       -8.816091    6.796130   -2.337717
    136          1           0      -10.290850    7.053410   -2.862769
    137          1           0       -9.575820    5.696245   -3.541191
    138          1           0      -11.426169    6.955576   -0.756927
    139          1           0      -11.816630    5.466410   -0.015867
    140          1           0      -12.410444    5.903372   -1.695289
 ---------------------------------------------------------------------

 SCF Done:  E(RCAM-B3LYP) =  -3007.13264706     A.U. after   18 cycles

 Excitation energies and oscillator strengths:

 Excited State   1:      Singlet-A      1.7017 eV  728.58 nm  f=0.3631  <S**2>=0.000
     245 -> 248        0.18347
     246 -> 247        0.68380
     245 <- 248        0.10927
 This state for optimization and/or second-order correction.
 Total Energy, E(TD-HF/TD-DFT) =  -3007.07010973
 Copying the excited state density for this state as the 1-particle RhoCI density.

 Excited State   2:      Singlet-A      2.1926 eV  565.47 nm  f=0.1406  <S**2>=0.000
     245 -> 247        0.64452
     246 -> 248       -0.27547

 Excited State   3:      Singlet-A      3.3209 eV  373.35 nm  f=0.0033  <S**2>=0.000
     244 -> 247        0.66347
     246 -> 248       -0.17974

 Excited State   4:      Singlet-A      3.4927 eV  354.98 nm  f=0.1931  <S**2>=0.000
     242 -> 247        0.51041
     245 -> 247        0.14055
     246 -> 248        0.40532
     246 -> 249        0.10697
     246 -> 250        0.13173

 Excited State   5:      Singlet-A      3.5902 eV  345.34 nm  f=0.2827  <S**2>=0.000
     241 -> 247       -0.10454
     242 -> 247        0.41190
     244 -> 247       -0.10702
     245 -> 247       -0.16724
     246 -> 248       -0.30622
     246 -> 249       -0.26715
     246 -> 250       -0.31425

 The electronic state is 1-A.
 Alpha  occ. eigenvalues --  -46.91393 -19.26029 -19.25178 -19.19786 -19.19519
 Alpha  occ. eigenvalues --  -19.19360 -19.18583 -14.42809 -14.41535 -14.40473
 Alpha  occ. eigenvalues --  -14.39177 -10.39666 -10.38498 -10.35981 -10.35488
 Alpha  occ. eigenvalues --  -10.32439 -10.31791 -10.31679 -10.31432 -10.31421
 Alpha  occ. eigenvalues --  -10.30686 -10.30622 -10.30006 -10.29471 -10.28826
 Alpha  occ. eigenvalues --  -10.28642 -10.28332 -10.28316 -10.28271 -10.28175
 Alpha  occ. eigenvalues --  -10.28141 -10.28082 -10.27667 -10.27596 -10.27568
 Alpha  occ. eigenvalues --  -10.27521 -10.27360 -10.26981 -10.26942 -10.26639
 Alpha  occ. eigenvalues --  -10.26442 -10.26284 -10.26236 -10.26190 -10.26176
 Alpha  occ. eigenvalues --  -10.26149 -10.25868 -10.25813 -10.25733 -10.25537
 Alpha  occ. eigenvalues --  -10.25520 -10.25261 -10.25238 -10.25165 -10.25111
 Alpha  occ. eigenvalues --  -10.25095 -10.25060 -10.24849 -10.24816 -10.24711
 Alpha  occ. eigenvalues --  -10.24686 -10.24614 -10.24231 -10.24181 -10.24172
 Alpha  occ. eigenvalues --  -10.24127  -3.19594  -1.94456  -1.94078  -1.93872
 Alpha  occ. eigenvalues --   -1.15908  -1.15512  -1.10839  -1.10830  -1.05986
 Alpha  occ. eigenvalues --   -1.05738  -1.05047  -1.04100  -1.04041  -1.03064
 Alpha  occ. eigenvalues --   -0.92021  -0.91368  -0.90860  -0.89794  -0.89359
 Alpha  occ. eigenvalues --   -0.89070  -0.88613  -0.88535  -0.87428  -0.86725
 Alpha  occ. eigenvalues --   -0.86306  -0.85978  -0.84901  -0.84219  -0.83899
 Alpha  occ. eigenvalues --   -0.82666  -0.82057  -0.81532  -0.81022  -0.80868
 Alpha  occ. eigenvalues --   -0.80562  -0.78546  -0.77535  -0.77289  -0.76608
 Alpha  occ. eigenvalues --   -0.76373  -0.75890  -0.75650  -0.75288  -0.74776
 Alpha  occ. eigenvalues --   -0.73340  -0.72782  -0.71440  -0.70618  -0.69068
 Alpha  occ. eigenvalues --   -0.68789  -0.68740  -0.67750  -0.67004  -0.65792
 Alpha  occ. eigenvalues --   -0.65521  -0.65269  -0.65182  -0.64606  -0.64557
 Alpha  occ. eigenvalues --   -0.64026  -0.63119  -0.62937  -0.62249  -0.60125
 Alpha  occ. eigenvalues --   -0.59846  -0.59590  -0.59380  -0.58499  -0.58251
 Alpha  occ. eigenvalues --   -0.57876  -0.57555  -0.56504  -0.56291  -0.55737
 Alpha  occ. eigenvalues --   -0.55389  -0.55046  -0.54966  -0.54646  -0.54435
 Alpha  occ. eigenvalues --   -0.54385  -0.53710  -0.53002  -0.52862  -0.52681
 Alpha  occ. eigenvalues --   -0.52494  -0.52225  -0.52038  -0.51893  -0.51570
 Alpha  occ. eigenvalues --   -0.51480  -0.51440  -0.51304  -0.51061  -0.50983
 Alpha  occ. eigenvalues --   -0.50458  -0.50263  -0.50209  -0.49942  -0.49755
 Alpha  occ. eigenvalues --   -0.49606  -0.49530  -0.49313  -0.49163  -0.48833
 Alpha  occ. eigenvalues --   -0.48792  -0.48650  -0.48414  -0.48026  -0.47633
 Alpha  occ. eigenvalues --   -0.47501  -0.47283  -0.47061  -0.47024  -0.46737
 Alpha  occ. eigenvalues --   -0.46553  -0.46227  -0.46170  -0.45778  -0.45691
 Alpha  occ. eigenvalues --   -0.45599  -0.45524  -0.45355  -0.45119  -0.45081
 Alpha  occ. eigenvalues --   -0.44835  -0.44681  -0.44289  -0.44024  -0.43864
 Alpha  occ. eigenvalues --   -0.43790  -0.43532  -0.43459  -0.43110  -0.42971
 Alpha  occ. eigenvalues --   -0.42721  -0.42442  -0.42297  -0.42050  -0.41990
 Alpha  occ. eigenvalues --   -0.41915  -0.41887  -0.41748  -0.41332  -0.41253
 Alpha  occ. eigenvalues --   -0.41002  -0.40744  -0.40557  -0.40482  -0.40102
 Alpha  occ. eigenvalues --   -0.40093  -0.39574  -0.39377  -0.39214  -0.38941
 Alpha  occ. eigenvalues --   -0.38532  -0.38415  -0.38351  -0.38043  -0.37265
 Alpha  occ. eigenvalues --   -0.37192  -0.36761  -0.36636  -0.36612  -0.36390
 Alpha  occ. eigenvalues --   -0.36120  -0.36083  -0.35311  -0.35118  -0.34238
 Alpha  occ. eigenvalues --   -0.34055  -0.33409  -0.33078  -0.31514  -0.31264
 Alpha  occ. eigenvalues --   -0.31125  -0.30585  -0.30512  -0.29702  -0.24122
 Alpha  occ. eigenvalues --   -0.21496
 Alpha virt. eigenvalues --   -0.09046  -0.01949   0.00136   0.00593   0.02230
 Alpha virt. eigenvalues --    0.03685   0.04083   0.04572   0.05641   0.06840
 Alpha virt. eigenvalues --    0.07719   0.07874   0.08458   0.08855   0.09325

 Mulliken charges:
               1
     1  Mg   0.838382
     2  C   -0.034528
     3  C   -0.067751
     4  C   -0.066406
     5  C   -0.041494
     6  N   -0.242242
     7  C   -0.077380
     8  C   -0.024929
     9  C   -0.078247
    10  C    0.002517
    11  C    0.064431
    12  C    0.069348
    13  C    0.079165
    14  C    0.166617
    15  O   -0.283080
    16  O   -0.315500
    17  N   -0.409754
    18  C    0.189655
    19  C   -0.182966
    20  C   -0.035085
    21  C    0.133008
    22  C    0.143066
    23  C    0.015543
    24  O   -0.191236
    25  C    0.040128
    26  N   -0.249376
    27  C    0.010911
    28  C   -0.044839
    29  C   -0.084929
    30  C   -0.050106
    31  C    0.097290
    32  C    0.023646
    33  C    0.003989
    34  N   -0.277066
    35  C    0.137787
    36  C   -0.160573
    37  C   -0.014967
    38  C    0.113048
    39  C    0.123835
    40  C    0.062755
    41  O   -0.148476
    42  C    0.004209
    43  C    0.195447
    44  O   -0.260879
    45  O   -0.327969
    46  C    0.183526
    47  C    0.288275
    48  C   -0.141988
    49  C   -0.172561
    50  C    0.094494
    51  C    0.083877
    52  C   -0.009985
    53  C    0.019396
    54  C   -0.132408
    55  C    0.061705
    56  C    0.087473
    57  C    0.015306
    58  C    0.033385
    59  C   -0.127659
    60  C    0.070686
    61  C    0.041949
    62  C    0.016569
    63  C    0.040403
    64  C   -0.097766
    65  C    0.033430
    66  C    0.055205
    67  H   -0.019338
    68  H   -0.027730
    69  H   -0.037173
    70  H    0.029083
    71  H    0.008190
    72  H    0.025290
    73  H    0.029114
    74  H    0.020787
    75  H    0.016131
    76  H    0.030083
    77  H    0.034061
    78  H    0.020819
    79  H    0.041779
    80  H    0.004504
    81  H    0.034619
    82  H    0.020823
    83  H    0.039257
    84  H    0.046451
    85  H    0.008896
    86  H    0.015719
    87  H    0.021366
    88  H    0.022995
    89  H    0.003242
    90  H    0.018672
    91  H    0.007171
    92  H    0.018343
    93  H    0.015695
    94  H    0.017977
    95  H    0.015194
    96  H    0.036980
    97  H    0.037247
    98  H    0.031141
    99  H    0.046785
   100  H    0.038609
   101  H    0.025459
   102  H    0.021823
   103  H    0.020595
   104  H    0.001549
   105  H    0.030901
   106  H    0.027311
   107  H    0.028228
   108  H   -0.007052
   109  H    0.000434
   110  H   -0.008439
   111  H   -0.002221
   112  H   -0.014412
   113  H    0.007940
   114  H    0.002689
   115  H    0.015770
   116  H   -0.008104
   117  H   -0.001678
   118  H    0.004710
   119  H   -0.022312
   120  H    0.012668
   121  H    0.000288
   122  H   -0.022045
   123  H   -0.013884
   124  H   -0.018881
   125  H   -0.004165
   126  H   -0.011317
   127  H    0.019952
   128  H   -0.020706
   129  H   -0.018784
   130  H    0.000782
   131  H   -0.001380
   132  H    0.004587
   133  H   -0.002839
   134  H   -0.008669
   135  H   -0.001245
   136  H   -0.016313
   137  H    0.011336
   138  H   -0.006120
   139  H   -0.002482
   140  H    0.014933
 Sum of Mulliken charges =  -0.00000

 Dipole moment (field-independent basis, Debye):
    X=             -0.5420    Y=              2.1518    Z=              3.2759  Tot=              3.9567
 Quadrupole moment (field-independent basis, Debye-Ang):
   XX=           -362.3593   YY=           -436.0608   ZZ=           -405.2753
   XY=             28.1876   XZ=             13.5838   YZ=             10.7854

 Normal termination of Gaussian 16 at Fri Apr 29 14:53:46 2022.
