 Gaussian 16, Revision A.03,
 Gaussian 16:  ES64L-G16RevA.03 25-Dec-2016

 ---------------------------------
 #p PBE1PBE/Def2SVP td=(nstates=5)
 ---------------------------------

 -----------------------------------------------------
 step_351_chromophore_23 TDDFT with PBE1PBE functional
 -----------------------------------------------------
 Symbolic Z-matrix:
 Charge =  0 Multiplicity = 1

                         Standard orientation:
 ---------------------------------------------------------------------
 Center     Atomic      Atomic             Coordinates (Angstroms)
 Number     Number       Type             X           Y           Z
 ---------------------------------------------------------------------
      1         12           0        4.868256    0.824849   -0.548707
      2          6           0        3.339229   -2.536256   -0.583100
      3          6           0        2.187118    1.966895   -2.084485
      4          6           0        6.014625    3.966377    0.213780
      5          6           0        6.895270   -0.440624    2.053831
      6          7           0        2.989333   -0.288797   -1.183651
      7          6           0        2.586777   -1.560795   -1.205994
      8          6           0        1.382588   -1.836319   -2.055055
      9          6           0        1.080619   -0.411356   -2.646420
     10          6           0        2.184207    0.486637   -1.967804
     11          6           0        0.860967   -0.288794   -4.165355
     12          6           0        0.193445   -2.486885   -1.235478
     13          6           0       -0.333406   -3.830876   -1.793177
     14          6           0       -1.739978   -3.884866   -2.285364
     15          8           0       -2.136302   -3.593836   -3.456799
     16          8           0       -2.548787   -4.152870   -1.225760
     17          7           0        4.324380    2.703824   -1.074747
     18          6           0        3.136801    2.959140   -1.669016
     19          6           0        2.990288    4.367768   -1.823658
     20          6           0        4.122766    5.010457   -1.271575
     21          6           0        4.918585    3.904873   -0.737205
     22          6           0        1.761736    5.112272   -2.383340
     23          6           0        4.399828    6.536858   -1.140944
     24          8           0        3.691126    7.363174   -1.682281
     25          6           0        5.656015    7.095946   -0.465623
     26          7           0        6.079935    1.644574    1.171040
     27          6           0        6.470937    2.982992    1.112661
     28          6           0        7.562014    3.257436    2.160134
     29          6           0        7.975330    1.818095    2.587857
     30          6           0        6.839762    0.929704    1.974010
     31          6           0        8.744686    4.109550    1.712782
     32          6           0        8.075110    1.585809    4.142150
     33          6           0        9.440240    1.071794    4.648017
     34          7           0        5.227238   -1.117838    0.488206
     35          6           0        6.078549   -1.461990    1.500439
     36          6           0        6.122063   -2.880717    1.666877
     37          6           0        5.061773   -3.328487    0.853171
     38          6           0        4.523067   -2.205392    0.186166
     39          6           0        6.960761   -3.611158    2.632129
     40          6           0        4.394649   -4.552309    0.486676
     41          8           0        4.603160   -5.729221    0.671064
     42          6           0        3.156580   -4.092173   -0.430315
     43          6           0        3.294550   -4.808705   -1.645674
     44          8           0        4.223587   -4.661470   -2.471332
     45          8           0        2.461969   -5.885556   -1.654417
     46          6           0        2.746386   -6.957163   -2.643528
     47          6           0       -3.994330   -3.943838   -1.484813
     48          6           0       -4.881021   -4.251517   -0.307340
     49          6           0       -5.462898   -3.306745    0.432289
     50          6           0       -5.029871   -1.902795    0.586197
     51          6           0       -6.422834   -3.821448    1.480328
     52          6           0       -7.949045   -3.488943    1.302418
     53          6           0       -8.638545   -2.845425    2.499177
     54          6           0      -10.089646   -2.317962    2.101887
     55          6           0      -11.168925   -3.388973    2.387999
     56          6           0      -10.245822   -0.938797    2.748502
     57          6           0       -9.813608    0.129245    1.738614
     58          6           0       -9.025932    1.277422    2.342020
     59          6           0       -7.951092    1.959103    1.466427
     60          6           0       -6.524008    1.555440    1.726941
     61          6           0       -8.192275    3.412201    1.418355
     62          6           0       -9.463430    3.925425    0.685928
     63          6           0       -9.315253    5.170581   -0.268692
     64          6           0      -10.272121    5.339702   -1.441462
     65          6           0       -9.690780    6.190333   -2.576105
     66          6           0      -11.581371    5.901315   -0.987031
     67          1           0        1.317691    2.245689   -2.682860
     68          1           0        6.344107    4.940982    0.581824
     69          1           0        7.763394   -0.593841    2.699427
     70          1           0        1.649341   -2.446582   -2.917208
     71          1           0        0.122690   -0.047305   -2.275943
     72          1           0        0.163914    0.515784   -4.402763
     73          1           0        0.440694   -1.201949   -4.585176
     74          1           0        1.880198   -0.201125   -4.542537
     75          1           0       -0.663501   -1.826782   -1.370741
     76          1           0        0.477830   -2.565161   -0.185780
     77          1           0       -0.085611   -4.560957   -1.022980
     78          1           0        0.252237   -4.085890   -2.676609
     79          1           0        1.550758    5.981729   -1.761568
     80          1           0        0.900186    4.445666   -2.411396
     81          1           0        2.031696    5.404195   -3.398479
     82          1           0        5.840098    8.144929   -0.702064
     83          1           0        6.527886    6.586331   -0.876882
     84          1           0        5.602826    7.086108    0.623170
     85          1           0        7.179871    3.728876    3.065269
     86          1           0        8.860347    1.600538    1.989132
     87          1           0        8.565310    4.454646    0.694225
     88          1           0        9.630887    3.528990    1.969563
     89          1           0        8.681854    5.017392    2.313666
     90          1           0        7.269170    0.885051    4.360003
     91          1           0        7.869284    2.455699    4.766217
     92          1           0        9.275324    0.128877    5.170062
     93          1           0        9.813616    1.790190    5.377236
     94          1           0       10.150867    0.923096    3.835190
     95          1           0        7.932414   -3.126022    2.720872
     96          1           0        7.089977   -4.634630    2.280533
     97          1           0        6.463278   -3.591196    3.602508
     98          1           0        2.198286   -4.309607    0.040213
     99          1           0        3.574760   -7.637670   -2.447231
    100          1           0        2.861524   -6.588385   -3.663704
    101          1           0        1.877779   -7.615347   -2.657326
    102          1           0       -4.442983   -4.660988   -2.172489
    103          1           0       -4.341397   -2.971328   -1.833772
    104          1           0       -5.313806   -5.250141   -0.252360
    105          1           0       -3.983754   -1.796760    0.298585
    106          1           0       -5.226025   -1.487728    1.574183
    107          1           0       -5.623269   -1.356257   -0.147330
    108          1           0       -6.156324   -3.372887    2.437657
    109          1           0       -6.285896   -4.893373    1.629559
    110          1           0       -8.566970   -4.370270    1.130406
    111          1           0       -8.052165   -2.864701    0.413848
    112          1           0       -7.944805   -2.019698    2.656127
    113          1           0       -8.589276   -3.501822    3.368303
    114          1           0      -10.049749   -2.175023    1.021320
    115          1           0      -11.481192   -3.973593    1.522476
    116          1           0      -12.060229   -2.939166    2.824545
    117          1           0      -10.965478   -4.096723    3.190809
    118          1           0       -9.753695   -0.836356    3.716005
    119          1           0      -11.314552   -0.785843    2.895089
    120          1           0      -10.660246    0.571942    1.215040
    121          1           0       -9.119071   -0.421602    1.104021
    122          1           0       -8.523333    0.976287    3.261032
    123          1           0       -9.739057    2.023588    2.692126
    124          1           0       -8.221121    1.620980    0.466531
    125          1           0       -6.413614    0.910051    2.597937
    126          1           0       -5.932851    2.380252    2.124873
    127          1           0       -5.949640    1.179606    0.879415
    128          1           0       -7.278907    3.875651    1.044136
    129          1           0       -8.161243    3.697028    2.469890
    130          1           0      -10.095729    4.264769    1.506555
    131          1           0       -9.925447    3.041716    0.244464
    132          1           0       -8.322083    5.162509   -0.719212
    133          1           0       -9.520570    5.947817    0.467589
    134          1           0      -10.410575    4.353949   -1.885961
    135          1           0       -8.816091    6.796130   -2.337717
    136          1           0      -10.290850    7.053410   -2.862769
    137          1           0       -9.575820    5.696245   -3.541191
    138          1           0      -11.426169    6.955576   -0.756927
    139          1           0      -11.816630    5.466410   -0.015867
    140          1           0      -12.410444    5.903372   -1.695289
 ---------------------------------------------------------------------

 SCF Done:  E(RPBE1PBE) =  -3005.32386222     A.U. after   15 cycles

 Excitation energies and oscillator strengths:

 Excited State   1:      Singlet-A      1.8628 eV  665.59 nm  f=0.3465  <S**2>=0.000
     245 -> 248       -0.17851
     246 -> 247        0.69081
     246 <- 247       -0.10707
 This state for optimization and/or second-order correction.
 Total Energy, E(TD-HF/TD-DFT) =  -3005.25540638
 Copying the excited state density for this state as the 1-particle RhoCI density.

 Excited State   2:      Singlet-A      2.2096 eV  561.12 nm  f=0.1355  <S**2>=0.000
     245 -> 247        0.65450
     246 -> 248        0.25236

 Excited State   3:      Singlet-A      2.9989 eV  413.43 nm  f=0.0022  <S**2>=0.000
     240 -> 247        0.14316
     241 -> 247        0.13455
     244 -> 247        0.65895
     246 -> 248        0.11902

 Excited State   4:      Singlet-A      3.1049 eV  399.32 nm  f=0.0001  <S**2>=0.000
     240 -> 247        0.30199
     241 -> 247        0.57493
     241 -> 249       -0.10325
     244 -> 247       -0.20029

 Excited State   5:      Singlet-A      3.1442 eV  394.32 nm  f=0.0001  <S**2>=0.000
     241 -> 247       -0.11191
     242 -> 247        0.66041
     242 -> 249        0.16205
     242 -> 251       -0.10272

 The electronic state is 1-A.
 Alpha  occ. eigenvalues --  -46.94778 -19.26691 -19.25769 -19.20112 -19.19790
 Alpha  occ. eigenvalues --  -19.19536 -19.18777 -14.42250 -14.41070 -14.40079
 Alpha  occ. eigenvalues --  -14.38876 -10.36704 -10.35427 -10.33129 -10.32662
 Alpha  occ. eigenvalues --  -10.30156 -10.29285 -10.29166 -10.29106 -10.28625
 Alpha  occ. eigenvalues --  -10.28422 -10.28224 -10.27788 -10.27285 -10.26595
 Alpha  occ. eigenvalues --  -10.26265 -10.26142 -10.26080 -10.25939 -10.25930
 Alpha  occ. eigenvalues --  -10.25805 -10.25720 -10.25568 -10.25331 -10.25285
 Alpha  occ. eigenvalues --  -10.25213 -10.25170 -10.24579 -10.24469 -10.24319
 Alpha  occ. eigenvalues --  -10.23997 -10.23909 -10.23743 -10.23635 -10.23633
 Alpha  occ. eigenvalues --  -10.23600 -10.23339 -10.23201 -10.23191 -10.23141
 Alpha  occ. eigenvalues --  -10.23099 -10.22933 -10.22814 -10.22785 -10.22700
 Alpha  occ. eigenvalues --  -10.22667 -10.22605 -10.22505 -10.22339 -10.22174
 Alpha  occ. eigenvalues --  -10.22098 -10.22083 -10.21767 -10.21732 -10.21523
 Alpha  occ. eigenvalues --  -10.21523  -3.16569  -1.89366  -1.88970  -1.88766
 Alpha  occ. eigenvalues --   -1.10715  -1.10223  -1.05626  -1.05561  -1.00826
 Alpha  occ. eigenvalues --   -1.00474  -0.99691  -0.98768  -0.98711  -0.97743
 Alpha  occ. eigenvalues --   -0.86364  -0.85510  -0.84973  -0.84004  -0.83469
 Alpha  occ. eigenvalues --   -0.83380  -0.82919  -0.82653  -0.81770  -0.81070
 Alpha  occ. eigenvalues --   -0.80587  -0.80220  -0.79084  -0.78513  -0.78172
 Alpha  occ. eigenvalues --   -0.76860  -0.76298  -0.75686  -0.75237  -0.75216
 Alpha  occ. eigenvalues --   -0.74720  -0.72839  -0.71865  -0.71564  -0.70786
 Alpha  occ. eigenvalues --   -0.70652  -0.70014  -0.69753  -0.69667  -0.68953
 Alpha  occ. eigenvalues --   -0.67754  -0.67182  -0.65909  -0.64905  -0.63598
 Alpha  occ. eigenvalues --   -0.63128  -0.62989  -0.62175  -0.61233  -0.60223
 Alpha  occ. eigenvalues --   -0.59950  -0.59743  -0.59520  -0.59124  -0.58736
 Alpha  occ. eigenvalues --   -0.58447  -0.57277  -0.57129  -0.56823  -0.54658
 Alpha  occ. eigenvalues --   -0.54371  -0.54004  -0.53919  -0.53155  -0.52758
 Alpha  occ. eigenvalues --   -0.52362  -0.51974  -0.51011  -0.50733  -0.50309
 Alpha  occ. eigenvalues --   -0.49913  -0.49559  -0.49454  -0.49104  -0.48989
 Alpha  occ. eigenvalues --   -0.48852  -0.48241  -0.47550  -0.47455  -0.47179
 Alpha  occ. eigenvalues --   -0.46958  -0.46701  -0.46565  -0.46427  -0.46110
 Alpha  occ. eigenvalues --   -0.46075  -0.45965  -0.45812  -0.45604  -0.45552
 Alpha  occ. eigenvalues --   -0.45111  -0.44850  -0.44699  -0.44547  -0.44343
 Alpha  occ. eigenvalues --   -0.44213  -0.44123  -0.43964  -0.43765  -0.43490
 Alpha  occ. eigenvalues --   -0.43369  -0.43267  -0.43005  -0.42726  -0.42276
 Alpha  occ. eigenvalues --   -0.42155  -0.41896  -0.41694  -0.41665  -0.41409
 Alpha  occ. eigenvalues --   -0.41242  -0.40929  -0.40899  -0.40577  -0.40454
 Alpha  occ. eigenvalues --   -0.40265  -0.40167  -0.40019  -0.39885  -0.39764
 Alpha  occ. eigenvalues --   -0.39604  -0.39402  -0.39031  -0.38730  -0.38675
 Alpha  occ. eigenvalues --   -0.38529  -0.38344  -0.38258  -0.37884  -0.37759
 Alpha  occ. eigenvalues --   -0.37501  -0.37191  -0.37081  -0.36827  -0.36792
 Alpha  occ. eigenvalues --   -0.36772  -0.36620  -0.36573  -0.36203  -0.35998
 Alpha  occ. eigenvalues --   -0.35757  -0.35659  -0.35419  -0.35332  -0.35039
 Alpha  occ. eigenvalues --   -0.34872  -0.34398  -0.34305  -0.33978  -0.33731
 Alpha  occ. eigenvalues --   -0.33416  -0.33319  -0.33144  -0.33050  -0.32075
 Alpha  occ. eigenvalues --   -0.31996  -0.31858  -0.31593  -0.31439  -0.31431
 Alpha  occ. eigenvalues --   -0.31017  -0.30904  -0.30189  -0.30027  -0.29386
 Alpha  occ. eigenvalues --   -0.28892  -0.28797  -0.27994  -0.27162  -0.26140
 Alpha  occ. eigenvalues --   -0.26089  -0.26009  -0.25844  -0.25413  -0.21096
 Alpha  occ. eigenvalues --   -0.19124
 Alpha virt. eigenvalues --   -0.11486  -0.05437  -0.04009  -0.02305  -0.02206
 Alpha virt. eigenvalues --   -0.00927  -0.00249   0.00046   0.01266   0.02628
 Alpha virt. eigenvalues --    0.04229   0.04477   0.04612   0.05402   0.05966

 Mulliken charges:
               1
     1  Mg   0.971590
     2  C   -0.028588
     3  C   -0.055044
     4  C   -0.073605
     5  C   -0.041967
     6  N   -0.349525
     7  C   -0.009316
     8  C   -0.091620
     9  C   -0.148080
    10  C    0.041667
    11  C    0.002558
    12  C    0.018479
    13  C    0.004783
    14  C    0.228372
    15  O   -0.314405
    16  O   -0.343411
    17  N   -0.528289
    18  C    0.203890
    19  C   -0.210761
    20  C   -0.079603
    21  C    0.166318
    22  C    0.084543
    23  C    0.065633
    24  O   -0.225458
    25  C   -0.037223
    26  N   -0.352093
    27  C    0.052588
    28  C   -0.117050
    29  C   -0.171513
    30  C    0.001855
    31  C    0.036371
    32  C   -0.032838
    33  C   -0.068505
    34  N   -0.397573
    35  C    0.157392
    36  C   -0.167357
    37  C   -0.069502
    38  C    0.167332
    39  C    0.070079
    40  C    0.153930
    41  O   -0.194281
    42  C   -0.109023
    43  C    0.291203
    44  O   -0.295596
    45  O   -0.361238
    46  C    0.128385
    47  C    0.238936
    48  C   -0.147749
    49  C   -0.209897
    50  C    0.027314
    51  C    0.016635
    52  C   -0.066852
    53  C   -0.038524
    54  C   -0.224614
    55  C    0.006364
    56  C    0.034081
    57  C   -0.056983
    58  C   -0.012000
    59  C   -0.219903
    60  C    0.012650
    61  C   -0.010437
    62  C   -0.046954
    63  C   -0.018874
    64  C   -0.192906
    65  C   -0.022081
    66  C   -0.009775
    67  H    0.012701
    68  H    0.007489
    69  H   -0.001146
    70  H    0.066849
    71  H    0.045941
    72  H    0.051253
    73  H    0.056802
    74  H    0.049712
    75  H    0.050223
    76  H    0.061389
    77  H    0.066585
    78  H    0.053518
    79  H    0.068385
    80  H    0.031741
    81  H    0.062871
    82  H    0.049356
    83  H    0.065529
    84  H    0.072019
    85  H    0.046560
    86  H    0.052999
    87  H    0.049178
    88  H    0.050631
    89  H    0.031606
    90  H    0.051575
    91  H    0.038721
    92  H    0.045488
    93  H    0.043630
    94  H    0.044771
    95  H    0.042649
    96  H    0.064768
    97  H    0.065658
    98  H    0.069044
    99  H    0.067934
   100  H    0.059728
   101  H    0.047278
   102  H    0.049348
   103  H    0.047702
   104  H    0.030457
   105  H    0.059123
   106  H    0.054182
   107  H    0.055857
   108  H    0.026633
   109  H    0.032067
   110  H    0.026465
   111  H    0.030523
   112  H    0.021737
   113  H    0.039607
   114  H    0.040856
   115  H    0.042322
   116  H    0.019296
   117  H    0.025111
   118  H    0.035463
   119  H    0.012516
   120  H    0.044870
   121  H    0.036496
   122  H    0.010265
   123  H    0.020062
   124  H    0.021616
   125  H    0.021766
   126  H    0.016172
   127  H    0.047801
   128  H    0.012268
   129  H    0.015697
   130  H    0.032655
   131  H    0.030763
   132  H    0.036899
   133  H    0.030810
   134  H    0.029807
   135  H    0.025226
   136  H    0.010912
   137  H    0.038426
   138  H    0.022627
   139  H    0.027452
   140  H    0.042775
 Sum of Mulliken charges =  -0.00000

 Dipole moment (field-independent basis, Debye):
    X=             -0.4510    Y=              2.1164    Z=              3.4139  Tot=              4.0420
 Quadrupole moment (field-independent basis, Debye-Ang):
   XX=           -357.0072   YY=           -433.3962   ZZ=           -401.8379
   XY=             27.9151   XZ=             15.1510   YZ=             10.7484

 Normal termination of Gaussian 16 at Fri Apr 29 15:09:49 2022.
