 Gaussian 16, Revision A.03,
 Gaussian 16:  ES64L-G16RevA.03 25-Dec-2016

 --------------------------------
 #p wB97XD/Def2SVP td=(nstates=5)
 --------------------------------

 ----------------------------------------------------
 step_351_chromophore_23 TDDFT with wB97XD functional
 ----------------------------------------------------
 Symbolic Z-matrix:
 Charge =  0 Multiplicity = 1

                         Standard orientation:
 ---------------------------------------------------------------------
 Center     Atomic      Atomic             Coordinates (Angstroms)
 Number     Number       Type             X           Y           Z
 ---------------------------------------------------------------------
      1         12           0        4.868256    0.824849   -0.548707
      2          6           0        3.339229   -2.536256   -0.583100
      3          6           0        2.187118    1.966895   -2.084485
      4          6           0        6.014625    3.966377    0.213780
      5          6           0        6.895270   -0.440624    2.053831
      6          7           0        2.989333   -0.288797   -1.183651
      7          6           0        2.586777   -1.560795   -1.205994
      8          6           0        1.382588   -1.836319   -2.055055
      9          6           0        1.080619   -0.411356   -2.646420
     10          6           0        2.184207    0.486637   -1.967804
     11          6           0        0.860967   -0.288794   -4.165355
     12          6           0        0.193445   -2.486885   -1.235478
     13          6           0       -0.333406   -3.830876   -1.793177
     14          6           0       -1.739978   -3.884866   -2.285364
     15          8           0       -2.136302   -3.593836   -3.456799
     16          8           0       -2.548787   -4.152870   -1.225760
     17          7           0        4.324380    2.703824   -1.074747
     18          6           0        3.136801    2.959140   -1.669016
     19          6           0        2.990288    4.367768   -1.823658
     20          6           0        4.122766    5.010457   -1.271575
     21          6           0        4.918585    3.904873   -0.737205
     22          6           0        1.761736    5.112272   -2.383340
     23          6           0        4.399828    6.536858   -1.140944
     24          8           0        3.691126    7.363174   -1.682281
     25          6           0        5.656015    7.095946   -0.465623
     26          7           0        6.079935    1.644574    1.171040
     27          6           0        6.470937    2.982992    1.112661
     28          6           0        7.562014    3.257436    2.160134
     29          6           0        7.975330    1.818095    2.587857
     30          6           0        6.839762    0.929704    1.974010
     31          6           0        8.744686    4.109550    1.712782
     32          6           0        8.075110    1.585809    4.142150
     33          6           0        9.440240    1.071794    4.648017
     34          7           0        5.227238   -1.117838    0.488206
     35          6           0        6.078549   -1.461990    1.500439
     36          6           0        6.122063   -2.880717    1.666877
     37          6           0        5.061773   -3.328487    0.853171
     38          6           0        4.523067   -2.205392    0.186166
     39          6           0        6.960761   -3.611158    2.632129
     40          6           0        4.394649   -4.552309    0.486676
     41          8           0        4.603160   -5.729221    0.671064
     42          6           0        3.156580   -4.092173   -0.430315
     43          6           0        3.294550   -4.808705   -1.645674
     44          8           0        4.223587   -4.661470   -2.471332
     45          8           0        2.461969   -5.885556   -1.654417
     46          6           0        2.746386   -6.957163   -2.643528
     47          6           0       -3.994330   -3.943838   -1.484813
     48          6           0       -4.881021   -4.251517   -0.307340
     49          6           0       -5.462898   -3.306745    0.432289
     50          6           0       -5.029871   -1.902795    0.586197
     51          6           0       -6.422834   -3.821448    1.480328
     52          6           0       -7.949045   -3.488943    1.302418
     53          6           0       -8.638545   -2.845425    2.499177
     54          6           0      -10.089646   -2.317962    2.101887
     55          6           0      -11.168925   -3.388973    2.387999
     56          6           0      -10.245822   -0.938797    2.748502
     57          6           0       -9.813608    0.129245    1.738614
     58          6           0       -9.025932    1.277422    2.342020
     59          6           0       -7.951092    1.959103    1.466427
     60          6           0       -6.524008    1.555440    1.726941
     61          6           0       -8.192275    3.412201    1.418355
     62          6           0       -9.463430    3.925425    0.685928
     63          6           0       -9.315253    5.170581   -0.268692
     64          6           0      -10.272121    5.339702   -1.441462
     65          6           0       -9.690780    6.190333   -2.576105
     66          6           0      -11.581371    5.901315   -0.987031
     67          1           0        1.317691    2.245689   -2.682860
     68          1           0        6.344107    4.940982    0.581824
     69          1           0        7.763394   -0.593841    2.699427
     70          1           0        1.649341   -2.446582   -2.917208
     71          1           0        0.122690   -0.047305   -2.275943
     72          1           0        0.163914    0.515784   -4.402763
     73          1           0        0.440694   -1.201949   -4.585176
     74          1           0        1.880198   -0.201125   -4.542537
     75          1           0       -0.663501   -1.826782   -1.370741
     76          1           0        0.477830   -2.565161   -0.185780
     77          1           0       -0.085611   -4.560957   -1.022980
     78          1           0        0.252237   -4.085890   -2.676609
     79          1           0        1.550758    5.981729   -1.761568
     80          1           0        0.900186    4.445666   -2.411396
     81          1           0        2.031696    5.404195   -3.398479
     82          1           0        5.840098    8.144929   -0.702064
     83          1           0        6.527886    6.586331   -0.876882
     84          1           0        5.602826    7.086108    0.623170
     85          1           0        7.179871    3.728876    3.065269
     86          1           0        8.860347    1.600538    1.989132
     87          1           0        8.565310    4.454646    0.694225
     88          1           0        9.630887    3.528990    1.969563
     89          1           0        8.681854    5.017392    2.313666
     90          1           0        7.269170    0.885051    4.360003
     91          1           0        7.869284    2.455699    4.766217
     92          1           0        9.275324    0.128877    5.170062
     93          1           0        9.813616    1.790190    5.377236
     94          1           0       10.150867    0.923096    3.835190
     95          1           0        7.932414   -3.126022    2.720872
     96          1           0        7.089977   -4.634630    2.280533
     97          1           0        6.463278   -3.591196    3.602508
     98          1           0        2.198286   -4.309607    0.040213
     99          1           0        3.574760   -7.637670   -2.447231
    100          1           0        2.861524   -6.588385   -3.663704
    101          1           0        1.877779   -7.615347   -2.657326
    102          1           0       -4.442983   -4.660988   -2.172489
    103          1           0       -4.341397   -2.971328   -1.833772
    104          1           0       -5.313806   -5.250141   -0.252360
    105          1           0       -3.983754   -1.796760    0.298585
    106          1           0       -5.226025   -1.487728    1.574183
    107          1           0       -5.623269   -1.356257   -0.147330
    108          1           0       -6.156324   -3.372887    2.437657
    109          1           0       -6.285896   -4.893373    1.629559
    110          1           0       -8.566970   -4.370270    1.130406
    111          1           0       -8.052165   -2.864701    0.413848
    112          1           0       -7.944805   -2.019698    2.656127
    113          1           0       -8.589276   -3.501822    3.368303
    114          1           0      -10.049749   -2.175023    1.021320
    115          1           0      -11.481192   -3.973593    1.522476
    116          1           0      -12.060229   -2.939166    2.824545
    117          1           0      -10.965478   -4.096723    3.190809
    118          1           0       -9.753695   -0.836356    3.716005
    119          1           0      -11.314552   -0.785843    2.895089
    120          1           0      -10.660246    0.571942    1.215040
    121          1           0       -9.119071   -0.421602    1.104021
    122          1           0       -8.523333    0.976287    3.261032
    123          1           0       -9.739057    2.023588    2.692126
    124          1           0       -8.221121    1.620980    0.466531
    125          1           0       -6.413614    0.910051    2.597937
    126          1           0       -5.932851    2.380252    2.124873
    127          1           0       -5.949640    1.179606    0.879415
    128          1           0       -7.278907    3.875651    1.044136
    129          1           0       -8.161243    3.697028    2.469890
    130          1           0      -10.095729    4.264769    1.506555
    131          1           0       -9.925447    3.041716    0.244464
    132          1           0       -8.322083    5.162509   -0.719212
    133          1           0       -9.520570    5.947817    0.467589
    134          1           0      -10.410575    4.353949   -1.885961
    135          1           0       -8.816091    6.796130   -2.337717
    136          1           0      -10.290850    7.053410   -2.862769
    137          1           0       -9.575820    5.696245   -3.541191
    138          1           0      -11.426169    6.955576   -0.756927
    139          1           0      -11.816630    5.466410   -0.015867
    140          1           0      -12.410444    5.903372   -1.695289
 ---------------------------------------------------------------------

 SCF Done:  E(RwB97XD) =  -3007.83126831     A.U. after   17 cycles

 Excitation energies and oscillator strengths:

 Excited State   1:      Singlet-A      1.6426 eV  754.82 nm  f=0.3628  <S**2>=0.000
     245 -> 248       -0.18969
     246 -> 247        0.68180
     245 <- 248       -0.11940
 This state for optimization and/or second-order correction.
 Total Energy, E(TD-HF/TD-DFT) =  -3007.77090517
 Copying the excited state density for this state as the 1-particle RhoCI density.

 Excited State   2:      Singlet-A      2.1372 eV  580.13 nm  f=0.1374  <S**2>=0.000
     245 -> 247        0.64282
     246 -> 248        0.27820

 Excited State   3:      Singlet-A      3.3399 eV  371.22 nm  f=0.0048  <S**2>=0.000
     244 -> 247        0.65434
     246 -> 248        0.18929

 Excited State   4:      Singlet-A      3.5196 eV  352.26 nm  f=0.1785  <S**2>=0.000
     242 -> 247        0.55601
     245 -> 247        0.12869
     246 -> 248       -0.38158

 Excited State   5:      Singlet-A      3.6643 eV  338.35 nm  f=0.6810  <S**2>=0.000
     241 -> 247       -0.22542
     241 -> 249        0.12564
     242 -> 247        0.35063
     244 -> 247       -0.11880
     245 -> 247       -0.24871
     246 -> 248        0.45288

 The electronic state is 1-A.
 Alpha  occ. eigenvalues --  -46.97714 -19.31281 -19.30384 -19.24785 -19.24556
 Alpha  occ. eigenvalues --  -19.24378 -19.23539 -14.47394 -14.46096 -14.45068
 Alpha  occ. eigenvalues --  -14.43746 -10.43514 -10.42323 -10.39970 -10.39498
 Alpha  occ. eigenvalues --  -10.36517 -10.35769 -10.35706 -10.35476 -10.35175
 Alpha  occ. eigenvalues --  -10.34683 -10.34667 -10.33972 -10.33467 -10.32808
 Alpha  occ. eigenvalues --  -10.32775 -10.32491 -10.32466 -10.32331 -10.32211
 Alpha  occ. eigenvalues --  -10.32190 -10.32068 -10.31723 -10.31713 -10.31655
 Alpha  occ. eigenvalues --  -10.31595 -10.31382 -10.30928 -10.30907 -10.30585
 Alpha  occ. eigenvalues --  -10.30326 -10.30284 -10.30183 -10.30060 -10.30046
 Alpha  occ. eigenvalues --  -10.30024 -10.29745 -10.29714 -10.29551 -10.29479
 Alpha  occ. eigenvalues --  -10.29443 -10.29189 -10.29171 -10.29150 -10.29085
 Alpha  occ. eigenvalues --  -10.29031 -10.28984 -10.28795 -10.28723 -10.28541
 Alpha  occ. eigenvalues --  -10.28533 -10.28517 -10.28142 -10.28105 -10.27978
 Alpha  occ. eigenvalues --  -10.27941  -3.23428  -1.96964  -1.96568  -1.96358
 Alpha  occ. eigenvalues --   -1.18122  -1.17678  -1.13064  -1.13062  -1.08204
 Alpha  occ. eigenvalues --   -1.07914  -1.07055  -1.06154  -1.06055  -1.05082
 Alpha  occ. eigenvalues --   -0.93979  -0.93178  -0.92627  -0.91640  -0.91131
 Alpha  occ. eigenvalues --   -0.90939  -0.90519  -0.90307  -0.89350  -0.88655
 Alpha  occ. eigenvalues --   -0.88293  -0.87872  -0.86744  -0.86140  -0.85784
 Alpha  occ. eigenvalues --   -0.84518  -0.83955  -0.83387  -0.82929  -0.82838
 Alpha  occ. eigenvalues --   -0.82392  -0.80455  -0.79481  -0.79213  -0.78459
 Alpha  occ. eigenvalues --   -0.78288  -0.77689  -0.77440  -0.77242  -0.76611
 Alpha  occ. eigenvalues --   -0.75307  -0.74746  -0.73427  -0.72533  -0.71075
 Alpha  occ. eigenvalues --   -0.70697  -0.70612  -0.69762  -0.68870  -0.67734
 Alpha  occ. eigenvalues --   -0.67461  -0.67172  -0.67124  -0.66565  -0.66407
 Alpha  occ. eigenvalues --   -0.65981  -0.64928  -0.64764  -0.64239  -0.62122
 Alpha  occ. eigenvalues --   -0.61796  -0.61487  -0.61394  -0.60478  -0.60211
 Alpha  occ. eigenvalues --   -0.59868  -0.59464  -0.58435  -0.58221  -0.57680
 Alpha  occ. eigenvalues --   -0.57306  -0.56965  -0.56890  -0.56527  -0.56369
 Alpha  occ. eigenvalues --   -0.56297  -0.55626  -0.54885  -0.54805  -0.54589
 Alpha  occ. eigenvalues --   -0.54442  -0.54137  -0.53956  -0.53828  -0.53507
 Alpha  occ. eigenvalues --   -0.53383  -0.53325  -0.53169  -0.52942  -0.52886
 Alpha  occ. eigenvalues --   -0.52389  -0.52190  -0.52161  -0.51863  -0.51688
 Alpha  occ. eigenvalues --   -0.51547  -0.51458  -0.51249  -0.51082  -0.50709
 Alpha  occ. eigenvalues --   -0.50683  -0.50553  -0.50310  -0.49946  -0.49512
 Alpha  occ. eigenvalues --   -0.49407  -0.49147  -0.49025  -0.48969  -0.48690
 Alpha  occ. eigenvalues --   -0.48474  -0.48119  -0.48094  -0.47698  -0.47620
 Alpha  occ. eigenvalues --   -0.47452  -0.47421  -0.47240  -0.47074  -0.46999
 Alpha  occ. eigenvalues --   -0.46762  -0.46595  -0.46203  -0.45892  -0.45773
 Alpha  occ. eigenvalues --   -0.45702  -0.45437  -0.45398  -0.45098  -0.44944
 Alpha  occ. eigenvalues --   -0.44641  -0.44318  -0.44214  -0.43922  -0.43901
 Alpha  occ. eigenvalues --   -0.43823  -0.43755  -0.43628  -0.43277  -0.43118
 Alpha  occ. eigenvalues --   -0.42868  -0.42667  -0.42475  -0.42391  -0.41994
 Alpha  occ. eigenvalues --   -0.41952  -0.41433  -0.41292  -0.41050  -0.40765
 Alpha  occ. eigenvalues --   -0.40366  -0.40314  -0.40189  -0.39967  -0.39085
 Alpha  occ. eigenvalues --   -0.39049  -0.38933  -0.38662  -0.38441  -0.38327
 Alpha  occ. eigenvalues --   -0.38116  -0.37903  -0.37166  -0.36956  -0.36199
 Alpha  occ. eigenvalues --   -0.36002  -0.35440  -0.35213  -0.33732  -0.33219
 Alpha  occ. eigenvalues --   -0.33120  -0.32781  -0.32542  -0.31860  -0.26031
 Alpha  occ. eigenvalues --   -0.23305
 Alpha virt. eigenvalues --   -0.07403  -0.00019   0.02318   0.03819   0.04322
 Alpha virt. eigenvalues --    0.05890   0.06383   0.06729   0.08021   0.09337
 Alpha virt. eigenvalues --    0.10661   0.11159   0.11238   0.12144   0.12615

 Mulliken charges:
               1
     1  Mg   0.968374
     2  C   -0.038971
     3  C   -0.072699
     4  C   -0.081925
     5  C   -0.054740
     6  N   -0.312148
     7  C   -0.035576
     8  C   -0.070832
     9  C   -0.122589
    10  C    0.023724
    11  C    0.013354
    12  C    0.030381
    13  C    0.020828
    14  C    0.219843
    15  O   -0.311759
    16  O   -0.343284
    17  N   -0.497273
    18  C    0.200555
    19  C   -0.201836
    20  C   -0.075667
    21  C    0.161195
    22  C    0.097365
    23  C    0.061044
    24  O   -0.221074
    25  C   -0.023116
    26  N   -0.319319
    27  C    0.040111
    28  C   -0.094237
    29  C   -0.140121
    30  C   -0.012469
    31  C    0.049991
    32  C   -0.019944
    33  C   -0.052697
    34  N   -0.361444
    35  C    0.147881
    36  C   -0.166581
    37  C   -0.065520
    38  C    0.147717
    39  C    0.080732
    40  C    0.138162
    41  O   -0.185402
    42  C   -0.064875
    43  C    0.262393
    44  O   -0.289215
    45  O   -0.358457
    46  C    0.143394
    47  C    0.254706
    48  C   -0.157867
    49  C   -0.196263
    50  C    0.040872
    51  C    0.037108
    52  C   -0.051162
    53  C   -0.019821
    54  C   -0.188347
    55  C    0.015537
    56  C    0.045294
    57  C   -0.028430
    58  C   -0.002482
    59  C   -0.184389
    60  C    0.022848
    61  C    0.007329
    62  C   -0.030380
    63  C   -0.000300
    64  C   -0.163742
    65  C   -0.014719
    66  C    0.004333
    67  H    0.006119
    68  H   -0.007035
    69  H   -0.012513
    70  H    0.053645
    71  H    0.034405
    72  H    0.046959
    73  H    0.052442
    74  H    0.042459
    75  H    0.040205
    76  H    0.054689
    77  H    0.061095
    78  H    0.045342
    79  H    0.064404
    80  H    0.026378
    81  H    0.058913
    82  H    0.047979
    83  H    0.058789
    84  H    0.068296
    85  H    0.035830
    86  H    0.038996
    87  H    0.041292
    88  H    0.044423
    89  H    0.026301
    90  H    0.042216
    91  H    0.031565
    92  H    0.039946
    93  H    0.038233
    94  H    0.038228
    95  H    0.036664
    96  H    0.060853
    97  H    0.060463
    98  H    0.059854
    99  H    0.064663
   100  H    0.055864
   101  H    0.043788
   102  H    0.044804
   103  H    0.042129
   104  H    0.026867
   105  H    0.054297
   106  H    0.048017
   107  H    0.048689
   108  H    0.016465
   109  H    0.026093
   110  H    0.017002
   111  H    0.019428
   112  H    0.003618
   113  H    0.032596
   114  H    0.026369
   115  H    0.037710
   116  H    0.013028
   117  H    0.019088
   118  H    0.027617
   119  H    0.003862
   120  H    0.038010
   121  H    0.017038
   122  H   -0.001176
   123  H    0.010408
   124  H    0.006218
   125  H    0.015186
   126  H    0.010352
   127  H    0.042058
   128  H    0.002605
   129  H    0.004921
   130  H    0.023470
   131  H    0.018886
   132  H    0.027712
   133  H    0.021159
   134  H    0.019695
   135  H    0.019622
   136  H    0.004696
   137  H    0.034120
   138  H    0.014186
   139  H    0.019570
   140  H    0.038435
 Sum of Mulliken charges =  -0.00000

 Dipole moment (field-independent basis, Debye):
    X=             -0.5329    Y=              2.2323    Z=              3.2733  Tot=              3.9977
 Quadrupole moment (field-independent basis, Debye-Ang):
   XX=           -357.4702   YY=           -431.6584   ZZ=           -401.8331
   XY=             28.6839   XZ=             14.1568   YZ=             10.6454

 Normal termination of Gaussian 16 at Fri Apr 29 15:43:11 2022.
