 Gaussian 16, Revision A.03,
 Gaussian 16:  ES64L-G16RevA.03 25-Dec-2016

 --------------------
 #p ZINDO=(nstates=5)
 --------------------

 -----------------------------
 step_351_chromophore_23 ZINDO
 -----------------------------
 Symbolic Z-matrix:
 Charge =  0 Multiplicity = 1

                         Standard orientation:
 ---------------------------------------------------------------------
 Center     Atomic      Atomic             Coordinates (Angstroms)
 Number     Number       Type             X           Y           Z
 ---------------------------------------------------------------------
      1         12           0        4.868256    0.824849   -0.548707
      2          6           0        3.339229   -2.536256   -0.583100
      3          6           0        2.187118    1.966895   -2.084485
      4          6           0        6.014625    3.966377    0.213780
      5          6           0        6.895270   -0.440624    2.053831
      6          7           0        2.989333   -0.288797   -1.183651
      7          6           0        2.586777   -1.560795   -1.205994
      8          6           0        1.382588   -1.836319   -2.055055
      9          6           0        1.080619   -0.411356   -2.646420
     10          6           0        2.184207    0.486637   -1.967804
     11          6           0        0.860967   -0.288794   -4.165355
     12          6           0        0.193445   -2.486885   -1.235478
     13          6           0       -0.333406   -3.830876   -1.793177
     14          6           0       -1.739978   -3.884866   -2.285364
     15          8           0       -2.136302   -3.593836   -3.456799
     16          8           0       -2.548787   -4.152870   -1.225760
     17          7           0        4.324380    2.703824   -1.074747
     18          6           0        3.136801    2.959140   -1.669016
     19          6           0        2.990288    4.367768   -1.823658
     20          6           0        4.122766    5.010457   -1.271575
     21          6           0        4.918585    3.904873   -0.737205
     22          6           0        1.761736    5.112272   -2.383340
     23          6           0        4.399828    6.536858   -1.140944
     24          8           0        3.691126    7.363174   -1.682281
     25          6           0        5.656015    7.095946   -0.465623
     26          7           0        6.079935    1.644574    1.171040
     27          6           0        6.470937    2.982992    1.112661
     28          6           0        7.562014    3.257436    2.160134
     29          6           0        7.975330    1.818095    2.587857
     30          6           0        6.839762    0.929704    1.974010
     31          6           0        8.744686    4.109550    1.712782
     32          6           0        8.075110    1.585809    4.142150
     33          6           0        9.440240    1.071794    4.648017
     34          7           0        5.227238   -1.117838    0.488206
     35          6           0        6.078549   -1.461990    1.500439
     36          6           0        6.122063   -2.880717    1.666877
     37          6           0        5.061773   -3.328487    0.853171
     38          6           0        4.523067   -2.205392    0.186166
     39          6           0        6.960761   -3.611158    2.632129
     40          6           0        4.394649   -4.552309    0.486676
     41          8           0        4.603160   -5.729221    0.671064
     42          6           0        3.156580   -4.092173   -0.430315
     43          6           0        3.294550   -4.808705   -1.645674
     44          8           0        4.223587   -4.661470   -2.471332
     45          8           0        2.461969   -5.885556   -1.654417
     46          6           0        2.746386   -6.957163   -2.643528
     47          6           0       -3.994330   -3.943838   -1.484813
     48          6           0       -4.881021   -4.251517   -0.307340
     49          6           0       -5.462898   -3.306745    0.432289
     50          6           0       -5.029871   -1.902795    0.586197
     51          6           0       -6.422834   -3.821448    1.480328
     52          6           0       -7.949045   -3.488943    1.302418
     53          6           0       -8.638545   -2.845425    2.499177
     54          6           0      -10.089646   -2.317962    2.101887
     55          6           0      -11.168925   -3.388973    2.387999
     56          6           0      -10.245822   -0.938797    2.748502
     57          6           0       -9.813608    0.129245    1.738614
     58          6           0       -9.025932    1.277422    2.342020
     59          6           0       -7.951092    1.959103    1.466427
     60          6           0       -6.524008    1.555440    1.726941
     61          6           0       -8.192275    3.412201    1.418355
     62          6           0       -9.463430    3.925425    0.685928
     63          6           0       -9.315253    5.170581   -0.268692
     64          6           0      -10.272121    5.339702   -1.441462
     65          6           0       -9.690780    6.190333   -2.576105
     66          6           0      -11.581371    5.901315   -0.987031
     67          1           0        1.317691    2.245689   -2.682860
     68          1           0        6.344107    4.940982    0.581824
     69          1           0        7.763394   -0.593841    2.699427
     70          1           0        1.649341   -2.446582   -2.917208
     71          1           0        0.122690   -0.047305   -2.275943
     72          1           0        0.163914    0.515784   -4.402763
     73          1           0        0.440694   -1.201949   -4.585176
     74          1           0        1.880198   -0.201125   -4.542537
     75          1           0       -0.663501   -1.826782   -1.370741
     76          1           0        0.477830   -2.565161   -0.185780
     77          1           0       -0.085611   -4.560957   -1.022980
     78          1           0        0.252237   -4.085890   -2.676609
     79          1           0        1.550758    5.981729   -1.761568
     80          1           0        0.900186    4.445666   -2.411396
     81          1           0        2.031696    5.404195   -3.398479
     82          1           0        5.840098    8.144929   -0.702064
     83          1           0        6.527886    6.586331   -0.876882
     84          1           0        5.602826    7.086108    0.623170
     85          1           0        7.179871    3.728876    3.065269
     86          1           0        8.860347    1.600538    1.989132
     87          1           0        8.565310    4.454646    0.694225
     88          1           0        9.630887    3.528990    1.969563
     89          1           0        8.681854    5.017392    2.313666
     90          1           0        7.269170    0.885051    4.360003
     91          1           0        7.869284    2.455699    4.766217
     92          1           0        9.275324    0.128877    5.170062
     93          1           0        9.813616    1.790190    5.377236
     94          1           0       10.150867    0.923096    3.835190
     95          1           0        7.932414   -3.126022    2.720872
     96          1           0        7.089977   -4.634630    2.280533
     97          1           0        6.463278   -3.591196    3.602508
     98          1           0        2.198286   -4.309607    0.040213
     99          1           0        3.574760   -7.637670   -2.447231
    100          1           0        2.861524   -6.588385   -3.663704
    101          1           0        1.877779   -7.615347   -2.657326
    102          1           0       -4.442983   -4.660988   -2.172489
    103          1           0       -4.341397   -2.971328   -1.833772
    104          1           0       -5.313806   -5.250141   -0.252360
    105          1           0       -3.983754   -1.796760    0.298585
    106          1           0       -5.226025   -1.487728    1.574183
    107          1           0       -5.623269   -1.356257   -0.147330
    108          1           0       -6.156324   -3.372887    2.437657
    109          1           0       -6.285896   -4.893373    1.629559
    110          1           0       -8.566970   -4.370270    1.130406
    111          1           0       -8.052165   -2.864701    0.413848
    112          1           0       -7.944805   -2.019698    2.656127
    113          1           0       -8.589276   -3.501822    3.368303
    114          1           0      -10.049749   -2.175023    1.021320
    115          1           0      -11.481192   -3.973593    1.522476
    116          1           0      -12.060229   -2.939166    2.824545
    117          1           0      -10.965478   -4.096723    3.190809
    118          1           0       -9.753695   -0.836356    3.716005
    119          1           0      -11.314552   -0.785843    2.895089
    120          1           0      -10.660246    0.571942    1.215040
    121          1           0       -9.119071   -0.421602    1.104021
    122          1           0       -8.523333    0.976287    3.261032
    123          1           0       -9.739057    2.023588    2.692126
    124          1           0       -8.221121    1.620980    0.466531
    125          1           0       -6.413614    0.910051    2.597937
    126          1           0       -5.932851    2.380252    2.124873
    127          1           0       -5.949640    1.179606    0.879415
    128          1           0       -7.278907    3.875651    1.044136
    129          1           0       -8.161243    3.697028    2.469890
    130          1           0      -10.095729    4.264769    1.506555
    131          1           0       -9.925447    3.041716    0.244464
    132          1           0       -8.322083    5.162509   -0.719212
    133          1           0       -9.520570    5.947817    0.467589
    134          1           0      -10.410575    4.353949   -1.885961
    135          1           0       -8.816091    6.796130   -2.337717
    136          1           0      -10.290850    7.053410   -2.862769
    137          1           0       -9.575820    5.696245   -3.541191
    138          1           0      -11.426169    6.955576   -0.756927
    139          1           0      -11.816630    5.466410   -0.015867
    140          1           0      -12.410444    5.903372   -1.695289
 ---------------------------------------------------------------------

 SCF Done:  E(RZINDO/S) =  -474.372977408     A.U. after   20 cycles

 Excitation energies and oscillator strengths:

 Excited State   1:      Singlet-A      1.2354 eV 1003.57 nm  f=0.5766  <S**2>=0.000
     175 ->178         0.20093
     176 ->177         0.65961
 This state for optimization and/or second-order correction.
 Total Energy, E(CIS/TDA) =  -474.327576163
 Copying the excited state density for this state as the 1-particle RhoCI density.

 Excited State   2:      Singlet-A      1.8526 eV  669.26 nm  f=0.0623  <S**2>=0.000
     175 ->177         0.56215
     176 ->178        -0.40149

 Excited State   3:      Singlet-A      2.7785 eV  446.23 nm  f=0.0565  <S**2>=0.000
     176 ->178        -0.16017
     176 ->179        -0.20267
     176 ->180         0.64466

 Excited State   4:      Singlet-A      2.9817 eV  415.81 nm  f=0.7819  <S**2>=0.000
     169 ->177        -0.10704
     169 ->179        -0.10650
     173 ->177        -0.10919
     174 ->177         0.16427
     175 ->177         0.30887
     176 ->178         0.47019
     176 ->179        -0.19518
     176 ->180         0.11245

 Excited State   5:      Singlet-A      3.0115 eV  411.71 nm  f=0.0173  <S**2>=0.000
     168 ->177         0.24268
     168 ->178        -0.14326
     168 ->179        -0.36191
     168 ->182        -0.36138
     168 ->183         0.16180
     168 ->185         0.21741
     168 ->187        -0.14225

 The electronic state is 1-A.
 Alpha  occ. eigenvalues --   -1.84349  -1.81364  -1.79571  -1.73084  -1.72701
 Alpha  occ. eigenvalues --   -1.71091  -1.67837  -1.61993  -1.59367  -1.57827
 Alpha  occ. eigenvalues --   -1.57271  -1.54076  -1.48606  -1.47791  -1.46693
 Alpha  occ. eigenvalues --   -1.43312  -1.43044  -1.41278  -1.39359  -1.37243
 Alpha  occ. eigenvalues --   -1.35745  -1.34562  -1.33107  -1.31335  -1.29545
 Alpha  occ. eigenvalues --   -1.28058  -1.26595  -1.22928  -1.22090  -1.18594
 Alpha  occ. eigenvalues --   -1.18410  -1.17263  -1.16167  -1.15562  -1.14759
 Alpha  occ. eigenvalues --   -1.12438  -1.11370  -1.09336  -1.05183  -1.03822
 Alpha  occ. eigenvalues --   -1.01605  -1.00919  -0.98622  -0.97540  -0.96604
 Alpha  occ. eigenvalues --   -0.96361  -0.95959  -0.94557  -0.92950  -0.92342
 Alpha  occ. eigenvalues --   -0.91175  -0.90732  -0.89581  -0.88786  -0.87355
 Alpha  occ. eigenvalues --   -0.86255  -0.84735  -0.83523  -0.82387  -0.80057
 Alpha  occ. eigenvalues --   -0.79980  -0.79144  -0.78414  -0.77500  -0.77062
 Alpha  occ. eigenvalues --   -0.76405  -0.75871  -0.75124  -0.74810  -0.73712
 Alpha  occ. eigenvalues --   -0.73370  -0.72902  -0.72645  -0.72397  -0.71616
 Alpha  occ. eigenvalues --   -0.70826  -0.69927  -0.69385  -0.68778  -0.67595
 Alpha  occ. eigenvalues --   -0.67084  -0.66649  -0.65967  -0.65368  -0.65313
 Alpha  occ. eigenvalues --   -0.64825  -0.64707  -0.64200  -0.64092  -0.63609
 Alpha  occ. eigenvalues --   -0.63533  -0.63034  -0.62475  -0.62344  -0.62026
 Alpha  occ. eigenvalues --   -0.61812  -0.61380  -0.61297  -0.60839  -0.60358
 Alpha  occ. eigenvalues --   -0.59709  -0.59276  -0.58814  -0.58599  -0.58124
 Alpha  occ. eigenvalues --   -0.57942  -0.57918  -0.57136  -0.56633  -0.56311
 Alpha  occ. eigenvalues --   -0.56088  -0.55480  -0.55228  -0.54953  -0.54514
 Alpha  occ. eigenvalues --   -0.54317  -0.53421  -0.53239  -0.53134  -0.52525
 Alpha  occ. eigenvalues --   -0.52396  -0.52118  -0.52046  -0.51397  -0.51086
 Alpha  occ. eigenvalues --   -0.50771  -0.50700  -0.50547  -0.50293  -0.49925
 Alpha  occ. eigenvalues --   -0.49660  -0.49585  -0.49318  -0.49139  -0.48986
 Alpha  occ. eigenvalues --   -0.48883  -0.48325  -0.47964  -0.47777  -0.47609
 Alpha  occ. eigenvalues --   -0.47467  -0.47338  -0.46951  -0.46847  -0.46733
 Alpha  occ. eigenvalues --   -0.46416  -0.45993  -0.45729  -0.45620  -0.45244
 Alpha  occ. eigenvalues --   -0.45214  -0.44847  -0.44745  -0.44564  -0.44411
 Alpha  occ. eigenvalues --   -0.44149  -0.43281  -0.43041  -0.42502  -0.42297
 Alpha  occ. eigenvalues --   -0.41983  -0.41882  -0.41037  -0.39552  -0.38802
 Alpha  occ. eigenvalues --   -0.38089  -0.37555  -0.35924  -0.35019  -0.34640
 Alpha  occ. eigenvalues --   -0.33699  -0.33070  -0.32848  -0.32378  -0.26593
 Alpha  occ. eigenvalues --   -0.22072
 Alpha virt. eigenvalues --   -0.08850  -0.02418  -0.00655  -0.00214   0.00558
 Alpha virt. eigenvalues --    0.00892   0.02559   0.02752   0.04327   0.04351
 Alpha virt. eigenvalues --    0.06278   0.06339   0.06966   0.07326   0.07967

 Mulliken charges:
               1
     1  Mg   0.452043
     2  C   -0.054161
     3  C   -0.085637
     4  C   -0.099932
     5  C   -0.072907
     6  N   -0.267362
     7  C    0.130870
     8  C    0.002284
     9  C   -0.002591
    10  C    0.122260
    11  C   -0.049030
    12  C   -0.020386
    13  C    0.004124
    14  C    0.478072
    15  O   -0.535783
    16  O   -0.247942
    17  N   -0.315565
    18  C    0.124153
    19  C    0.037976
    20  C   -0.051161
    21  C    0.131007
    22  C   -0.040486
    23  C    0.328002
    24  O   -0.506614
    25  C   -0.026751
    26  N   -0.280700
    27  C    0.130904
    28  C   -0.004058
    29  C   -0.008211
    30  C    0.121878
    31  C   -0.059168
    32  C   -0.033755
    33  C   -0.058413
    34  N   -0.320384
    35  C    0.093433
    36  C    0.029624
    37  C   -0.057593
    38  C    0.114830
    39  C   -0.033249
    40  C    0.342890
    41  O   -0.510437
    42  C    0.054940
    43  C    0.497003
    44  O   -0.544807
    45  O   -0.265842
    46  C    0.076071
    47  C    0.092018
    48  C   -0.099969
    49  C    0.009140
    50  C   -0.036065
    51  C   -0.029418
    52  C   -0.035733
    53  C   -0.040723
    54  C   -0.008608
    55  C   -0.060356
    56  C   -0.029914
    57  C   -0.035112
    58  C   -0.037159
    59  C    0.001071
    60  C   -0.055485
    61  C   -0.026918
    62  C   -0.041847
    63  C   -0.032524
    64  C    0.006776
    65  C   -0.065170
    66  C   -0.050649
    67  H    0.031225
    68  H    0.027538
    69  H    0.019956
    70  H    0.044045
    71  H    0.022235
    72  H    0.028962
    73  H    0.025430
    74  H    0.025585
    75  H    0.027646
    76  H    0.033756
    77  H    0.038978
    78  H    0.035657
    79  H    0.043746
    80  H    0.020254
    81  H    0.039955
    82  H    0.031819
    83  H    0.032461
    84  H    0.040337
    85  H    0.032466
    86  H    0.037777
    87  H    0.031662
    88  H    0.034292
    89  H    0.012460
    90  H    0.022901
    91  H    0.020661
    92  H    0.019344
    93  H    0.019447
    94  H    0.024606
    95  H    0.023838
    96  H    0.035910
    97  H    0.035184
    98  H    0.048133
    99  H    0.052704
   100  H    0.044596
   101  H    0.021859
   102  H    0.043924
   103  H    0.052340
   104  H    0.030901
   105  H    0.025781
   106  H    0.029299
   107  H    0.029168
   108  H    0.015092
   109  H    0.020194
   110  H    0.014483
   111  H    0.018377
   112  H    0.011425
   113  H    0.028441
   114  H    0.024471
   115  H    0.021975
   116  H    0.011053
   117  H    0.017398
   118  H    0.029104
   119  H    0.007651
   120  H    0.028154
   121  H    0.021025
   122  H    0.011202
   123  H    0.011898
   124  H    0.006843
   125  H    0.015345
   126  H    0.009694
   127  H    0.023539
   128  H    0.006480
   129  H    0.010625
   130  H    0.013966
   131  H    0.022837
   132  H    0.021972
   133  H    0.025313
   134  H    0.016076
   135  H    0.019075
   136  H    0.007366
   137  H    0.020242
   138  H    0.010704
   139  H    0.013865
   140  H    0.022480
 Sum of Mulliken charges =  -0.00000

 Dipole moment (field-independent basis, Debye):
    X=             -0.6682    Y=              3.5895    Z=              5.0959  Tot=              6.2689
 N-N= 4.349716496980D+03 E-N= 0.000000000000D+00  KE=-9.373267624869D+03
 Leave Link  601 at Fri Apr 29 15:56:04 2022, MaxMem=  6710886400 cpu:               0.8 elap:               0.0
 (Enter /sw/apps/gaussian-16.0/g16/l9999.exe)
 1\1\GINC-BP1-COMPUTE070\SP\RZINDO CIS\STO-3G\C55H74Mg1N4O6\OF15641\29-
 Apr-2022\0\\#p ZINDO=(nstates=5)\\step_351_chromophore_23 ZINDO\\0,1\M
 g,0,-9.669,41.374,42.997\C,0,-8.566,38.079,41.747\C,0,-7.489,42.779,40
 .966\C,0,-11.274,44.335,43.646\C,0,-12.583,39.676,44.05\N,0,-8.245,40.
 398,41.516\C,0,-7.881,39.151,41.211\C,0,-6.63,39.031,40.394\C,0,-6.204
 ,40.537,40.246\C,0,-7.361,41.3,40.997\C,0,-4.745,40.912,40.564\C,0,-6.
 864,38.264,39.028\C,0,-5.951,37.036,38.797\C,0,-4.993,37.077,37.655\O,

 Normal termination of Gaussian 16 at Fri Apr 29 15:56:04 2022.
