 Gaussian 16, Revision A.03,
 Gaussian 16:  ES64L-G16RevA.03 25-Dec-2016

 ------------------------------
 #p blyp/Def2SVP td=(nstates=5)
 ------------------------------

 --------------------------------------------------
 step_701_chromophore_22 TDDFT with blyp functional
 --------------------------------------------------
 Symbolic Z-matrix:
 Charge =  0 Multiplicity = 1

                         Standard orientation:
 ---------------------------------------------------------------------
 Center     Atomic      Atomic             Coordinates (Angstroms)
 Number     Number       Type             X           Y           Z
 ---------------------------------------------------------------------
      1         12           0       -6.292539    0.341242    0.266938
      2          6           0       -3.814570   -1.880192    0.792992
      3          6           0       -4.016613    2.918425    0.988067
      4          6           0       -8.779947    2.668662   -0.269316
      5          6           0       -8.636821   -2.127633   -0.017808
      6          7           0       -4.075418    0.516309    0.702873
      7          6           0       -3.273020   -0.588125    0.827410
      8          6           0       -1.864261   -0.123982    1.250110
      9          6           0       -2.158363    1.297267    1.813375
     10          6           0       -3.454368    1.659879    1.144074
     11          6           0       -2.295801    1.394249    3.369242
     12          6           0       -0.925445   -0.074997   -0.025854
     13          6           0        0.538802   -0.309923    0.220902
     14          6           0        1.378061   -1.171762   -0.703336
     15          8           0        1.018125   -1.894667   -1.608557
     16          8           0        2.649235   -0.943641   -0.317817
     17          7           0       -6.400435    2.404462    0.368835
     18          6           0       -5.342655    3.299554    0.537595
     19          6           0       -5.777145    4.650843    0.363523
     20          6           0       -7.066401    4.612875   -0.130022
     21          6           0       -7.466746    3.210582   -0.023456
     22          6           0       -4.972840    5.864600    0.827974
     23          6           0       -7.979669    5.722055   -0.591189
     24          8           0       -9.138342    5.600132   -0.943505
     25          6           0       -7.517113    7.138402   -0.629878
     26          7           0       -8.512710    0.298652    0.033103
     27          6           0       -9.272176    1.343623   -0.275005
     28          6           0      -10.684075    0.959633   -0.628035
     29          6           0      -10.625629   -0.578029   -0.708346
     30          6           0       -9.165647   -0.821755   -0.290265
     31          6           0      -11.706644    1.445466    0.413448
     32          6           0      -10.933398   -1.269750   -2.092428
     33          6           0      -12.032751   -2.355918   -2.150596
     34          7           0       -6.257833   -1.554900    0.305885
     35          6           0       -7.285971   -2.502341    0.296925
     36          6           0       -6.811087   -3.810501    0.454804
     37          6           0       -5.381165   -3.586720    0.538528
     38          6           0       -5.162237   -2.204120    0.572554
     39          6           0       -7.516695   -5.091803    0.480126
     40          6           0       -4.165267   -4.284661    0.759018
     41          8           0       -4.071260   -5.534312    0.869423
     42          6           0       -3.039256   -3.238576    0.948672
     43          6           0       -2.042310   -3.562108   -0.112580
     44          8           0       -2.029686   -3.036471   -1.181833
     45          8           0       -1.080680   -4.458788    0.317059
     46          6           0        0.032764   -4.864718   -0.600912
     47          6           0        3.605336   -1.548902   -1.226877
     48          6           0        4.960633   -1.126591   -0.681325
     49          6           0        6.150102   -1.822400   -0.574140
     50          6           0        6.289528   -3.231939   -1.066129
     51          6           0        7.526011   -1.249893    0.025729
     52          6           0        8.475187   -0.619225   -1.020617
     53          6           0        8.860601    0.905206   -0.837504
     54          6           0       10.271675    1.029127   -0.192972
     55          6           0       10.265988    1.036030    1.357952
     56          6           0       10.964234    2.307287   -0.823862
     57          6           0       11.571393    1.957484   -2.159386
     58          6           0       13.114756    2.221175   -2.224951
     59          6           0       14.070543    1.008391   -2.318673
     60          6           0       14.984475    1.117170   -3.529625
     61          6           0       14.820344    0.698499   -1.070984
     62          6           0       13.914388    0.128092    0.016235
     63          6           0       14.637968   -0.468090    1.281671
     64          6           0       14.561593    0.433515    2.670077
     65          6           0       15.702059    1.412401    2.789679
     66          6           0       14.353939   -0.367326    3.948174
     67          1           0       -3.242127    3.641192    1.250539
     68          1           0       -9.532424    3.425353   -0.502264
     69          1           0       -9.317636   -2.976058   -0.112717
     70          1           0       -1.569111   -0.858660    1.998868
     71          1           0       -1.493235    2.056519    1.401029
     72          1           0       -2.204312    0.437486    3.884799
     73          1           0       -3.330801    1.700991    3.518007
     74          1           0       -1.738311    2.218869    3.813560
     75          1           0       -1.046182    0.897640   -0.503233
     76          1           0       -1.280444   -0.873876   -0.676340
     77          1           0        0.775489   -0.633818    1.234243
     78          1           0        1.026194    0.660582    0.129554
     79          1           0       -3.922628    5.690952    1.060240
     80          1           0       -5.318610    6.371221    1.729032
     81          1           0       -4.941416    6.591285    0.016835
     82          1           0       -6.882580    7.365283   -1.486115
     83          1           0       -7.026845    7.381564    0.313118
     84          1           0       -8.423524    7.739871   -0.692475
     85          1           0      -10.746095    1.396367   -1.625127
     86          1           0      -11.232381   -1.132718    0.007395
     87          1           0      -11.373616    1.298427    1.440210
     88          1           0      -12.613719    0.844527    0.348266
     89          1           0      -11.979572    2.485626    0.229085
     90          1           0      -10.044166   -1.646383   -2.597934
     91          1           0      -11.335560   -0.459327   -2.699932
     92          1           0      -12.518468   -2.295473   -3.124087
     93          1           0      -12.768939   -2.261655   -1.352688
     94          1           0      -11.558151   -3.311400   -1.926991
     95          1           0       -7.731945   -5.209810    1.542336
     96          1           0       -6.929241   -5.916516    0.075629
     97          1           0       -8.418477   -4.984048   -0.121897
     98          1           0       -2.671082   -3.456379    1.952129
     99          1           0        0.174465   -5.944521   -0.647249
    100          1           0        0.917661   -4.350767   -0.222409
    101          1           0       -0.306268   -4.550850   -1.588354
    102          1           0        3.455437   -1.023764   -2.170052
    103          1           0        3.442434   -2.626321   -1.216107
    104          1           0        4.995645   -0.097304   -0.323889
    105          1           0        7.108151   -3.329879   -1.777434
    106          1           0        5.437530   -3.569706   -1.657042
    107          1           0        6.475400   -3.973760   -0.289103
    108          1           0        8.000320   -2.031279    0.619069
    109          1           0        7.281478   -0.464031    0.741193
    110          1           0        7.933735   -0.617659   -1.966487
    111          1           0        9.364122   -1.244237   -1.105889
    112          1           0        8.013756    1.307576   -0.282330
    113          1           0        8.734277    1.350072   -1.825004
    114          1           0       10.948970    0.185654   -0.327280
    115          1           0       10.939917    0.320277    1.829145
    116          1           0        9.249606    0.810882    1.680810
    117          1           0       10.637949    1.957112    1.807521
    118          1           0       11.724735    2.626074   -0.111200
    119          1           0       10.393360    3.198032   -1.084090
    120          1           0       11.175273    2.596366   -2.948545
    121          1           0       11.344877    0.931217   -2.449033
    122          1           0       13.485959    2.798508   -1.377557
    123          1           0       13.187084    2.940388   -3.041094
    124          1           0       13.439922    0.132838   -2.479753
    125          1           0       14.841916    2.069270   -4.040798
    126          1           0       14.686978    0.361210   -4.256580
    127          1           0       16.042825    0.916285   -3.367023
    128          1           0       15.340069    1.553352   -0.636396
    129          1           0       15.477527   -0.161652   -1.199097
    130          1           0       13.203465   -0.637885   -0.294222
    131          1           0       13.385662    0.998133    0.404444
    132          1           0       15.714997   -0.482175    1.113567
    133          1           0       14.400560   -1.514491    1.471430
    134          1           0       13.785304    1.189040    2.550388
    135          1           0       15.598868    2.247054    2.096433
    136          1           0       16.653294    0.901401    2.641528
    137          1           0       15.919446    1.807422    3.782502
    138          1           0       15.190905   -0.457780    4.640422
    139          1           0       14.127460   -1.422393    3.797565
    140          1           0       13.615205    0.158966    4.551932
 ---------------------------------------------------------------------

 SCF Done:  E(RB-LYP) =  -3007.37209367     A.U. after   22 cycles

 Excitation energies and oscillator strengths:

 Excited State   1:      Singlet-A      1.7463 eV  709.97 nm  f=0.0062  <S**2>=0.000
     244 -> 247        0.69930
 This state for optimization and/or second-order correction.
 Total Energy, E(TD-HF/TD-DFT) =  -3007.30791754
 Copying the excited state density for this state as the 1-particle RhoCI density.

 Excited State   2:      Singlet-A      1.8004 eV  688.63 nm  f=0.2712  <S**2>=0.000
     245 -> 248        0.19564
     246 -> 247        0.68120
     246 <- 247       -0.14245

 Excited State   3:      Singlet-A      1.9330 eV  641.42 nm  f=0.0047  <S**2>=0.000
     243 -> 247        0.68942
     245 -> 247       -0.14636

 Excited State   4:      Singlet-A      2.0112 eV  616.47 nm  f=0.1155  <S**2>=0.000
     243 -> 247        0.15144
     245 -> 247        0.63734
     246 -> 248       -0.22130

 Excited State   5:      Singlet-A      2.4595 eV  504.11 nm  f=0.0000  <S**2>=0.000
     241 -> 247        0.70556

 The electronic state is 1-A.
 Alpha  occ. eigenvalues --  -46.26082 -18.82044 -18.80037 -18.77010 -18.75694
 Alpha  occ. eigenvalues --  -18.75400 -18.74557 -14.02601 -14.02277 -14.01334
 Alpha  occ. eigenvalues --  -14.00554 -10.03763 -10.02956  -9.99572  -9.98489
 Alpha  occ. eigenvalues --   -9.98339  -9.96514  -9.96172  -9.96101  -9.95923
 Alpha  occ. eigenvalues --   -9.95881  -9.95759  -9.95673  -9.95365  -9.94170
 Alpha  occ. eigenvalues --   -9.94076  -9.94069  -9.94024  -9.93969  -9.93742
 Alpha  occ. eigenvalues --   -9.93733  -9.93723  -9.93526  -9.93134  -9.93069
 Alpha  occ. eigenvalues --   -9.92910  -9.92803  -9.92715  -9.92655  -9.92642
 Alpha  occ. eigenvalues --   -9.92619  -9.92511  -9.92475  -9.92406  -9.92387
 Alpha  occ. eigenvalues --   -9.92380  -9.92154  -9.92099  -9.92036  -9.92034
 Alpha  occ. eigenvalues --   -9.91909  -9.91829  -9.91693  -9.91660  -9.91412
 Alpha  occ. eigenvalues --   -9.91302  -9.91196  -9.91002  -9.90917  -9.90865
 Alpha  occ. eigenvalues --   -9.90830  -9.90798  -9.90779  -9.90677  -9.90333
 Alpha  occ. eigenvalues --   -9.90226  -2.90996  -1.71413  -1.70878  -1.70728
 Alpha  occ. eigenvalues --   -0.99206  -0.96475  -0.92049  -0.90710  -0.88883
 Alpha  occ. eigenvalues --   -0.88808  -0.87467  -0.86835  -0.85338  -0.84464
 Alpha  occ. eigenvalues --   -0.74966  -0.73639  -0.72831  -0.72244  -0.72234
 Alpha  occ. eigenvalues --   -0.71586  -0.71449  -0.70850  -0.70792  -0.70583
 Alpha  occ. eigenvalues --   -0.70241  -0.69310  -0.68114  -0.67306  -0.66964
 Alpha  occ. eigenvalues --   -0.66403  -0.65662  -0.65201  -0.64631  -0.64410
 Alpha  occ. eigenvalues --   -0.63930  -0.62854  -0.62338  -0.61768  -0.60523
 Alpha  occ. eigenvalues --   -0.60422  -0.60313  -0.60215  -0.59470  -0.59147
 Alpha  occ. eigenvalues --   -0.58348  -0.57707  -0.56881  -0.55161  -0.54507
 Alpha  occ. eigenvalues --   -0.53747  -0.53211  -0.52560  -0.52117  -0.51709
 Alpha  occ. eigenvalues --   -0.51354  -0.51173  -0.50496  -0.50020  -0.49879
 Alpha  occ. eigenvalues --   -0.49627  -0.49248  -0.49131  -0.47171  -0.46524
 Alpha  occ. eigenvalues --   -0.46314  -0.45652  -0.45432  -0.44670  -0.44528
 Alpha  occ. eigenvalues --   -0.44409  -0.44094  -0.42787  -0.42664  -0.41960
 Alpha  occ. eigenvalues --   -0.41857  -0.41750  -0.41400  -0.41200  -0.40985
 Alpha  occ. eigenvalues --   -0.40751  -0.40116  -0.40089  -0.39954  -0.39885
 Alpha  occ. eigenvalues --   -0.39660  -0.39492  -0.39425  -0.39199  -0.39133
 Alpha  occ. eigenvalues --   -0.38972  -0.38887  -0.38525  -0.38228  -0.38148
 Alpha  occ. eigenvalues --   -0.37920  -0.37658  -0.37635  -0.37437  -0.37388
 Alpha  occ. eigenvalues --   -0.37055  -0.36896  -0.36638  -0.36425  -0.36319
 Alpha  occ. eigenvalues --   -0.36110  -0.36053  -0.35966  -0.35540  -0.35421
 Alpha  occ. eigenvalues --   -0.35347  -0.35044  -0.34967  -0.34881  -0.34599
 Alpha  occ. eigenvalues --   -0.34477  -0.34322  -0.34075  -0.33910  -0.33776
 Alpha  occ. eigenvalues --   -0.33689  -0.33589  -0.33408  -0.33138  -0.32965
 Alpha  occ. eigenvalues --   -0.32789  -0.32549  -0.32440  -0.32201  -0.32121
 Alpha  occ. eigenvalues --   -0.32101  -0.31603  -0.31537  -0.31495  -0.31354
 Alpha  occ. eigenvalues --   -0.31257  -0.31159  -0.31058  -0.30854  -0.30640
 Alpha  occ. eigenvalues --   -0.30380  -0.30290  -0.29923  -0.29600  -0.29353
 Alpha  occ. eigenvalues --   -0.29235  -0.29187  -0.29047  -0.28895  -0.28687
 Alpha  occ. eigenvalues --   -0.28641  -0.28451  -0.28126  -0.28070  -0.27871
 Alpha  occ. eigenvalues --   -0.27766  -0.27417  -0.27220  -0.26824  -0.26341
 Alpha  occ. eigenvalues --   -0.25988  -0.25909  -0.25718  -0.25707  -0.25149
 Alpha  occ. eigenvalues --   -0.25142  -0.24489  -0.23784  -0.23601  -0.23245
 Alpha  occ. eigenvalues --   -0.23199  -0.22176  -0.21947  -0.21204  -0.20862
 Alpha  occ. eigenvalues --   -0.20438  -0.20335  -0.18428  -0.17694  -0.16810
 Alpha  occ. eigenvalues --   -0.15728
 Alpha virt. eigenvalues --   -0.11400  -0.06623  -0.05882  -0.04302  -0.02392
 Alpha virt. eigenvalues --   -0.01945  -0.01168  -0.01006  -0.00600   0.00232
 Alpha virt. eigenvalues --    0.01142   0.01978   0.02011   0.02434   0.02516

 Mulliken charges:
               1
     1  Mg   0.724765
     2  C   -0.024053
     3  C   -0.047830
     4  C   -0.035332
     5  C   -0.094014
     6  N   -0.215216
     7  C   -0.073311
     8  C   -0.002108
     9  C    0.047421
    10  C   -0.076425
    11  C    0.161735
    12  C    0.135834
    13  C    0.103528
    14  C    0.071245
    15  O   -0.173043
    16  O   -0.269890
    17  N   -0.294762
    18  C    0.179435
    19  C   -0.129257
    20  C    0.082235
    21  C    0.063737
    22  C    0.149063
    23  C   -0.091231
    24  O   -0.156134
    25  C    0.126021
    26  N   -0.153304
    27  C   -0.051014
    28  C    0.113672
    29  C    0.010768
    30  C    0.003958
    31  C    0.137006
    32  C    0.078330
    33  C    0.055704
    34  N   -0.333614
    35  C    0.133098
    36  C   -0.172480
    37  C    0.099764
    38  C    0.149222
    39  C    0.197751
    40  C   -0.136052
    41  O   -0.176861
    42  C    0.106837
    43  C    0.119601
    44  O   -0.144667
    45  O   -0.301766
    46  C    0.206081
    47  C    0.346037
    48  C   -0.101770
    49  C   -0.144557
    50  C    0.129170
    51  C    0.120697
    52  C    0.057296
    53  C    0.113361
    54  C   -0.053400
    55  C    0.090738
    56  C    0.118768
    57  C    0.065901
    58  C    0.085164
    59  C   -0.035932
    60  C    0.138587
    61  C    0.111127
    62  C    0.014851
    63  C    0.098122
    64  C   -0.072211
    65  C    0.075114
    66  C    0.108716
    67  H   -0.076450
    68  H   -0.054939
    69  H   -0.069159
    70  H   -0.037473
    71  H   -0.043934
    72  H   -0.001792
    73  H   -0.017656
    74  H   -0.004742
    75  H   -0.022632
    76  H    0.021141
    77  H   -0.002499
    78  H   -0.011751
    79  H   -0.027890
    80  H    0.015864
    81  H   -0.003862
    82  H    0.018074
    83  H   -0.009323
    84  H   -0.011630
    85  H   -0.023535
    86  H   -0.026043
    87  H   -0.004534
    88  H   -0.015707
    89  H    0.007818
    90  H   -0.009207
    91  H   -0.030222
    92  H    0.003840
    93  H   -0.014458
    94  H   -0.006004
    95  H    0.012838
    96  H    0.015732
    97  H   -0.011982
    98  H    0.002795
    99  H    0.017214
   100  H    0.021492
   101  H    0.032709
   102  H    0.000606
   103  H    0.007008
   104  H   -0.040328
   105  H   -0.011574
   106  H   -0.023598
   107  H    0.000462
   108  H   -0.026657
   109  H   -0.029825
   110  H   -0.028345
   111  H   -0.024704
   112  H   -0.034067
   113  H   -0.030256
   114  H   -0.027440
   115  H   -0.014766
   116  H   -0.019993
   117  H   -0.022052
   118  H   -0.039352
   119  H   -0.033573
   120  H   -0.040448
   121  H   -0.024716
   122  H   -0.042064
   123  H   -0.042405
   124  H   -0.050348
   125  H   -0.024562
   126  H   -0.028754
   127  H   -0.023287
   128  H   -0.024793
   129  H   -0.037791
   130  H   -0.007662
   131  H   -0.026080
   132  H   -0.045059
   133  H   -0.033884
   134  H   -0.027520
   135  H   -0.010550
   136  H   -0.030134
   137  H   -0.023243
   138  H   -0.026985
   139  H   -0.019848
   140  H   -0.013739
 Sum of Mulliken charges =  -0.00000

 Dipole moment (field-independent basis, Debye):
    X=              2.7230    Y=              2.8536    Z=              1.6380  Tot=              4.2709
 Quadrupole moment (field-independent basis, Debye-Ang):
   XX=           -370.6128   YY=           -419.3692   ZZ=           -405.3519
   XY=              3.7439   XZ=             -4.4525   YZ=              7.4350

 Normal termination of Gaussian 16 at Thu May  5 07:24:26 2022.
