 Gaussian 16, Revision A.03,
 Gaussian 16:  ES64L-G16RevA.03 25-Dec-2016

 -----------------------------------
 #p cam-b3lyp/Def2SVP td=(nstates=5)
 -----------------------------------

 -------------------------------------------------------
 step_701_chromophore_22 TDDFT with cam-b3lyp functional
 -------------------------------------------------------
 Symbolic Z-matrix:
 Charge =  0 Multiplicity = 1

                         Standard orientation:
 ---------------------------------------------------------------------
 Center     Atomic      Atomic             Coordinates (Angstroms)
 Number     Number       Type             X           Y           Z
 ---------------------------------------------------------------------
      1         12           0       -6.292539    0.341242    0.266938
      2          6           0       -3.814570   -1.880192    0.792992
      3          6           0       -4.016613    2.918425    0.988067
      4          6           0       -8.779947    2.668662   -0.269316
      5          6           0       -8.636821   -2.127633   -0.017808
      6          7           0       -4.075418    0.516309    0.702873
      7          6           0       -3.273020   -0.588125    0.827410
      8          6           0       -1.864261   -0.123982    1.250110
      9          6           0       -2.158363    1.297267    1.813375
     10          6           0       -3.454368    1.659879    1.144074
     11          6           0       -2.295801    1.394249    3.369242
     12          6           0       -0.925445   -0.074997   -0.025854
     13          6           0        0.538802   -0.309923    0.220902
     14          6           0        1.378061   -1.171762   -0.703336
     15          8           0        1.018125   -1.894667   -1.608557
     16          8           0        2.649235   -0.943641   -0.317817
     17          7           0       -6.400435    2.404462    0.368835
     18          6           0       -5.342655    3.299554    0.537595
     19          6           0       -5.777145    4.650843    0.363523
     20          6           0       -7.066401    4.612875   -0.130022
     21          6           0       -7.466746    3.210582   -0.023456
     22          6           0       -4.972840    5.864600    0.827974
     23          6           0       -7.979669    5.722055   -0.591189
     24          8           0       -9.138342    5.600132   -0.943505
     25          6           0       -7.517113    7.138402   -0.629878
     26          7           0       -8.512710    0.298652    0.033103
     27          6           0       -9.272176    1.343623   -0.275005
     28          6           0      -10.684075    0.959633   -0.628035
     29          6           0      -10.625629   -0.578029   -0.708346
     30          6           0       -9.165647   -0.821755   -0.290265
     31          6           0      -11.706644    1.445466    0.413448
     32          6           0      -10.933398   -1.269750   -2.092428
     33          6           0      -12.032751   -2.355918   -2.150596
     34          7           0       -6.257833   -1.554900    0.305885
     35          6           0       -7.285971   -2.502341    0.296925
     36          6           0       -6.811087   -3.810501    0.454804
     37          6           0       -5.381165   -3.586720    0.538528
     38          6           0       -5.162237   -2.204120    0.572554
     39          6           0       -7.516695   -5.091803    0.480126
     40          6           0       -4.165267   -4.284661    0.759018
     41          8           0       -4.071260   -5.534312    0.869423
     42          6           0       -3.039256   -3.238576    0.948672
     43          6           0       -2.042310   -3.562108   -0.112580
     44          8           0       -2.029686   -3.036471   -1.181833
     45          8           0       -1.080680   -4.458788    0.317059
     46          6           0        0.032764   -4.864718   -0.600912
     47          6           0        3.605336   -1.548902   -1.226877
     48          6           0        4.960633   -1.126591   -0.681325
     49          6           0        6.150102   -1.822400   -0.574140
     50          6           0        6.289528   -3.231939   -1.066129
     51          6           0        7.526011   -1.249893    0.025729
     52          6           0        8.475187   -0.619225   -1.020617
     53          6           0        8.860601    0.905206   -0.837504
     54          6           0       10.271675    1.029127   -0.192972
     55          6           0       10.265988    1.036030    1.357952
     56          6           0       10.964234    2.307287   -0.823862
     57          6           0       11.571393    1.957484   -2.159386
     58          6           0       13.114756    2.221175   -2.224951
     59          6           0       14.070543    1.008391   -2.318673
     60          6           0       14.984475    1.117170   -3.529625
     61          6           0       14.820344    0.698499   -1.070984
     62          6           0       13.914388    0.128092    0.016235
     63          6           0       14.637968   -0.468090    1.281671
     64          6           0       14.561593    0.433515    2.670077
     65          6           0       15.702059    1.412401    2.789679
     66          6           0       14.353939   -0.367326    3.948174
     67          1           0       -3.242127    3.641192    1.250539
     68          1           0       -9.532424    3.425353   -0.502264
     69          1           0       -9.317636   -2.976058   -0.112717
     70          1           0       -1.569111   -0.858660    1.998868
     71          1           0       -1.493235    2.056519    1.401029
     72          1           0       -2.204312    0.437486    3.884799
     73          1           0       -3.330801    1.700991    3.518007
     74          1           0       -1.738311    2.218869    3.813560
     75          1           0       -1.046182    0.897640   -0.503233
     76          1           0       -1.280444   -0.873876   -0.676340
     77          1           0        0.775489   -0.633818    1.234243
     78          1           0        1.026194    0.660582    0.129554
     79          1           0       -3.922628    5.690952    1.060240
     80          1           0       -5.318610    6.371221    1.729032
     81          1           0       -4.941416    6.591285    0.016835
     82          1           0       -6.882580    7.365283   -1.486115
     83          1           0       -7.026845    7.381564    0.313118
     84          1           0       -8.423524    7.739871   -0.692475
     85          1           0      -10.746095    1.396367   -1.625127
     86          1           0      -11.232381   -1.132718    0.007395
     87          1           0      -11.373616    1.298427    1.440210
     88          1           0      -12.613719    0.844527    0.348266
     89          1           0      -11.979572    2.485626    0.229085
     90          1           0      -10.044166   -1.646383   -2.597934
     91          1           0      -11.335560   -0.459327   -2.699932
     92          1           0      -12.518468   -2.295473   -3.124087
     93          1           0      -12.768939   -2.261655   -1.352688
     94          1           0      -11.558151   -3.311400   -1.926991
     95          1           0       -7.731945   -5.209810    1.542336
     96          1           0       -6.929241   -5.916516    0.075629
     97          1           0       -8.418477   -4.984048   -0.121897
     98          1           0       -2.671082   -3.456379    1.952129
     99          1           0        0.174465   -5.944521   -0.647249
    100          1           0        0.917661   -4.350767   -0.222409
    101          1           0       -0.306268   -4.550850   -1.588354
    102          1           0        3.455437   -1.023764   -2.170052
    103          1           0        3.442434   -2.626321   -1.216107
    104          1           0        4.995645   -0.097304   -0.323889
    105          1           0        7.108151   -3.329879   -1.777434
    106          1           0        5.437530   -3.569706   -1.657042
    107          1           0        6.475400   -3.973760   -0.289103
    108          1           0        8.000320   -2.031279    0.619069
    109          1           0        7.281478   -0.464031    0.741193
    110          1           0        7.933735   -0.617659   -1.966487
    111          1           0        9.364122   -1.244237   -1.105889
    112          1           0        8.013756    1.307576   -0.282330
    113          1           0        8.734277    1.350072   -1.825004
    114          1           0       10.948970    0.185654   -0.327280
    115          1           0       10.939917    0.320277    1.829145
    116          1           0        9.249606    0.810882    1.680810
    117          1           0       10.637949    1.957112    1.807521
    118          1           0       11.724735    2.626074   -0.111200
    119          1           0       10.393360    3.198032   -1.084090
    120          1           0       11.175273    2.596366   -2.948545
    121          1           0       11.344877    0.931217   -2.449033
    122          1           0       13.485959    2.798508   -1.377557
    123          1           0       13.187084    2.940388   -3.041094
    124          1           0       13.439922    0.132838   -2.479753
    125          1           0       14.841916    2.069270   -4.040798
    126          1           0       14.686978    0.361210   -4.256580
    127          1           0       16.042825    0.916285   -3.367023
    128          1           0       15.340069    1.553352   -0.636396
    129          1           0       15.477527   -0.161652   -1.199097
    130          1           0       13.203465   -0.637885   -0.294222
    131          1           0       13.385662    0.998133    0.404444
    132          1           0       15.714997   -0.482175    1.113567
    133          1           0       14.400560   -1.514491    1.471430
    134          1           0       13.785304    1.189040    2.550388
    135          1           0       15.598868    2.247054    2.096433
    136          1           0       16.653294    0.901401    2.641528
    137          1           0       15.919446    1.807422    3.782502
    138          1           0       15.190905   -0.457780    4.640422
    139          1           0       14.127460   -1.422393    3.797565
    140          1           0       13.615205    0.158966    4.551932
 ---------------------------------------------------------------------

 SCF Done:  E(RCAM-B3LYP) =  -3007.17184523     A.U. after   17 cycles

 Excitation energies and oscillator strengths:

 Excited State   1:      Singlet-A      1.6925 eV  732.54 nm  f=0.3597  <S**2>=0.000
     245 -> 248       -0.19094
     246 -> 247        0.68261
     245 <- 248       -0.11114
 This state for optimization and/or second-order correction.
 Total Energy, E(TD-HF/TD-DFT) =  -3007.10964631
 Copying the excited state density for this state as the 1-particle RhoCI density.

 Excited State   2:      Singlet-A      2.1923 eV  565.53 nm  f=0.1677  <S**2>=0.000
     245 -> 247        0.65417
     246 -> 248        0.25937

 Excited State   3:      Singlet-A      3.2694 eV  379.23 nm  f=0.0046  <S**2>=0.000
     243 -> 247        0.32677
     243 -> 249        0.21768
     243 -> 250        0.16426
     244 -> 247        0.49937
     244 -> 249        0.18787
     244 -> 250        0.11289

 Excited State   4:      Singlet-A      3.4822 eV  356.05 nm  f=0.0176  <S**2>=0.000
     241 -> 247        0.32416
     243 -> 247        0.47448
     243 -> 249        0.10671
     244 -> 247       -0.35853

 Excited State   5:      Singlet-A      3.5703 eV  347.26 nm  f=0.1243  <S**2>=0.000
     240 -> 247        0.40410
     240 -> 248       -0.10158
     240 -> 249       -0.17985
     240 -> 250        0.13017
     241 -> 247        0.26192
     243 -> 247       -0.15142
     244 -> 247        0.16510
     245 -> 247        0.10383
     246 -> 248       -0.35002

 The electronic state is 1-A.
 Alpha  occ. eigenvalues --  -46.87547 -19.24922 -19.22824 -19.19923 -19.18788
 Alpha  occ. eigenvalues --  -19.18717 -19.17488 -14.41573 -14.40966 -14.39931
 Alpha  occ. eigenvalues --  -14.38850 -10.38947 -10.38301 -10.34881 -10.33653
 Alpha  occ. eigenvalues --  -10.32399 -10.30598 -10.30492 -10.30472 -10.30439
 Alpha  occ. eigenvalues --  -10.30392 -10.30247 -10.30113 -10.29454 -10.28397
 Alpha  occ. eigenvalues --  -10.28387 -10.28273 -10.28200 -10.28118 -10.28039
 Alpha  occ. eigenvalues --  -10.27660 -10.27615 -10.27609 -10.27515 -10.27195
 Alpha  occ. eigenvalues --  -10.27097 -10.27033 -10.26836 -10.26593 -10.26447
 Alpha  occ. eigenvalues --  -10.26399 -10.26342 -10.26320 -10.26233 -10.26139
 Alpha  occ. eigenvalues --  -10.26131 -10.26066 -10.25930 -10.25770 -10.25672
 Alpha  occ. eigenvalues --  -10.25651 -10.25611 -10.25454 -10.25375 -10.25338
 Alpha  occ. eigenvalues --  -10.25041 -10.24999 -10.24595 -10.24514 -10.24497
 Alpha  occ. eigenvalues --  -10.24453 -10.24414 -10.24405 -10.24278 -10.24066
 Alpha  occ. eigenvalues --  -10.23876  -3.16380  -1.91267  -1.90818  -1.90730
 Alpha  occ. eigenvalues --   -1.17683  -1.14994  -1.10650  -1.08566  -1.06914
 Alpha  occ. eigenvalues --   -1.06660  -1.05245  -1.04437  -1.02990  -1.02066
 Alpha  occ. eigenvalues --   -0.91991  -0.90469  -0.89605  -0.88942  -0.88884
 Alpha  occ. eigenvalues --   -0.88253  -0.88114  -0.87592  -0.87365  -0.87110
 Alpha  occ. eigenvalues --   -0.86851  -0.85645  -0.84377  -0.83463  -0.83101
 Alpha  occ. eigenvalues --   -0.82486  -0.81666  -0.81328  -0.80659  -0.80209
 Alpha  occ. eigenvalues --   -0.79703  -0.78584  -0.77959  -0.77261  -0.75854
 Alpha  occ. eigenvalues --   -0.75794  -0.75659  -0.75514  -0.74750  -0.74374
 Alpha  occ. eigenvalues --   -0.73400  -0.72741  -0.71797  -0.69945  -0.69098
 Alpha  occ. eigenvalues --   -0.68384  -0.67704  -0.67011  -0.66484  -0.65825
 Alpha  occ. eigenvalues --   -0.65588  -0.65350  -0.64562  -0.64022  -0.63768
 Alpha  occ. eigenvalues --   -0.63607  -0.63133  -0.63023  -0.60762  -0.60049
 Alpha  occ. eigenvalues --   -0.59960  -0.59201  -0.58937  -0.58048  -0.57932
 Alpha  occ. eigenvalues --   -0.57826  -0.57539  -0.56121  -0.55945  -0.55034
 Alpha  occ. eigenvalues --   -0.54898  -0.54616  -0.54484  -0.54018  -0.53678
 Alpha  occ. eigenvalues --   -0.53536  -0.53113  -0.52884  -0.52648  -0.52549
 Alpha  occ. eigenvalues --   -0.52393  -0.52261  -0.52017  -0.51904  -0.51793
 Alpha  occ. eigenvalues --   -0.51610  -0.51441  -0.50948  -0.50799  -0.50371
 Alpha  occ. eigenvalues --   -0.50308  -0.50071  -0.49865  -0.49821  -0.49621
 Alpha  occ. eigenvalues --   -0.49316  -0.49198  -0.49069  -0.48857  -0.48402
 Alpha  occ. eigenvalues --   -0.48342  -0.48212  -0.48012  -0.47952  -0.47719
 Alpha  occ. eigenvalues --   -0.47506  -0.47169  -0.46983  -0.46867  -0.46552
 Alpha  occ. eigenvalues --   -0.46442  -0.46282  -0.46038  -0.45810  -0.45507
 Alpha  occ. eigenvalues --   -0.45448  -0.45209  -0.45186  -0.44701  -0.44641
 Alpha  occ. eigenvalues --   -0.44434  -0.44275  -0.44144  -0.43957  -0.43809
 Alpha  occ. eigenvalues --   -0.43613  -0.43476  -0.43236  -0.42996  -0.42841
 Alpha  occ. eigenvalues --   -0.42729  -0.42665  -0.42620  -0.42243  -0.42084
 Alpha  occ. eigenvalues --   -0.41993  -0.41501  -0.41468  -0.40936  -0.40573
 Alpha  occ. eigenvalues --   -0.40281  -0.40219  -0.40122  -0.40097  -0.39790
 Alpha  occ. eigenvalues --   -0.39624  -0.39458  -0.39390  -0.39184  -0.39076
 Alpha  occ. eigenvalues --   -0.38748  -0.38596  -0.38266  -0.38167  -0.37448
 Alpha  occ. eigenvalues --   -0.37025  -0.36560  -0.36400  -0.36376  -0.36161
 Alpha  occ. eigenvalues --   -0.35690  -0.35310  -0.34923  -0.34528  -0.34135
 Alpha  occ. eigenvalues --   -0.33529  -0.33384  -0.32688  -0.31453  -0.30776
 Alpha  occ. eigenvalues --   -0.30192  -0.30087  -0.29879  -0.29302  -0.23382
 Alpha  occ. eigenvalues --   -0.21132
 Alpha virt. eigenvalues --   -0.08606  -0.01361   0.00562   0.02660   0.04147
 Alpha virt. eigenvalues --    0.05177   0.05506   0.06168   0.06494   0.06746
 Alpha virt. eigenvalues --    0.08072   0.08517   0.08660   0.08707   0.08905

 Mulliken charges:
               1
     1  Mg   0.860867
     2  C   -0.050950
     3  C   -0.066389
     4  C   -0.049408
     5  C   -0.089359
     6  N   -0.284745
     7  C   -0.025278
     8  C   -0.052707
     9  C   -0.012936
    10  C   -0.052195
    11  C    0.100948
    12  C    0.082939
    13  C    0.034761
    14  C    0.149836
    15  O   -0.214585
    16  O   -0.332014
    17  N   -0.379142
    18  C    0.187307
    19  C   -0.135124
    20  C    0.005939
    21  C    0.088551
    22  C    0.092824
    23  C   -0.008814
    24  O   -0.196961
    25  C    0.044584
    26  N   -0.219602
    27  C   -0.028975
    28  C    0.045711
    29  C   -0.043834
    30  C    0.018323
    31  C    0.078861
    32  C    0.023686
    33  C   -0.002177
    34  N   -0.431010
    35  C    0.131806
    36  C   -0.167370
    37  C    0.024616
    38  C    0.180959
    39  C    0.143368
    40  C   -0.042254
    41  O   -0.217994
    42  C    0.033470
    43  C    0.204367
    44  O   -0.182196
    45  O   -0.366991
    46  C    0.175446
    47  C    0.307670
    48  C   -0.119620
    49  C   -0.169423
    50  C    0.065890
    51  C    0.068462
    52  C    0.003234
    53  C    0.058835
    54  C   -0.110050
    55  C    0.040291
    56  C    0.062835
    57  C    0.011128
    58  C    0.033240
    59  C   -0.097424
    60  C    0.078467
    61  C    0.058872
    62  C   -0.031276
    63  C    0.045870
    64  C   -0.129341
    65  C    0.019099
    66  C    0.046424
    67  H   -0.042255
    68  H   -0.012226
    69  H   -0.034421
    70  H   -0.001932
    71  H   -0.008061
    72  H    0.023196
    73  H    0.010095
    74  H    0.020408
    75  H    0.007095
    76  H    0.055039
    77  H    0.030419
    78  H    0.021736
    79  H    0.002060
    80  H    0.042009
    81  H    0.021699
    82  H    0.046245
    83  H    0.018659
    84  H    0.024513
    85  H    0.013060
    86  H    0.009334
    87  H    0.020962
    88  H    0.009035
    89  H    0.031693
    90  H    0.020546
    91  H   -0.001926
    92  H    0.027572
    93  H    0.007870
    94  H    0.014644
    95  H    0.039611
    96  H    0.044820
    97  H    0.010738
    98  H    0.045733
    99  H    0.038653
   100  H    0.038769
   101  H    0.058370
   102  H    0.031621
   103  H    0.033683
   104  H   -0.006373
   105  H    0.012563
   106  H    0.001001
   107  H    0.025380
   108  H    0.003651
   109  H   -0.001827
   110  H    0.001892
   111  H    0.002171
   112  H   -0.005706
   113  H   -0.000400
   114  H    0.001102
   115  H    0.006975
   116  H    0.001947
   117  H    0.002493
   118  H   -0.012812
   119  H   -0.003196
   120  H   -0.009920
   121  H    0.001307
   122  H   -0.014052
   123  H   -0.011518
   124  H   -0.017274
   125  H    0.000118
   126  H   -0.003513
   127  H    0.002813
   128  H    0.000786
   129  H   -0.007988
   130  H    0.017537
   131  H   -0.006681
   132  H   -0.016106
   133  H   -0.004412
   134  H    0.000669
   135  H    0.011474
   136  H   -0.006610
   137  H    0.003131
   138  H   -0.002135
   139  H    0.004512
   140  H    0.010598
 Sum of Mulliken charges =  -0.00000

 Dipole moment (field-independent basis, Debye):
    X=              2.7242    Y=              3.6466    Z=              1.7213  Tot=              4.8664
 Quadrupole moment (field-independent basis, Debye-Ang):
   XX=           -366.0974   YY=           -414.5059   ZZ=           -405.3002
   XY=             -0.6312   XZ=             -3.4892   YZ=              7.7999

 Normal termination of Gaussian 16 at Thu May  5 06:06:54 2022.
