 Gaussian 16, Revision A.03,
 Gaussian 16:  ES64L-G16RevA.03 25-Dec-2016

 ---------------------------------
 #p PBE1PBE/Def2SVP td=(nstates=5)
 ---------------------------------

 -----------------------------------------------------
 step_701_chromophore_22 TDDFT with PBE1PBE functional
 -----------------------------------------------------
 Symbolic Z-matrix:
 Charge =  0 Multiplicity = 1

                         Standard orientation:
 ---------------------------------------------------------------------
 Center     Atomic      Atomic             Coordinates (Angstroms)
 Number     Number       Type             X           Y           Z
 ---------------------------------------------------------------------
      1         12           0       -6.292539    0.341242    0.266938
      2          6           0       -3.814570   -1.880192    0.792992
      3          6           0       -4.016613    2.918425    0.988067
      4          6           0       -8.779947    2.668662   -0.269316
      5          6           0       -8.636821   -2.127633   -0.017808
      6          7           0       -4.075418    0.516309    0.702873
      7          6           0       -3.273020   -0.588125    0.827410
      8          6           0       -1.864261   -0.123982    1.250110
      9          6           0       -2.158363    1.297267    1.813375
     10          6           0       -3.454368    1.659879    1.144074
     11          6           0       -2.295801    1.394249    3.369242
     12          6           0       -0.925445   -0.074997   -0.025854
     13          6           0        0.538802   -0.309923    0.220902
     14          6           0        1.378061   -1.171762   -0.703336
     15          8           0        1.018125   -1.894667   -1.608557
     16          8           0        2.649235   -0.943641   -0.317817
     17          7           0       -6.400435    2.404462    0.368835
     18          6           0       -5.342655    3.299554    0.537595
     19          6           0       -5.777145    4.650843    0.363523
     20          6           0       -7.066401    4.612875   -0.130022
     21          6           0       -7.466746    3.210582   -0.023456
     22          6           0       -4.972840    5.864600    0.827974
     23          6           0       -7.979669    5.722055   -0.591189
     24          8           0       -9.138342    5.600132   -0.943505
     25          6           0       -7.517113    7.138402   -0.629878
     26          7           0       -8.512710    0.298652    0.033103
     27          6           0       -9.272176    1.343623   -0.275005
     28          6           0      -10.684075    0.959633   -0.628035
     29          6           0      -10.625629   -0.578029   -0.708346
     30          6           0       -9.165647   -0.821755   -0.290265
     31          6           0      -11.706644    1.445466    0.413448
     32          6           0      -10.933398   -1.269750   -2.092428
     33          6           0      -12.032751   -2.355918   -2.150596
     34          7           0       -6.257833   -1.554900    0.305885
     35          6           0       -7.285971   -2.502341    0.296925
     36          6           0       -6.811087   -3.810501    0.454804
     37          6           0       -5.381165   -3.586720    0.538528
     38          6           0       -5.162237   -2.204120    0.572554
     39          6           0       -7.516695   -5.091803    0.480126
     40          6           0       -4.165267   -4.284661    0.759018
     41          8           0       -4.071260   -5.534312    0.869423
     42          6           0       -3.039256   -3.238576    0.948672
     43          6           0       -2.042310   -3.562108   -0.112580
     44          8           0       -2.029686   -3.036471   -1.181833
     45          8           0       -1.080680   -4.458788    0.317059
     46          6           0        0.032764   -4.864718   -0.600912
     47          6           0        3.605336   -1.548902   -1.226877
     48          6           0        4.960633   -1.126591   -0.681325
     49          6           0        6.150102   -1.822400   -0.574140
     50          6           0        6.289528   -3.231939   -1.066129
     51          6           0        7.526011   -1.249893    0.025729
     52          6           0        8.475187   -0.619225   -1.020617
     53          6           0        8.860601    0.905206   -0.837504
     54          6           0       10.271675    1.029127   -0.192972
     55          6           0       10.265988    1.036030    1.357952
     56          6           0       10.964234    2.307287   -0.823862
     57          6           0       11.571393    1.957484   -2.159386
     58          6           0       13.114756    2.221175   -2.224951
     59          6           0       14.070543    1.008391   -2.318673
     60          6           0       14.984475    1.117170   -3.529625
     61          6           0       14.820344    0.698499   -1.070984
     62          6           0       13.914388    0.128092    0.016235
     63          6           0       14.637968   -0.468090    1.281671
     64          6           0       14.561593    0.433515    2.670077
     65          6           0       15.702059    1.412401    2.789679
     66          6           0       14.353939   -0.367326    3.948174
     67          1           0       -3.242127    3.641192    1.250539
     68          1           0       -9.532424    3.425353   -0.502264
     69          1           0       -9.317636   -2.976058   -0.112717
     70          1           0       -1.569111   -0.858660    1.998868
     71          1           0       -1.493235    2.056519    1.401029
     72          1           0       -2.204312    0.437486    3.884799
     73          1           0       -3.330801    1.700991    3.518007
     74          1           0       -1.738311    2.218869    3.813560
     75          1           0       -1.046182    0.897640   -0.503233
     76          1           0       -1.280444   -0.873876   -0.676340
     77          1           0        0.775489   -0.633818    1.234243
     78          1           0        1.026194    0.660582    0.129554
     79          1           0       -3.922628    5.690952    1.060240
     80          1           0       -5.318610    6.371221    1.729032
     81          1           0       -4.941416    6.591285    0.016835
     82          1           0       -6.882580    7.365283   -1.486115
     83          1           0       -7.026845    7.381564    0.313118
     84          1           0       -8.423524    7.739871   -0.692475
     85          1           0      -10.746095    1.396367   -1.625127
     86          1           0      -11.232381   -1.132718    0.007395
     87          1           0      -11.373616    1.298427    1.440210
     88          1           0      -12.613719    0.844527    0.348266
     89          1           0      -11.979572    2.485626    0.229085
     90          1           0      -10.044166   -1.646383   -2.597934
     91          1           0      -11.335560   -0.459327   -2.699932
     92          1           0      -12.518468   -2.295473   -3.124087
     93          1           0      -12.768939   -2.261655   -1.352688
     94          1           0      -11.558151   -3.311400   -1.926991
     95          1           0       -7.731945   -5.209810    1.542336
     96          1           0       -6.929241   -5.916516    0.075629
     97          1           0       -8.418477   -4.984048   -0.121897
     98          1           0       -2.671082   -3.456379    1.952129
     99          1           0        0.174465   -5.944521   -0.647249
    100          1           0        0.917661   -4.350767   -0.222409
    101          1           0       -0.306268   -4.550850   -1.588354
    102          1           0        3.455437   -1.023764   -2.170052
    103          1           0        3.442434   -2.626321   -1.216107
    104          1           0        4.995645   -0.097304   -0.323889
    105          1           0        7.108151   -3.329879   -1.777434
    106          1           0        5.437530   -3.569706   -1.657042
    107          1           0        6.475400   -3.973760   -0.289103
    108          1           0        8.000320   -2.031279    0.619069
    109          1           0        7.281478   -0.464031    0.741193
    110          1           0        7.933735   -0.617659   -1.966487
    111          1           0        9.364122   -1.244237   -1.105889
    112          1           0        8.013756    1.307576   -0.282330
    113          1           0        8.734277    1.350072   -1.825004
    114          1           0       10.948970    0.185654   -0.327280
    115          1           0       10.939917    0.320277    1.829145
    116          1           0        9.249606    0.810882    1.680810
    117          1           0       10.637949    1.957112    1.807521
    118          1           0       11.724735    2.626074   -0.111200
    119          1           0       10.393360    3.198032   -1.084090
    120          1           0       11.175273    2.596366   -2.948545
    121          1           0       11.344877    0.931217   -2.449033
    122          1           0       13.485959    2.798508   -1.377557
    123          1           0       13.187084    2.940388   -3.041094
    124          1           0       13.439922    0.132838   -2.479753
    125          1           0       14.841916    2.069270   -4.040798
    126          1           0       14.686978    0.361210   -4.256580
    127          1           0       16.042825    0.916285   -3.367023
    128          1           0       15.340069    1.553352   -0.636396
    129          1           0       15.477527   -0.161652   -1.199097
    130          1           0       13.203465   -0.637885   -0.294222
    131          1           0       13.385662    0.998133    0.404444
    132          1           0       15.714997   -0.482175    1.113567
    133          1           0       14.400560   -1.514491    1.471430
    134          1           0       13.785304    1.189040    2.550388
    135          1           0       15.598868    2.247054    2.096433
    136          1           0       16.653294    0.901401    2.641528
    137          1           0       15.919446    1.807422    3.782502
    138          1           0       15.190905   -0.457780    4.640422
    139          1           0       14.127460   -1.422393    3.797565
    140          1           0       13.615205    0.158966    4.551932
 ---------------------------------------------------------------------

 SCF Done:  E(RPBE1PBE) =  -3005.36058967     A.U. after   15 cycles

 Excitation energies and oscillator strengths:

 Excited State   1:      Singlet-A      1.8525 eV  669.26 nm  f=0.3446  <S**2>=0.000
     245 -> 248        0.18318
     246 -> 247        0.68908
     246 <- 247       -0.10153
 This state for optimization and/or second-order correction.
 Total Energy, E(TD-HF/TD-DFT) =  -3005.29250979
 Copying the excited state density for this state as the 1-particle RhoCI density.

 Excited State   2:      Singlet-A      2.2061 eV  562.02 nm  f=0.1601  <S**2>=0.000
     245 -> 247        0.66257
     246 -> 248       -0.23893

 Excited State   3:      Singlet-A      2.7606 eV  449.12 nm  f=0.0016  <S**2>=0.000
     243 -> 247       -0.10618
     244 -> 247        0.66897
     244 -> 249       -0.15651

 Excited State   4:      Singlet-A      3.0548 eV  405.87 nm  f=0.0003  <S**2>=0.000
     241 -> 247        0.66694
     241 -> 248        0.10141
     241 -> 249        0.14157

 Excited State   5:      Singlet-A      3.1389 eV  394.99 nm  f=0.0061  <S**2>=0.000
     240 -> 247       -0.20575
     243 -> 247        0.64848
     244 -> 247        0.11370

 The electronic state is 1-A.
 Alpha  occ. eigenvalues --  -46.90961 -19.25618 -19.23522 -19.20188 -19.18941
 Alpha  occ. eigenvalues --  -19.18910 -19.17877 -14.40957 -14.40594 -14.39562
 Alpha  occ. eigenvalues --  -14.38537 -10.35956 -10.35303 -10.31909 -10.30910
 Alpha  occ. eigenvalues --  -10.29787 -10.28354 -10.28305 -10.28111 -10.28006
 Alpha  occ. eigenvalues --  -10.27908 -10.27777 -10.27714 -10.27282 -10.26070
 Alpha  occ. eigenvalues --  -10.25971 -10.25970 -10.25955 -10.25892 -10.25834
 Alpha  occ. eigenvalues --  -10.25556 -10.25514 -10.25389 -10.25213 -10.24785
 Alpha  occ. eigenvalues --  -10.24611 -10.24559 -10.24470 -10.24086 -10.24000
 Alpha  occ. eigenvalues --  -10.23984 -10.23964 -10.23954 -10.23823 -10.23811
 Alpha  occ. eigenvalues --  -10.23692 -10.23573 -10.23532 -10.23232 -10.23196
 Alpha  occ. eigenvalues --  -10.23100 -10.23056 -10.23044 -10.22934 -10.22713
 Alpha  occ. eigenvalues --  -10.22547 -10.22535 -10.22117 -10.22108 -10.22001
 Alpha  occ. eigenvalues --  -10.21986 -10.21948 -10.21877 -10.21782 -10.21651
 Alpha  occ. eigenvalues --  -10.21264  -3.13367  -1.86197  -1.85726  -1.85644
 Alpha  occ. eigenvalues --   -1.12515  -1.09754  -1.05291  -1.03429  -1.01727
 Alpha  occ. eigenvalues --   -1.01521  -0.99892  -0.99183  -0.97597  -0.96682
 Alpha  occ. eigenvalues --   -0.86415  -0.84549  -0.83743  -0.83173  -0.83122
 Alpha  occ. eigenvalues --   -0.82575  -0.82275  -0.81863  -0.81494  -0.81413
 Alpha  occ. eigenvalues --   -0.81163  -0.79896  -0.78550  -0.77714  -0.77387
 Alpha  occ. eigenvalues --   -0.76692  -0.75885  -0.75478  -0.74870  -0.74406
 Alpha  occ. eigenvalues --   -0.74063  -0.72893  -0.72213  -0.71559  -0.70197
 Alpha  occ. eigenvalues --   -0.69888  -0.69849  -0.69773  -0.68897  -0.68560
 Alpha  occ. eigenvalues --   -0.67738  -0.67173  -0.66215  -0.64267  -0.63477
 Alpha  occ. eigenvalues --   -0.62798  -0.61963  -0.61492  -0.60700  -0.60226
 Alpha  occ. eigenvalues --   -0.59926  -0.59654  -0.59148  -0.58369  -0.58123
 Alpha  occ. eigenvalues --   -0.57780  -0.57617  -0.57206  -0.55368  -0.54506
 Alpha  occ. eigenvalues --   -0.54448  -0.53812  -0.53541  -0.52599  -0.52426
 Alpha  occ. eigenvalues --   -0.52210  -0.52038  -0.50670  -0.50488  -0.49595
 Alpha  occ. eigenvalues --   -0.49425  -0.49086  -0.48971  -0.48508  -0.48182
 Alpha  occ. eigenvalues --   -0.47990  -0.47711  -0.47481  -0.47138  -0.47031
 Alpha  occ. eigenvalues --   -0.46874  -0.46757  -0.46480  -0.46426  -0.46308
 Alpha  occ. eigenvalues --   -0.46123  -0.45928  -0.45541  -0.45397  -0.44973
 Alpha  occ. eigenvalues --   -0.44893  -0.44715  -0.44474  -0.44342  -0.44178
 Alpha  occ. eigenvalues --   -0.43871  -0.43774  -0.43672  -0.43413  -0.42942
 Alpha  occ. eigenvalues --   -0.42903  -0.42852  -0.42609  -0.42558  -0.42355
 Alpha  occ. eigenvalues --   -0.42137  -0.41861  -0.41618  -0.41546  -0.41243
 Alpha  occ. eigenvalues --   -0.41134  -0.40953  -0.40761  -0.40599  -0.40290
 Alpha  occ. eigenvalues --   -0.40054  -0.39998  -0.39833  -0.39462  -0.39443
 Alpha  occ. eigenvalues --   -0.39239  -0.39076  -0.38991  -0.38617  -0.38570
 Alpha  occ. eigenvalues --   -0.38310  -0.38186  -0.38057  -0.37753  -0.37583
 Alpha  occ. eigenvalues --   -0.37495  -0.37459  -0.37402  -0.37072  -0.36818
 Alpha  occ. eigenvalues --   -0.36730  -0.36358  -0.36259  -0.35782  -0.35453
 Alpha  occ. eigenvalues --   -0.35156  -0.35050  -0.35024  -0.34843  -0.34721
 Alpha  occ. eigenvalues --   -0.34385  -0.34298  -0.34211  -0.34087  -0.33970
 Alpha  occ. eigenvalues --   -0.33533  -0.33396  -0.33167  -0.33105  -0.32390
 Alpha  occ. eigenvalues --   -0.31836  -0.31474  -0.31360  -0.31211  -0.31203
 Alpha  occ. eigenvalues --   -0.30575  -0.30257  -0.29837  -0.29694  -0.28953
 Alpha  occ. eigenvalues --   -0.28503  -0.28393  -0.28110  -0.26968  -0.25834
 Alpha  occ. eigenvalues --   -0.25497  -0.25391  -0.25336  -0.24496  -0.20406
 Alpha  occ. eigenvalues --   -0.18716
 Alpha virt. eigenvalues --   -0.11026  -0.04902  -0.03641  -0.01731   0.00660
 Alpha virt. eigenvalues --    0.01357   0.01514   0.01880   0.02159   0.02760
 Alpha virt. eigenvalues --    0.04153   0.04815   0.05145   0.05362   0.05418

 Mulliken charges:
               1
     1  Mg   1.017357
     2  C   -0.048160
     3  C   -0.057475
     4  C   -0.039405
     5  C   -0.075027
     6  N   -0.378097
     7  C    0.056505
     8  C   -0.128873
     9  C   -0.095247
    10  C   -0.018102
    11  C    0.045807
    12  C    0.032774
    13  C   -0.034938
    14  C    0.214128
    15  O   -0.248835
    16  O   -0.362067
    17  N   -0.491559
    18  C    0.202224
    19  C   -0.157316
    20  C   -0.052649
    21  C    0.121786
    22  C    0.035964
    23  C    0.044611
    24  O   -0.235448
    25  C   -0.029446
    26  N   -0.322766
    27  C    0.010889
    28  C   -0.042687
    29  C   -0.117412
    30  C    0.056090
    31  C    0.020728
    32  C   -0.032712
    33  C   -0.074720
    34  N   -0.573757
    35  C    0.147924
    36  C   -0.187556
    37  C   -0.012635
    38  C    0.217660
    39  C    0.086057
    40  C    0.046338
    41  O   -0.260092
    42  C   -0.073124
    43  C    0.295615
    44  O   -0.218641
    45  O   -0.400311
    46  C    0.122174
    47  C    0.261593
    48  C   -0.129789
    49  C   -0.216849
    50  C    0.006385
    51  C    0.008190
    52  C   -0.057559
    53  C    0.005254
    54  C   -0.204020
    55  C   -0.015664
    56  C    0.007447
    57  C   -0.051019
    58  C   -0.013340
    59  C   -0.187575
    60  C    0.021561
    61  C   -0.004867
    62  C   -0.098472
    63  C   -0.002060
    64  C   -0.224654
    65  C   -0.038977
    66  C   -0.012569
    67  H   -0.008605
    68  H    0.019945
    69  H   -0.001330
    70  H    0.035037
    71  H    0.028568
    72  H    0.050093
    73  H    0.039408
    74  H    0.047639
    75  H    0.039676
    76  H    0.092685
    77  H    0.061491
    78  H    0.054587
    79  H    0.029145
    80  H    0.068189
    81  H    0.049600
    82  H    0.072145
    83  H    0.045877
    84  H    0.052167
    85  H    0.049814
    86  H    0.046382
    87  H    0.048514
    88  H    0.037637
    89  H    0.059085
    90  H    0.052312
    91  H    0.032340
    92  H    0.054972
    93  H    0.035345
    94  H    0.042450
    95  H    0.068515
    96  H    0.071617
    97  H    0.037631
    98  H    0.081400
    99  H    0.060263
   100  H    0.062015
   101  H    0.078046
   102  H    0.060369
   103  H    0.059490
   104  H    0.023895
   105  H    0.040760
   106  H    0.028360
   107  H    0.052729
   108  H    0.035275
   109  H    0.030179
   110  H    0.035942
   111  H    0.033523
   112  H    0.026437
   113  H    0.031556
   114  H    0.042041
   115  H    0.034466
   116  H    0.030832
   117  H    0.029276
   118  H    0.017546
   119  H    0.028981
   120  H    0.023227
   121  H    0.033088
   122  H    0.017968
   123  H    0.020123
   124  H    0.021833
   125  H    0.027062
   126  H    0.024447
   127  H    0.029570
   128  H    0.034210
   129  H    0.026646
   130  H    0.047208
   131  H    0.033866
   132  H    0.016619
   133  H    0.026420
   134  H    0.038430
   135  H    0.038633
   136  H    0.020926
   137  H    0.030955
   138  H    0.024790
   139  H    0.031188
   140  H    0.037884
 Sum of Mulliken charges =  -0.00000

 Dipole moment (field-independent basis, Debye):
    X=              2.7358    Y=              3.4269    Z=              1.7506  Tot=              4.7215
 Quadrupole moment (field-independent basis, Debye-Ang):
   XX=           -360.2493   YY=           -411.6410   ZZ=           -402.6408
   XY=              1.5063   XZ=             -3.1308   YZ=              8.0743

 Normal termination of Gaussian 16 at Thu May  5 06:28:58 2022.
