 Gaussian 16, Revision A.03,
 Gaussian 16:  ES64L-G16RevA.03 25-Dec-2016

 --------------------------------
 #p wB97XD/Def2SVP td=(nstates=5)
 --------------------------------

 ----------------------------------------------------
 step_701_chromophore_22 TDDFT with wB97XD functional
 ----------------------------------------------------
 Symbolic Z-matrix:
 Charge =  0 Multiplicity = 1

                         Standard orientation:
 ---------------------------------------------------------------------
 Center     Atomic      Atomic             Coordinates (Angstroms)
 Number     Number       Type             X           Y           Z
 ---------------------------------------------------------------------
      1         12           0       -6.292539    0.341242    0.266938
      2          6           0       -3.814570   -1.880192    0.792992
      3          6           0       -4.016613    2.918425    0.988067
      4          6           0       -8.779947    2.668662   -0.269316
      5          6           0       -8.636821   -2.127633   -0.017808
      6          7           0       -4.075418    0.516309    0.702873
      7          6           0       -3.273020   -0.588125    0.827410
      8          6           0       -1.864261   -0.123982    1.250110
      9          6           0       -2.158363    1.297267    1.813375
     10          6           0       -3.454368    1.659879    1.144074
     11          6           0       -2.295801    1.394249    3.369242
     12          6           0       -0.925445   -0.074997   -0.025854
     13          6           0        0.538802   -0.309923    0.220902
     14          6           0        1.378061   -1.171762   -0.703336
     15          8           0        1.018125   -1.894667   -1.608557
     16          8           0        2.649235   -0.943641   -0.317817
     17          7           0       -6.400435    2.404462    0.368835
     18          6           0       -5.342655    3.299554    0.537595
     19          6           0       -5.777145    4.650843    0.363523
     20          6           0       -7.066401    4.612875   -0.130022
     21          6           0       -7.466746    3.210582   -0.023456
     22          6           0       -4.972840    5.864600    0.827974
     23          6           0       -7.979669    5.722055   -0.591189
     24          8           0       -9.138342    5.600132   -0.943505
     25          6           0       -7.517113    7.138402   -0.629878
     26          7           0       -8.512710    0.298652    0.033103
     27          6           0       -9.272176    1.343623   -0.275005
     28          6           0      -10.684075    0.959633   -0.628035
     29          6           0      -10.625629   -0.578029   -0.708346
     30          6           0       -9.165647   -0.821755   -0.290265
     31          6           0      -11.706644    1.445466    0.413448
     32          6           0      -10.933398   -1.269750   -2.092428
     33          6           0      -12.032751   -2.355918   -2.150596
     34          7           0       -6.257833   -1.554900    0.305885
     35          6           0       -7.285971   -2.502341    0.296925
     36          6           0       -6.811087   -3.810501    0.454804
     37          6           0       -5.381165   -3.586720    0.538528
     38          6           0       -5.162237   -2.204120    0.572554
     39          6           0       -7.516695   -5.091803    0.480126
     40          6           0       -4.165267   -4.284661    0.759018
     41          8           0       -4.071260   -5.534312    0.869423
     42          6           0       -3.039256   -3.238576    0.948672
     43          6           0       -2.042310   -3.562108   -0.112580
     44          8           0       -2.029686   -3.036471   -1.181833
     45          8           0       -1.080680   -4.458788    0.317059
     46          6           0        0.032764   -4.864718   -0.600912
     47          6           0        3.605336   -1.548902   -1.226877
     48          6           0        4.960633   -1.126591   -0.681325
     49          6           0        6.150102   -1.822400   -0.574140
     50          6           0        6.289528   -3.231939   -1.066129
     51          6           0        7.526011   -1.249893    0.025729
     52          6           0        8.475187   -0.619225   -1.020617
     53          6           0        8.860601    0.905206   -0.837504
     54          6           0       10.271675    1.029127   -0.192972
     55          6           0       10.265988    1.036030    1.357952
     56          6           0       10.964234    2.307287   -0.823862
     57          6           0       11.571393    1.957484   -2.159386
     58          6           0       13.114756    2.221175   -2.224951
     59          6           0       14.070543    1.008391   -2.318673
     60          6           0       14.984475    1.117170   -3.529625
     61          6           0       14.820344    0.698499   -1.070984
     62          6           0       13.914388    0.128092    0.016235
     63          6           0       14.637968   -0.468090    1.281671
     64          6           0       14.561593    0.433515    2.670077
     65          6           0       15.702059    1.412401    2.789679
     66          6           0       14.353939   -0.367326    3.948174
     67          1           0       -3.242127    3.641192    1.250539
     68          1           0       -9.532424    3.425353   -0.502264
     69          1           0       -9.317636   -2.976058   -0.112717
     70          1           0       -1.569111   -0.858660    1.998868
     71          1           0       -1.493235    2.056519    1.401029
     72          1           0       -2.204312    0.437486    3.884799
     73          1           0       -3.330801    1.700991    3.518007
     74          1           0       -1.738311    2.218869    3.813560
     75          1           0       -1.046182    0.897640   -0.503233
     76          1           0       -1.280444   -0.873876   -0.676340
     77          1           0        0.775489   -0.633818    1.234243
     78          1           0        1.026194    0.660582    0.129554
     79          1           0       -3.922628    5.690952    1.060240
     80          1           0       -5.318610    6.371221    1.729032
     81          1           0       -4.941416    6.591285    0.016835
     82          1           0       -6.882580    7.365283   -1.486115
     83          1           0       -7.026845    7.381564    0.313118
     84          1           0       -8.423524    7.739871   -0.692475
     85          1           0      -10.746095    1.396367   -1.625127
     86          1           0      -11.232381   -1.132718    0.007395
     87          1           0      -11.373616    1.298427    1.440210
     88          1           0      -12.613719    0.844527    0.348266
     89          1           0      -11.979572    2.485626    0.229085
     90          1           0      -10.044166   -1.646383   -2.597934
     91          1           0      -11.335560   -0.459327   -2.699932
     92          1           0      -12.518468   -2.295473   -3.124087
     93          1           0      -12.768939   -2.261655   -1.352688
     94          1           0      -11.558151   -3.311400   -1.926991
     95          1           0       -7.731945   -5.209810    1.542336
     96          1           0       -6.929241   -5.916516    0.075629
     97          1           0       -8.418477   -4.984048   -0.121897
     98          1           0       -2.671082   -3.456379    1.952129
     99          1           0        0.174465   -5.944521   -0.647249
    100          1           0        0.917661   -4.350767   -0.222409
    101          1           0       -0.306268   -4.550850   -1.588354
    102          1           0        3.455437   -1.023764   -2.170052
    103          1           0        3.442434   -2.626321   -1.216107
    104          1           0        4.995645   -0.097304   -0.323889
    105          1           0        7.108151   -3.329879   -1.777434
    106          1           0        5.437530   -3.569706   -1.657042
    107          1           0        6.475400   -3.973760   -0.289103
    108          1           0        8.000320   -2.031279    0.619069
    109          1           0        7.281478   -0.464031    0.741193
    110          1           0        7.933735   -0.617659   -1.966487
    111          1           0        9.364122   -1.244237   -1.105889
    112          1           0        8.013756    1.307576   -0.282330
    113          1           0        8.734277    1.350072   -1.825004
    114          1           0       10.948970    0.185654   -0.327280
    115          1           0       10.939917    0.320277    1.829145
    116          1           0        9.249606    0.810882    1.680810
    117          1           0       10.637949    1.957112    1.807521
    118          1           0       11.724735    2.626074   -0.111200
    119          1           0       10.393360    3.198032   -1.084090
    120          1           0       11.175273    2.596366   -2.948545
    121          1           0       11.344877    0.931217   -2.449033
    122          1           0       13.485959    2.798508   -1.377557
    123          1           0       13.187084    2.940388   -3.041094
    124          1           0       13.439922    0.132838   -2.479753
    125          1           0       14.841916    2.069270   -4.040798
    126          1           0       14.686978    0.361210   -4.256580
    127          1           0       16.042825    0.916285   -3.367023
    128          1           0       15.340069    1.553352   -0.636396
    129          1           0       15.477527   -0.161652   -1.199097
    130          1           0       13.203465   -0.637885   -0.294222
    131          1           0       13.385662    0.998133    0.404444
    132          1           0       15.714997   -0.482175    1.113567
    133          1           0       14.400560   -1.514491    1.471430
    134          1           0       13.785304    1.189040    2.550388
    135          1           0       15.598868    2.247054    2.096433
    136          1           0       16.653294    0.901401    2.641528
    137          1           0       15.919446    1.807422    3.782502
    138          1           0       15.190905   -0.457780    4.640422
    139          1           0       14.127460   -1.422393    3.797565
    140          1           0       13.615205    0.158966    4.551932
 ---------------------------------------------------------------------

 SCF Done:  E(RwB97XD) =  -3007.86960774     A.U. after   17 cycles

 Excitation energies and oscillator strengths:

 Excited State   1:      Singlet-A      1.6338 eV  758.89 nm  f=0.3580  <S**2>=0.000
     245 -> 248       -0.19692
     246 -> 247        0.68055
     245 <- 248       -0.12094
 This state for optimization and/or second-order correction.
 Total Energy, E(TD-HF/TD-DFT) =  -3007.80956843
 Copying the excited state density for this state as the 1-particle RhoCI density.

 Excited State   2:      Singlet-A      2.1404 eV  579.25 nm  f=0.1627  <S**2>=0.000
     245 -> 247        0.65156
     246 -> 248        0.26308

 Excited State   3:      Singlet-A      3.3058 eV  375.05 nm  f=0.0048  <S**2>=0.000
     243 -> 247        0.19448
     243 -> 249        0.17906
     243 -> 250        0.14529
     244 -> 247        0.54863
     244 -> 249        0.24860
     244 -> 250        0.15525

 Excited State   4:      Singlet-A      3.5078 eV  353.45 nm  f=0.0188  <S**2>=0.000
     241 -> 247        0.37572
     243 -> 247        0.50545
     243 -> 249        0.11522
     244 -> 247       -0.22494

 Excited State   5:      Singlet-A      3.5832 eV  346.02 nm  f=0.1546  <S**2>=0.000
     240 -> 247       -0.36400
     240 -> 248        0.10449
     240 -> 249        0.19214
     240 -> 250       -0.13709
     241 -> 247       -0.23644
     243 -> 247        0.21627
     244 -> 247       -0.13755
     245 -> 247       -0.11265
     246 -> 248        0.37381

 The electronic state is 1-A.
 Alpha  occ. eigenvalues --  -46.93890 -19.30158 -19.28050 -19.24814 -19.23824
 Alpha  occ. eigenvalues --  -19.23608 -19.22538 -14.46167 -14.45536 -14.44578
 Alpha  occ. eigenvalues --  -14.43443 -10.42708 -10.42103 -10.38849 -10.37654
 Alpha  occ. eigenvalues --  -10.36284 -10.34623 -10.34519 -10.34484 -10.34478
 Alpha  occ. eigenvalues --  -10.34272 -10.34205 -10.34123 -10.33468 -10.32535
 Alpha  occ. eigenvalues --  -10.32358 -10.32304 -10.32239 -10.32187 -10.32078
 Alpha  occ. eigenvalues --  -10.31721 -10.31711 -10.31637 -10.31616 -10.31271
 Alpha  occ. eigenvalues --  -10.31132 -10.31054 -10.30876 -10.30476 -10.30390
 Alpha  occ. eigenvalues --  -10.30348 -10.30253 -10.30251 -10.30236 -10.30196
 Alpha  occ. eigenvalues --  -10.30097 -10.29930 -10.29907 -10.29636 -10.29557
 Alpha  occ. eigenvalues --  -10.29503 -10.29467 -10.29413 -10.29299 -10.29211
 Alpha  occ. eigenvalues --  -10.29004 -10.28939 -10.28512 -10.28449 -10.28361
 Alpha  occ. eigenvalues --  -10.28348 -10.28304 -10.28223 -10.28088 -10.28087
 Alpha  occ. eigenvalues --  -10.27690  -3.20135  -1.93717  -1.93248  -1.93161
 Alpha  occ. eigenvalues --   -1.19857  -1.17112  -1.12873  -1.10733  -1.09103
 Alpha  occ. eigenvalues --   -1.08843  -1.07258  -1.06479  -1.04991  -1.04122
 Alpha  occ. eigenvalues --   -0.93960  -0.92218  -0.91415  -0.90759  -0.90737
 Alpha  occ. eigenvalues --   -0.90178  -0.89936  -0.89551  -0.89140  -0.89018
 Alpha  occ. eigenvalues --   -0.88796  -0.87522  -0.86211  -0.85338  -0.85009
 Alpha  occ. eigenvalues --   -0.84343  -0.83571  -0.83213  -0.82563  -0.82059
 Alpha  occ. eigenvalues --   -0.81667  -0.80541  -0.79860  -0.79165  -0.77790
 Alpha  occ. eigenvalues --   -0.77576  -0.77488  -0.77428  -0.76573  -0.76216
 Alpha  occ. eigenvalues --   -0.75324  -0.74720  -0.73762  -0.71880  -0.71025
 Alpha  occ. eigenvalues --   -0.70349  -0.69580  -0.69021  -0.68343  -0.67733
 Alpha  occ. eigenvalues --   -0.67474  -0.67267  -0.66577  -0.65815  -0.65774
 Alpha  occ. eigenvalues --   -0.65421  -0.65085  -0.64847  -0.62757  -0.61990
 Alpha  occ. eigenvalues --   -0.61946  -0.61190  -0.60914  -0.59988  -0.59830
 Alpha  occ. eigenvalues --   -0.59726  -0.59495  -0.58122  -0.57884  -0.56992
 Alpha  occ. eigenvalues --   -0.56826  -0.56483  -0.56407  -0.55930  -0.55581
 Alpha  occ. eigenvalues --   -0.55407  -0.55045  -0.54830  -0.54566  -0.54450
 Alpha  occ. eigenvalues --   -0.54266  -0.54180  -0.53877  -0.53814  -0.53703
 Alpha  occ. eigenvalues --   -0.53531  -0.53309  -0.52845  -0.52712  -0.52251
 Alpha  occ. eigenvalues --   -0.52212  -0.52026  -0.51764  -0.51756  -0.51515
 Alpha  occ. eigenvalues --   -0.51229  -0.51109  -0.50963  -0.50734  -0.50338
 Alpha  occ. eigenvalues --   -0.50216  -0.50100  -0.49873  -0.49864  -0.49650
 Alpha  occ. eigenvalues --   -0.49395  -0.49111  -0.48947  -0.48759  -0.48459
 Alpha  occ. eigenvalues --   -0.48363  -0.48176  -0.47947  -0.47734  -0.47412
 Alpha  occ. eigenvalues --   -0.47288  -0.47114  -0.47041  -0.46585  -0.46576
 Alpha  occ. eigenvalues --   -0.46373  -0.46198  -0.46074  -0.45796  -0.45718
 Alpha  occ. eigenvalues --   -0.45484  -0.45373  -0.45180  -0.44895  -0.44724
 Alpha  occ. eigenvalues --   -0.44633  -0.44558  -0.44520  -0.44176  -0.44079
 Alpha  occ. eigenvalues --   -0.43860  -0.43488  -0.43359  -0.42807  -0.42492
 Alpha  occ. eigenvalues --   -0.42155  -0.42126  -0.42030  -0.41941  -0.41683
 Alpha  occ. eigenvalues --   -0.41481  -0.41351  -0.41268  -0.41071  -0.40994
 Alpha  occ. eigenvalues --   -0.40596  -0.40430  -0.40127  -0.40081  -0.39461
 Alpha  occ. eigenvalues --   -0.38859  -0.38490  -0.38385  -0.38208  -0.38145
 Alpha  occ. eigenvalues --   -0.37535  -0.37293  -0.36768  -0.36506  -0.36025
 Alpha  occ. eigenvalues --   -0.35375  -0.35300  -0.34943  -0.33624  -0.32753
 Alpha  occ. eigenvalues --   -0.32410  -0.32117  -0.31922  -0.31365  -0.25291
 Alpha  occ. eigenvalues --   -0.22940
 Alpha virt. eigenvalues --   -0.06960   0.00556   0.02628   0.04771   0.07245
 Alpha virt. eigenvalues --    0.07351   0.08165   0.08671   0.08933   0.09022
 Alpha virt. eigenvalues --    0.10948   0.11404   0.11991   0.12034   0.12208

 Mulliken charges:
               1
     1  Mg   1.004896
     2  C   -0.058434
     3  C   -0.078858
     4  C   -0.055427
     5  C   -0.090677
     6  N   -0.349716
     7  C    0.020734
     8  C   -0.102118
     9  C   -0.066990
    10  C   -0.025530
    11  C    0.053394
    12  C    0.048408
    13  C   -0.021121
    14  C    0.203000
    15  O   -0.244429
    16  O   -0.361343
    17  N   -0.462372
    18  C    0.201130
    19  C   -0.150181
    20  C   -0.043466
    21  C    0.112663
    22  C    0.046947
    23  C    0.041556
    24  O   -0.229272
    25  C   -0.019055
    26  N   -0.286991
    27  C   -0.004138
    28  C   -0.013936
    29  C   -0.092775
    30  C    0.041707
    31  C    0.029241
    32  C   -0.021110
    33  C   -0.057317
    34  N   -0.532840
    35  C    0.140698
    36  C   -0.179536
    37  C   -0.015392
    38  C    0.207124
    39  C    0.097121
    40  C    0.027379
    41  O   -0.251602
    42  C   -0.034318
    43  C    0.270206
    44  O   -0.211389
    45  O   -0.399296
    46  C    0.138155
    47  C    0.276217
    48  C   -0.139116
    49  C   -0.200684
    50  C    0.017802
    51  C    0.026555
    52  C   -0.042920
    53  C    0.018803
    54  C   -0.162899
    55  C   -0.002734
    56  C    0.023846
    57  C   -0.034960
    58  C    0.000028
    59  C   -0.155833
    60  C    0.031792
    61  C    0.015185
    62  C   -0.067926
    63  C    0.009674
    64  C   -0.190809
    65  C   -0.028550
    66  C   -0.002263
    67  H   -0.016976
    68  H    0.015049
    69  H   -0.008928
    70  H    0.023651
    71  H    0.018080
    72  H    0.045676
    73  H    0.031494
    74  H    0.043383
    75  H    0.032333
    76  H    0.077842
    77  H    0.055680
    78  H    0.047915
    79  H    0.025694
    80  H    0.064466
    81  H    0.043176
    82  H    0.069274
    83  H    0.039946
    84  H    0.050937
    85  H    0.040433
    86  H    0.034532
    87  H    0.043182
    88  H    0.031471
    89  H    0.054342
    90  H    0.045103
    91  H    0.022716
    92  H    0.050230
    93  H    0.028466
    94  H    0.035481
    95  H    0.063486
    96  H    0.069038
    97  H    0.031345
    98  H    0.076605
    99  H    0.057072
   100  H    0.056755
   101  H    0.074799
   102  H    0.055848
   103  H    0.053109
   104  H    0.020789
   105  H    0.034521
   106  H    0.022085
   107  H    0.047915
   108  H    0.029326
   109  H    0.019009
   110  H    0.026316
   111  H    0.025995
   112  H    0.016710
   113  H    0.024252
   114  H    0.018226
   115  H    0.028110
   116  H    0.022560
   117  H    0.023585
   118  H    0.006225
   119  H    0.022652
   120  H    0.016400
   121  H    0.020857
   122  H    0.006686
   123  H    0.012358
   124  H    0.006816
   125  H    0.020662
   126  H    0.018967
   127  H    0.024703
   128  H    0.024603
   129  H    0.016695
   130  H    0.039811
   131  H    0.005013
   132  H    0.004968
   133  H    0.020179
   134  H    0.025502
   135  H    0.033167
   136  H    0.013223
   137  H    0.025612
   138  H    0.018833
   139  H    0.025522
   140  H    0.032502
 Sum of Mulliken charges =  -0.00000

 Dipole moment (field-independent basis, Debye):
    X=              2.7365    Y=              3.7414    Z=              1.7456  Tot=              4.9532
 Quadrupole moment (field-independent basis, Debye-Ang):
   XX=           -359.9519   YY=           -409.6153   ZZ=           -402.3187
   XY=             -0.9441   XZ=             -3.1688   YZ=              7.9814

 Normal termination of Gaussian 16 at Thu May  5 07:09:07 2022.
