 Gaussian 16, Revision A.03,
 Gaussian 16:  ES64L-G16RevA.03 25-Dec-2016

 --------------------
 #p ZINDO=(nstates=5)
 --------------------

 -----------------------------
 step_701_chromophore_22 ZINDO
 -----------------------------
 Symbolic Z-matrix:
 Charge =  0 Multiplicity = 1

                         Standard orientation:
 ---------------------------------------------------------------------
 Center     Atomic      Atomic             Coordinates (Angstroms)
 Number     Number       Type             X           Y           Z
 ---------------------------------------------------------------------
      1         12           0       -6.292539    0.341242    0.266938
      2          6           0       -3.814570   -1.880192    0.792992
      3          6           0       -4.016613    2.918425    0.988067
      4          6           0       -8.779947    2.668662   -0.269316
      5          6           0       -8.636821   -2.127633   -0.017808
      6          7           0       -4.075418    0.516309    0.702873
      7          6           0       -3.273020   -0.588125    0.827410
      8          6           0       -1.864261   -0.123982    1.250110
      9          6           0       -2.158363    1.297267    1.813375
     10          6           0       -3.454368    1.659879    1.144074
     11          6           0       -2.295801    1.394249    3.369242
     12          6           0       -0.925445   -0.074997   -0.025854
     13          6           0        0.538802   -0.309923    0.220902
     14          6           0        1.378061   -1.171762   -0.703336
     15          8           0        1.018125   -1.894667   -1.608557
     16          8           0        2.649235   -0.943641   -0.317817
     17          7           0       -6.400435    2.404462    0.368835
     18          6           0       -5.342655    3.299554    0.537595
     19          6           0       -5.777145    4.650843    0.363523
     20          6           0       -7.066401    4.612875   -0.130022
     21          6           0       -7.466746    3.210582   -0.023456
     22          6           0       -4.972840    5.864600    0.827974
     23          6           0       -7.979669    5.722055   -0.591189
     24          8           0       -9.138342    5.600132   -0.943505
     25          6           0       -7.517113    7.138402   -0.629878
     26          7           0       -8.512710    0.298652    0.033103
     27          6           0       -9.272176    1.343623   -0.275005
     28          6           0      -10.684075    0.959633   -0.628035
     29          6           0      -10.625629   -0.578029   -0.708346
     30          6           0       -9.165647   -0.821755   -0.290265
     31          6           0      -11.706644    1.445466    0.413448
     32          6           0      -10.933398   -1.269750   -2.092428
     33          6           0      -12.032751   -2.355918   -2.150596
     34          7           0       -6.257833   -1.554900    0.305885
     35          6           0       -7.285971   -2.502341    0.296925
     36          6           0       -6.811087   -3.810501    0.454804
     37          6           0       -5.381165   -3.586720    0.538528
     38          6           0       -5.162237   -2.204120    0.572554
     39          6           0       -7.516695   -5.091803    0.480126
     40          6           0       -4.165267   -4.284661    0.759018
     41          8           0       -4.071260   -5.534312    0.869423
     42          6           0       -3.039256   -3.238576    0.948672
     43          6           0       -2.042310   -3.562108   -0.112580
     44          8           0       -2.029686   -3.036471   -1.181833
     45          8           0       -1.080680   -4.458788    0.317059
     46          6           0        0.032764   -4.864718   -0.600912
     47          6           0        3.605336   -1.548902   -1.226877
     48          6           0        4.960633   -1.126591   -0.681325
     49          6           0        6.150102   -1.822400   -0.574140
     50          6           0        6.289528   -3.231939   -1.066129
     51          6           0        7.526011   -1.249893    0.025729
     52          6           0        8.475187   -0.619225   -1.020617
     53          6           0        8.860601    0.905206   -0.837504
     54          6           0       10.271675    1.029127   -0.192972
     55          6           0       10.265988    1.036030    1.357952
     56          6           0       10.964234    2.307287   -0.823862
     57          6           0       11.571393    1.957484   -2.159386
     58          6           0       13.114756    2.221175   -2.224951
     59          6           0       14.070543    1.008391   -2.318673
     60          6           0       14.984475    1.117170   -3.529625
     61          6           0       14.820344    0.698499   -1.070984
     62          6           0       13.914388    0.128092    0.016235
     63          6           0       14.637968   -0.468090    1.281671
     64          6           0       14.561593    0.433515    2.670077
     65          6           0       15.702059    1.412401    2.789679
     66          6           0       14.353939   -0.367326    3.948174
     67          1           0       -3.242127    3.641192    1.250539
     68          1           0       -9.532424    3.425353   -0.502264
     69          1           0       -9.317636   -2.976058   -0.112717
     70          1           0       -1.569111   -0.858660    1.998868
     71          1           0       -1.493235    2.056519    1.401029
     72          1           0       -2.204312    0.437486    3.884799
     73          1           0       -3.330801    1.700991    3.518007
     74          1           0       -1.738311    2.218869    3.813560
     75          1           0       -1.046182    0.897640   -0.503233
     76          1           0       -1.280444   -0.873876   -0.676340
     77          1           0        0.775489   -0.633818    1.234243
     78          1           0        1.026194    0.660582    0.129554
     79          1           0       -3.922628    5.690952    1.060240
     80          1           0       -5.318610    6.371221    1.729032
     81          1           0       -4.941416    6.591285    0.016835
     82          1           0       -6.882580    7.365283   -1.486115
     83          1           0       -7.026845    7.381564    0.313118
     84          1           0       -8.423524    7.739871   -0.692475
     85          1           0      -10.746095    1.396367   -1.625127
     86          1           0      -11.232381   -1.132718    0.007395
     87          1           0      -11.373616    1.298427    1.440210
     88          1           0      -12.613719    0.844527    0.348266
     89          1           0      -11.979572    2.485626    0.229085
     90          1           0      -10.044166   -1.646383   -2.597934
     91          1           0      -11.335560   -0.459327   -2.699932
     92          1           0      -12.518468   -2.295473   -3.124087
     93          1           0      -12.768939   -2.261655   -1.352688
     94          1           0      -11.558151   -3.311400   -1.926991
     95          1           0       -7.731945   -5.209810    1.542336
     96          1           0       -6.929241   -5.916516    0.075629
     97          1           0       -8.418477   -4.984048   -0.121897
     98          1           0       -2.671082   -3.456379    1.952129
     99          1           0        0.174465   -5.944521   -0.647249
    100          1           0        0.917661   -4.350767   -0.222409
    101          1           0       -0.306268   -4.550850   -1.588354
    102          1           0        3.455437   -1.023764   -2.170052
    103          1           0        3.442434   -2.626321   -1.216107
    104          1           0        4.995645   -0.097304   -0.323889
    105          1           0        7.108151   -3.329879   -1.777434
    106          1           0        5.437530   -3.569706   -1.657042
    107          1           0        6.475400   -3.973760   -0.289103
    108          1           0        8.000320   -2.031279    0.619069
    109          1           0        7.281478   -0.464031    0.741193
    110          1           0        7.933735   -0.617659   -1.966487
    111          1           0        9.364122   -1.244237   -1.105889
    112          1           0        8.013756    1.307576   -0.282330
    113          1           0        8.734277    1.350072   -1.825004
    114          1           0       10.948970    0.185654   -0.327280
    115          1           0       10.939917    0.320277    1.829145
    116          1           0        9.249606    0.810882    1.680810
    117          1           0       10.637949    1.957112    1.807521
    118          1           0       11.724735    2.626074   -0.111200
    119          1           0       10.393360    3.198032   -1.084090
    120          1           0       11.175273    2.596366   -2.948545
    121          1           0       11.344877    0.931217   -2.449033
    122          1           0       13.485959    2.798508   -1.377557
    123          1           0       13.187084    2.940388   -3.041094
    124          1           0       13.439922    0.132838   -2.479753
    125          1           0       14.841916    2.069270   -4.040798
    126          1           0       14.686978    0.361210   -4.256580
    127          1           0       16.042825    0.916285   -3.367023
    128          1           0       15.340069    1.553352   -0.636396
    129          1           0       15.477527   -0.161652   -1.199097
    130          1           0       13.203465   -0.637885   -0.294222
    131          1           0       13.385662    0.998133    0.404444
    132          1           0       15.714997   -0.482175    1.113567
    133          1           0       14.400560   -1.514491    1.471430
    134          1           0       13.785304    1.189040    2.550388
    135          1           0       15.598868    2.247054    2.096433
    136          1           0       16.653294    0.901401    2.641528
    137          1           0       15.919446    1.807422    3.782502
    138          1           0       15.190905   -0.457780    4.640422
    139          1           0       14.127460   -1.422393    3.797565
    140          1           0       13.615205    0.158966    4.551932
 ---------------------------------------------------------------------

 SCF Done:  E(RZINDO/S) =  -474.459863174     A.U. after   20 cycles

 Excitation energies and oscillator strengths:

 Excited State   1:      Singlet-A      1.2399 eV  999.97 nm  f=0.5720  <S**2>=0.000
     175 ->178        -0.19527
     176 ->177         0.66153
 This state for optimization and/or second-order correction.
 Total Energy, E(CIS/TDA) =  -474.414298434
 Copying the excited state density for this state as the 1-particle RhoCI density.

 Excited State   2:      Singlet-A      1.9232 eV  644.68 nm  f=0.0968  <S**2>=0.000
     175 ->177         0.57252
     176 ->178         0.38742

 Excited State   3:      Singlet-A      2.8347 eV  437.38 nm  f=0.0003  <S**2>=0.000
     168 ->177         0.31049
     168 ->178        -0.15565
     168 ->179        -0.36875
     168 ->180        -0.32551
     168 ->184        -0.12689
     168 ->186        -0.18638
     168 ->195         0.11322

 Excited State   4:      Singlet-A      2.8912 eV  428.84 nm  f=0.0139  <S**2>=0.000
     171 ->177         0.30819
     171 ->179         0.33494
     171 ->180        -0.30431
     171 ->186         0.15743
     171 ->187        -0.12173
     174 ->177         0.18904
     174 ->179         0.11001
     176 ->179         0.12187

 Excited State   5:      Singlet-A      3.0269 eV  409.61 nm  f=1.1272  <S**2>=0.000
     175 ->177        -0.35112
     176 ->178         0.53796
     176 ->179         0.21324

 The electronic state is 1-A.
 Alpha  occ. eigenvalues --   -1.86667  -1.82198  -1.80807  -1.76429  -1.72411
 Alpha  occ. eigenvalues --   -1.70609  -1.66732  -1.61206  -1.58561  -1.56449
 Alpha  occ. eigenvalues --   -1.53385  -1.50582  -1.47868  -1.47337  -1.46479
 Alpha  occ. eigenvalues --   -1.44060  -1.41902  -1.39412  -1.38569  -1.38312
 Alpha  occ. eigenvalues --   -1.35862  -1.34394  -1.33986  -1.32471  -1.28451
 Alpha  occ. eigenvalues --   -1.28109  -1.23747  -1.22447  -1.20866  -1.18023
 Alpha  occ. eigenvalues --   -1.16812  -1.15380  -1.14959  -1.14623  -1.12719
 Alpha  occ. eigenvalues --   -1.12655  -1.11812  -1.10194  -1.06088  -1.03270
 Alpha  occ. eigenvalues --   -1.02705  -1.01790  -0.98451  -0.96719  -0.95609
 Alpha  occ. eigenvalues --   -0.95067  -0.94692  -0.94404  -0.92990  -0.92650
 Alpha  occ. eigenvalues --   -0.90682  -0.89982  -0.89717  -0.88402  -0.88075
 Alpha  occ. eigenvalues --   -0.85983  -0.83207  -0.82515  -0.81685  -0.80428
 Alpha  occ. eigenvalues --   -0.79066  -0.77978  -0.76366  -0.75872  -0.75484
 Alpha  occ. eigenvalues --   -0.75159  -0.74924  -0.74522  -0.74352  -0.73418
 Alpha  occ. eigenvalues --   -0.72326  -0.72120  -0.71667  -0.71211  -0.70848
 Alpha  occ. eigenvalues --   -0.70525  -0.70201  -0.69097  -0.68709  -0.67601
 Alpha  occ. eigenvalues --   -0.67505  -0.66812  -0.66163  -0.66147  -0.65644
 Alpha  occ. eigenvalues --   -0.65267  -0.64675  -0.64017  -0.63881  -0.63728
 Alpha  occ. eigenvalues --   -0.63506  -0.62604  -0.62360  -0.62182  -0.61773
 Alpha  occ. eigenvalues --   -0.61632  -0.61201  -0.60890  -0.60817  -0.60427
 Alpha  occ. eigenvalues --   -0.59833  -0.58988  -0.58711  -0.58346  -0.57965
 Alpha  occ. eigenvalues --   -0.57840  -0.57515  -0.56864  -0.56535  -0.55925
 Alpha  occ. eigenvalues --   -0.55704  -0.55597  -0.55251  -0.54885  -0.54392
 Alpha  occ. eigenvalues --   -0.54174  -0.53880  -0.53406  -0.53119  -0.52779
 Alpha  occ. eigenvalues --   -0.52354  -0.52208  -0.52189  -0.51759  -0.51138
 Alpha  occ. eigenvalues --   -0.50927  -0.50677  -0.50312  -0.50068  -0.49839
 Alpha  occ. eigenvalues --   -0.49412  -0.49316  -0.48987  -0.48656  -0.48436
 Alpha  occ. eigenvalues --   -0.48086  -0.47961  -0.47662  -0.47371  -0.47226
 Alpha  occ. eigenvalues --   -0.47121  -0.46927  -0.46765  -0.46577  -0.46427
 Alpha  occ. eigenvalues --   -0.46162  -0.46013  -0.45753  -0.45411  -0.45105
 Alpha  occ. eigenvalues --   -0.45007  -0.44577  -0.44070  -0.43814  -0.43659
 Alpha  occ. eigenvalues --   -0.43463  -0.43204  -0.42835  -0.42434  -0.42303
 Alpha  occ. eigenvalues --   -0.41470  -0.40955  -0.40237  -0.38500  -0.38142
 Alpha  occ. eigenvalues --   -0.37329  -0.36902  -0.35226  -0.34305  -0.33843
 Alpha  occ. eigenvalues --   -0.33448  -0.32167  -0.32086  -0.31273  -0.26041
 Alpha  occ. eigenvalues --   -0.21711
 Alpha virt. eigenvalues --   -0.08404  -0.01634  -0.00243   0.01592   0.02805
 Alpha virt. eigenvalues --    0.03246   0.03773   0.04108   0.04435   0.05500
 Alpha virt. eigenvalues --    0.06808   0.07000   0.07150   0.08033   0.08536

 Mulliken charges:
               1
     1  Mg   0.429454
     2  C   -0.058326
     3  C   -0.103026
     4  C   -0.070215
     5  C   -0.064200
     6  N   -0.318824
     7  C    0.125181
     8  C    0.004008
     9  C    0.012608
    10  C    0.154736
    11  C   -0.052801
    12  C   -0.023396
    13  C    0.005244
    14  C    0.470492
    15  O   -0.506525
    16  O   -0.272950
    17  N   -0.329274
    18  C    0.127934
    19  C    0.019722
    20  C   -0.026110
    21  C    0.127555
    22  C   -0.045232
    23  C    0.331392
    24  O   -0.516850
    25  C   -0.030983
    26  N   -0.250427
    27  C    0.148950
    28  C    0.018597
    29  C    0.001007
    30  C    0.095405
    31  C   -0.042464
    32  C   -0.035623
    33  C   -0.057535
    34  N   -0.307328
    35  C    0.067359
    36  C    0.042687
    37  C   -0.081937
    38  C    0.146916
    39  C   -0.030374
    40  C    0.322434
    41  O   -0.564065
    42  C    0.054365
    43  C    0.496727
    44  O   -0.510846
    45  O   -0.289743
    46  C    0.072618
    47  C    0.111614
    48  C   -0.090130
    49  C   -0.017260
    50  C   -0.042945
    51  C   -0.021966
    52  C   -0.039280
    53  C   -0.032086
    54  C   -0.007864
    55  C   -0.064169
    56  C   -0.038268
    57  C   -0.036466
    58  C   -0.040871
    59  C    0.001560
    60  C   -0.059471
    61  C   -0.021036
    62  C   -0.041624
    63  C   -0.051424
    64  C   -0.011859
    65  C   -0.053552
    66  C   -0.053519
    67  H    0.020978
    68  H    0.040480
    69  H    0.025605
    70  H    0.030314
    71  H    0.026297
    72  H    0.031437
    73  H    0.018731
    74  H    0.026772
    75  H    0.028050
    76  H    0.050798
    77  H    0.040510
    78  H    0.030276
    79  H    0.019601
    80  H    0.034692
    81  H    0.022445
    82  H    0.043791
    83  H    0.027560
    84  H    0.035683
    85  H    0.042211
    86  H    0.034345
    87  H    0.027825
    88  H    0.014205
    89  H    0.025879
    90  H    0.030383
    91  H    0.009763
    92  H    0.026981
    93  H    0.017572
    94  H    0.019213
    95  H    0.041098
    96  H    0.043708
    97  H    0.021950
    98  H    0.059292
    99  H    0.040202
   100  H    0.042267
   101  H    0.057722
   102  H    0.055672
   103  H    0.060471
   104  H    0.025652
   105  H    0.021353
   106  H    0.015619
   107  H    0.029389
   108  H    0.024458
   109  H    0.016392
   110  H    0.015162
   111  H    0.022129
   112  H    0.025758
   113  H    0.020222
   114  H    0.033101
   115  H    0.015857
   116  H    0.018512
   117  H    0.018212
   118  H    0.014789
   119  H    0.026737
   120  H    0.012217
   121  H    0.020989
   122  H    0.014684
   123  H    0.014125
   124  H    0.015276
   125  H    0.018988
   126  H    0.009504
   127  H    0.020482
   128  H    0.026825
   129  H    0.016255
   130  H    0.025110
   131  H    0.015305
   132  H    0.012540
   133  H    0.023401
   134  H    0.018538
   135  H    0.016781
   136  H    0.008727
   137  H    0.015098
   138  H    0.015121
   139  H    0.019079
   140  H    0.017114
 Sum of Mulliken charges =   0.00000

 Dipole moment (field-independent basis, Debye):
    X=              3.1526    Y=              7.4026    Z=              4.1350  Tot=              9.0463
 N-N= 4.212368859568D+03 E-N= 0.000000000000D+00  KE=-9.100000925059D+03
 Leave Link  601 at Thu May  5 07:24:34 2022, MaxMem=  6710886400 cpu:               2.0 elap:               0.1
 (Enter /sw/apps/gaussian-16.0/g16/l9999.exe)
 1\1\GINC-BP1-COMPUTE176\SP\RZINDO CIS\STO-3G\C55H74Mg1N4O6\OF15641\05-
 May-2022\0\\#p ZINDO=(nstates=5)\\step_701_chromophore_22 ZINDO\\0,1\M
 g,0,8.478,48.047,25.309\C,0,6.479,48.244,28.014\C,0,11.206,48.839,27.3
 76\C,0,10.582,47.849,22.584\C,0,5.818,47.702,23.193\N,0,8.838,48.364,2
 7.524\C,0,7.812,48.351,28.433\C,0,8.38,48.726,29.817\C,0,9.719,49.419,
 29.429\C,0,10.001,48.859,28.063\C,0,9.685,50.983,29.387\C,0,8.617,47.4
 05,30.66\C,0,8.51,47.545,32.153\C,0,7.807,46.506,33.006\O,0,7.122,45.5

 Normal termination of Gaussian 16 at Thu May  5 07:24:34 2022.
