 Gaussian 16, Revision A.03,
 Gaussian 16:  ES64L-G16RevA.03 25-Dec-2016

 ------------------------------
 #p blyp/Def2SVP td=(nstates=5)
 ------------------------------

 ---------------------------------------------------
 step_1701_chromophore_25 TDDFT with blyp functional
 ---------------------------------------------------
 Symbolic Z-matrix:
 Charge =  0 Multiplicity = 1

                         Standard orientation:
 ---------------------------------------------------------------------
 Center     Atomic      Atomic             Coordinates (Angstroms)
 Number     Number       Type             X           Y           Z
 ---------------------------------------------------------------------
      1         12           0        5.850210    0.371737    0.024071
      2          6           0        3.544355   -2.218650   -0.006032
      3          6           0        3.312393    2.677691   -0.203506
      4          6           0        8.145959    2.662405   -0.527695
      5          6           0        8.459357   -1.982445    0.283836
      6          7           0        3.750971    0.132123   -0.097069
      7          6           0        2.971662   -0.946375   -0.101633
      8          6           0        1.471075   -0.611063   -0.041750
      9          6           0        1.513258    0.957092   -0.092593
     10          6           0        2.929697    1.315158   -0.188991
     11          6           0        0.714973    1.566269   -1.223044
     12          6           0        0.737250   -1.026047    1.226211
     13          6           0       -0.396757   -2.075705    1.167358
     14          6           0       -1.851082   -1.786020    1.651799
     15          8           0       -2.189860   -1.792102    2.845475
     16          8           0       -2.716833   -1.497868    0.605789
     17          7           0        5.704110    2.395707   -0.099459
     18          6           0        4.627933    3.222172   -0.223053
     19          6           0        5.006805    4.578717   -0.173385
     20          6           0        6.441637    4.585870   -0.226438
     21          6           0        6.869557    3.139197   -0.373794
     22          6           0        3.927146    5.745406    0.065545
     23          6           0        7.459737    5.780209   -0.003505
     24          8           0        8.719667    5.697576    0.007892
     25          6           0        6.933757    7.161792    0.255739
     26          7           0        7.962243    0.333064   -0.095809
     27          6           0        8.634688    1.380181   -0.461846
     28          6           0       10.143195    1.137022   -0.382501
     29          6           0       10.187854   -0.223384    0.219388
     30          6           0        8.816236   -0.651583    0.210359
     31          6           0       10.663998    1.279107   -1.834119
     32          6           0       11.033439   -0.526392    1.604130
     33          6           0       10.280120   -0.216330    2.934945
     34          7           0        6.013931   -1.685547    0.001254
     35          6           0        7.131645   -2.463900    0.277471
     36          6           0        6.724940   -3.895911    0.293500
     37          6           0        5.294632   -3.814411    0.219140
     38          6           0        4.927727   -2.485667    0.118989
     39          6           0        7.616876   -5.050715    0.349730
     40          6           0        4.063450   -4.618483    0.225024
     41          8           0        3.822458   -5.821033    0.291419
     42          6           0        2.974322   -3.569020    0.035150
     43          6           0        2.299908   -3.821720   -1.202409
     44          8           0        2.681201   -3.675297   -2.344919
     45          8           0        1.074294   -4.298859   -0.892271
     46          6           0        0.408829   -5.040004   -1.956478
     47          6           0       -4.099160   -1.227537    1.061739
     48          6           0       -4.976990   -1.048980   -0.184813
     49          6           0       -6.280847   -0.626144   -0.242261
     50          6           0       -7.020769   -0.131754    0.897930
     51          6           0       -7.037885   -0.698347   -1.535317
     52          6           0       -7.105279    0.503242   -2.483572
     53          6           0       -8.496742    1.155580   -2.528394
     54          6           0       -9.510240    0.791018   -3.550559
     55          6           0       -9.954191    1.903958   -4.496097
     56          6           0      -10.815807    0.176041   -2.991590
     57          6           0      -11.443888    0.933598   -1.818548
     58          6           0      -13.004310    0.711260   -1.678958
     59          6           0      -13.509067   -0.012935   -0.362101
     60          6           0      -14.776328   -0.864210   -0.644806
     61          6           0      -13.917450    1.000114    0.763342
     62          6           0      -13.802693    0.471267    2.231756
     63          6           0      -13.088643    1.386418    3.259750
     64          6           0      -11.648542    0.805471    3.745814
     65          6           0      -11.275915    1.473190    5.144183
     66          6           0      -10.490666    1.087422    2.688011
     67          1           0        2.551244    3.460650   -0.219611
     68          1           0        8.908220    3.429737   -0.676200
     69          1           0        9.264169   -2.699720    0.453864
     70          1           0        0.929917   -1.004860   -0.901991
     71          1           0        1.187103    1.412801    0.841881
     72          1           0        1.353816    1.916217   -2.033795
     73          1           0        0.236426    2.485488   -0.887572
     74          1           0       -0.129512    0.938345   -1.508725
     75          1           0        0.384809   -0.192249    1.834957
     76          1           0        1.411402   -1.574597    1.883604
     77          1           0       -0.079881   -2.958247    1.722964
     78          1           0       -0.495601   -2.439463    0.144304
     79          1           0        3.898014    6.443452   -0.770968
     80          1           0        4.421227    6.183521    0.932974
     81          1           0        2.899292    5.469623    0.300334
     82          1           0        6.512127    7.237837    1.257714
     83          1           0        6.260091    7.423994   -0.561179
     84          1           0        7.743562    7.889298    0.198664
     85          1           0       10.647812    1.886649    0.228190
     86          1           0       10.479612   -0.802544   -0.656968
     87          1           0        9.794371    1.190342   -2.486210
     88          1           0       11.333982    0.497497   -2.191326
     89          1           0       11.245201    2.200540   -1.830863
     90          1           0       11.966869    0.037755    1.604599
     91          1           0       11.324197   -1.569011    1.477917
     92          1           0       11.078292   -0.176587    3.675880
     93          1           0        9.742847   -1.084398    3.315784
     94          1           0        9.563757    0.600464    3.025251
     95          1           0        8.384890   -4.943485    1.117008
     96          1           0        8.149568   -5.130791   -0.597831
     97          1           0        7.008300   -5.905094    0.647469
     98          1           0        2.304121   -3.717601    0.881454
     99          1           0       -0.046017   -4.314779   -2.630783
    100          1           0       -0.291694   -5.819722   -1.657547
    101          1           0        1.199551   -5.489402   -2.555866
    102          1           0       -4.219379   -0.381648    1.739542
    103          1           0       -4.538488   -2.079214    1.580926
    104          1           0       -4.521601   -1.407231   -1.108043
    105          1           0       -6.910567    0.941519    0.743628
    106          1           0       -6.613571   -0.357499    1.884244
    107          1           0       -8.103492   -0.259936    0.917868
    108          1           0       -8.046273   -0.990277   -1.244053
    109          1           0       -6.660017   -1.466388   -2.210715
    110          1           0       -7.029171    0.037076   -3.466184
    111          1           0       -6.326345    1.244438   -2.308064
    112          1           0       -8.411184    2.238937   -2.446917
    113          1           0       -8.896942    1.094084   -1.516910
    114          1           0       -9.074767    0.014712   -4.179189
    115          1           0       -9.644303    1.457404   -5.440798
    116          1           0       -9.372735    2.813813   -4.349695
    117          1           0      -10.987993    2.223841   -4.624481
    118          1           0      -10.639255   -0.833043   -2.617656
    119          1           0      -11.521991    0.132450   -3.820294
    120          1           0      -11.187243    1.993071   -1.805684
    121          1           0      -11.042978    0.553823   -0.878373
    122          1           0      -13.228990   -0.051969   -2.423829
    123          1           0      -13.538069    1.652116   -1.811465
    124          1           0      -12.683480   -0.582338    0.065374
    125          1           0      -14.685555   -1.375442   -1.602985
    126          1           0      -15.693300   -0.275161   -0.672595
    127          1           0      -14.878580   -1.529421    0.212808
    128          1           0      -14.890975    1.491389    0.738174
    129          1           0      -13.150491    1.774140    0.756806
    130          1           0      -13.325591   -0.499122    2.091272
    131          1           0      -14.815396    0.344426    2.613231
    132          1           0      -13.780535    1.721694    4.033349
    133          1           0      -12.793713    2.304485    2.751679
    134          1           0      -11.684098   -0.284180    3.738460
    135          1           0      -12.086250    2.121138    5.480013
    136          1           0      -10.355873    2.053481    5.221471
    137          1           0      -11.238030    0.574087    5.759307
    138          1           0      -10.043513    2.064516    2.872182
    139          1           0      -10.699612    1.048550    1.618832
    140          1           0       -9.761419    0.289588    2.826717
 ---------------------------------------------------------------------

 SCF Done:  E(RB-LYP) =  -3007.30906366     A.U. after   21 cycles

 Excitation energies and oscillator strengths:

 Excited State   1:      Singlet-A      1.7706 eV  700.26 nm  f=0.3139  <S**2>=0.000
     245 -> 248        0.18591
     246 -> 247        0.68989
     246 <- 247       -0.15529
 This state for optimization and/or second-order correction.
 Total Energy, E(TD-HF/TD-DFT) =  -3007.24399688
 Copying the excited state density for this state as the 1-particle RhoCI density.

 Excited State   2:      Singlet-A      1.9219 eV  645.11 nm  f=0.0039  <S**2>=0.000
     244 -> 247        0.68431
     245 -> 247        0.16603

 Excited State   3:      Singlet-A      1.9949 eV  621.52 nm  f=0.0571  <S**2>=0.000
     243 -> 247       -0.11811
     244 -> 247       -0.17372
     245 -> 247        0.61135
     246 -> 248       -0.23118
     246 -> 249        0.10870

 Excited State   4:      Singlet-A      2.0517 eV  604.31 nm  f=0.0000  <S**2>=0.000
     242 -> 247        0.67949
     243 -> 247        0.19517

 Excited State   5:      Singlet-A      2.0794 eV  596.24 nm  f=0.0035  <S**2>=0.000
     242 -> 247       -0.18938
     243 -> 247        0.66836
     245 -> 247        0.10820

 The electronic state is 1-A.
 Alpha  occ. eigenvalues --  -46.25619 -18.82731 -18.81601 -18.76744 -18.76304
 Alpha  occ. eigenvalues --  -18.75999 -18.75847 -14.03481 -14.02716 -14.00883
 Alpha  occ. eigenvalues --  -14.00334 -10.04241 -10.03170 -10.00539  -9.99746
 Alpha  occ. eigenvalues --   -9.98069  -9.97051  -9.96834  -9.96707  -9.96080
 Alpha  occ. eigenvalues --   -9.95586  -9.95558  -9.95421  -9.95327  -9.94572
 Alpha  occ. eigenvalues --   -9.94420  -9.94360  -9.94146  -9.93999  -9.93995
 Alpha  occ. eigenvalues --   -9.93749  -9.93422  -9.93387  -9.93305  -9.93190
 Alpha  occ. eigenvalues --   -9.93135  -9.92988  -9.92971  -9.92880  -9.92726
 Alpha  occ. eigenvalues --   -9.92597  -9.92540  -9.92489  -9.92377  -9.92364
 Alpha  occ. eigenvalues --   -9.92145  -9.92127  -9.92119  -9.91992  -9.91906
 Alpha  occ. eigenvalues --   -9.91764  -9.91568  -9.91565  -9.91530  -9.91423
 Alpha  occ. eigenvalues --   -9.91337  -9.91334  -9.91320  -9.91292  -9.91196
 Alpha  occ. eigenvalues --   -9.91062  -9.90913  -9.90875  -9.90705  -9.90651
 Alpha  occ. eigenvalues --   -9.90568  -2.90526  -1.70963  -1.70404  -1.70232
 Alpha  occ. eigenvalues --   -0.98552  -0.96978  -0.91262  -0.89837  -0.89675
 Alpha  occ. eigenvalues --   -0.89101  -0.88984  -0.86172  -0.85100  -0.84585
 Alpha  occ. eigenvalues --   -0.76733  -0.74282  -0.73481  -0.73197  -0.72983
 Alpha  occ. eigenvalues --   -0.72274  -0.71834  -0.71597  -0.70132  -0.69925
 Alpha  occ. eigenvalues --   -0.69563  -0.68983  -0.68349  -0.67859  -0.67280
 Alpha  occ. eigenvalues --   -0.66589  -0.66120  -0.65500  -0.65235  -0.64570
 Alpha  occ. eigenvalues --   -0.64360  -0.62979  -0.62610  -0.61938  -0.61064
 Alpha  occ. eigenvalues --   -0.60915  -0.60059  -0.60047  -0.59199  -0.58605
 Alpha  occ. eigenvalues --   -0.58139  -0.57616  -0.57109  -0.55774  -0.55601
 Alpha  occ. eigenvalues --   -0.54188  -0.54013  -0.52938  -0.52623  -0.52119
 Alpha  occ. eigenvalues --   -0.51534  -0.51509  -0.50687  -0.50566  -0.49840
 Alpha  occ. eigenvalues --   -0.49525  -0.48979  -0.48645  -0.48245  -0.46743
 Alpha  occ. eigenvalues --   -0.46360  -0.45970  -0.45926  -0.45755  -0.45263
 Alpha  occ. eigenvalues --   -0.44123  -0.43464  -0.43309  -0.43184  -0.42298
 Alpha  occ. eigenvalues --   -0.42219  -0.41979  -0.41816  -0.41435  -0.41204
 Alpha  occ. eigenvalues --   -0.40860  -0.40794  -0.40495  -0.40161  -0.39956
 Alpha  occ. eigenvalues --   -0.39757  -0.39616  -0.39469  -0.39425  -0.39004
 Alpha  occ. eigenvalues --   -0.38964  -0.38837  -0.38733  -0.38486  -0.38197
 Alpha  occ. eigenvalues --   -0.37963  -0.37831  -0.37794  -0.37488  -0.37284
 Alpha  occ. eigenvalues --   -0.37119  -0.37043  -0.36988  -0.36686  -0.36485
 Alpha  occ. eigenvalues --   -0.36448  -0.36128  -0.36078  -0.35899  -0.35758
 Alpha  occ. eigenvalues --   -0.35725  -0.35299  -0.35086  -0.34938  -0.34854
 Alpha  occ. eigenvalues --   -0.34708  -0.34575  -0.34370  -0.34344  -0.34034
 Alpha  occ. eigenvalues --   -0.33841  -0.33810  -0.33660  -0.33472  -0.33191
 Alpha  occ. eigenvalues --   -0.33061  -0.32789  -0.32697  -0.32570  -0.32368
 Alpha  occ. eigenvalues --   -0.32228  -0.31931  -0.31844  -0.31678  -0.31415
 Alpha  occ. eigenvalues --   -0.31356  -0.31163  -0.30774  -0.30716  -0.30662
 Alpha  occ. eigenvalues --   -0.30604  -0.30235  -0.29965  -0.29766  -0.29728
 Alpha  occ. eigenvalues --   -0.29648  -0.29500  -0.29282  -0.29032  -0.28910
 Alpha  occ. eigenvalues --   -0.28837  -0.28410  -0.28320  -0.28234  -0.27817
 Alpha  occ. eigenvalues --   -0.27668  -0.27493  -0.26908  -0.26558  -0.26400
 Alpha  occ. eigenvalues --   -0.26257  -0.26228  -0.25831  -0.25800  -0.25512
 Alpha  occ. eigenvalues --   -0.25142  -0.24786  -0.24042  -0.23955  -0.23805
 Alpha  occ. eigenvalues --   -0.23474  -0.22167  -0.21709  -0.21397  -0.20418
 Alpha  occ. eigenvalues --   -0.20149  -0.19158  -0.19137  -0.18599  -0.17390
 Alpha  occ. eigenvalues --   -0.15733
 Alpha virt. eigenvalues --   -0.11617  -0.07287  -0.06230  -0.04858  -0.03458
 Alpha virt. eigenvalues --   -0.02053  -0.01931  -0.01750  -0.01120   0.00166
 Alpha virt. eigenvalues --    0.00857   0.01465   0.01486   0.02352   0.02802

 Mulliken charges:
               1
     1  Mg   0.692826
     2  C    0.045319
     3  C   -0.096056
     4  C   -0.048242
     5  C   -0.093120
     6  N   -0.243161
     7  C   -0.088276
     8  C    0.089679
     9  C   -0.026479
    10  C    0.099083
    11  C    0.132612
    12  C    0.130434
    13  C    0.104850
    14  C    0.083514
    15  O   -0.215238
    16  O   -0.273889
    17  N   -0.339506
    18  C    0.127344
    19  C   -0.129333
    20  C   -0.012116
    21  C    0.147458
    22  C    0.136346
    23  C   -0.038755
    24  O   -0.198545
    25  C    0.126035
    26  N   -0.166475
    27  C    0.017371
    28  C   -0.100067
    29  C    0.193946
    30  C   -0.057808
    31  C    0.137445
    32  C    0.114826
    33  C    0.067287
    34  N   -0.280635
    35  C    0.136990
    36  C   -0.200749
    37  C    0.061751
    38  C    0.077585
    39  C    0.185183
    40  C   -0.052730
    41  O   -0.130038
    42  C    0.102958
    43  C    0.075211
    44  O   -0.168821
    45  O   -0.264651
    46  C    0.226897
    47  C    0.309164
    48  C   -0.126170
    49  C   -0.132715
    50  C    0.149734
    51  C    0.120795
    52  C    0.137239
    53  C    0.084174
    54  C   -0.022409
    55  C    0.102857
    56  C    0.077336
    57  C    0.036067
    58  C    0.122224
    59  C   -0.073596
    60  C    0.115904
    61  C    0.062669
    62  C    0.068021
    63  C    0.084923
    64  C   -0.097349
    65  C    0.099166
    66  C    0.043724
    67  H   -0.072570
    68  H   -0.046934
    69  H   -0.067978
    70  H   -0.013823
    71  H   -0.011282
    72  H   -0.000529
    73  H   -0.024693
    74  H   -0.003644
    75  H   -0.012945
    76  H   -0.020394
    77  H    0.002123
    78  H   -0.012759
    79  H    0.013782
    80  H    0.012012
    81  H    0.002806
    82  H    0.022036
    83  H    0.004320
    84  H   -0.010987
    85  H   -0.021142
    86  H   -0.056396
    87  H    0.000274
    88  H   -0.019095
    89  H    0.009889
    90  H   -0.013596
    91  H   -0.016856
    92  H   -0.010300
    93  H   -0.015002
    94  H    0.016900
    95  H   -0.010694
    96  H    0.009431
    97  H    0.013211
    98  H   -0.011377
    99  H   -0.000550
   100  H    0.023448
   101  H    0.010852
   102  H    0.005235
   103  H    0.010073
   104  H   -0.039191
   105  H   -0.004522
   106  H   -0.006567
   107  H   -0.005446
   108  H   -0.030334
   109  H   -0.037196
   110  H   -0.040075
   111  H   -0.025791
   112  H   -0.063218
   113  H   -0.054258
   114  H   -0.046335
   115  H   -0.020613
   116  H   -0.026855
   117  H   -0.004362
   118  H   -0.038408
   119  H   -0.025756
   120  H   -0.031725
   121  H   -0.017331
   122  H   -0.039665
   123  H   -0.022801
   124  H   -0.037858
   125  H   -0.014895
   126  H   -0.017273
   127  H   -0.017759
   128  H   -0.027390
   129  H   -0.044315
   130  H   -0.032465
   131  H   -0.033747
   132  H   -0.025778
   133  H   -0.035295
   134  H   -0.018889
   135  H   -0.011933
   136  H   -0.005068
   137  H   -0.005119
   138  H   -0.010113
   139  H   -0.010659
   140  H   -0.003857
 Sum of Mulliken charges =  -0.00000

 Dipole moment (field-independent basis, Debye):
    X=             -1.2610    Y=              3.2728    Z=              0.3342  Tot=              3.5232
 Quadrupole moment (field-independent basis, Debye-Ang):
   XX=           -366.9151   YY=           -422.3094   ZZ=           -413.6106
   XY=            -13.7627   XZ=             15.4245   YZ=              5.2734

 Normal termination of Gaussian 16 at Wed May  4 13:14:44 2022.
