 Gaussian 16, Revision A.03,
 Gaussian 16:  ES64L-G16RevA.03 25-Dec-2016

 -----------------------------------
 #p cam-b3lyp/Def2SVP td=(nstates=5)
 -----------------------------------

 --------------------------------------------------------
 step_1701_chromophore_25 TDDFT with cam-b3lyp functional
 --------------------------------------------------------
 Symbolic Z-matrix:
 Charge =  0 Multiplicity = 1

                         Standard orientation:
 ---------------------------------------------------------------------
 Center     Atomic      Atomic             Coordinates (Angstroms)
 Number     Number       Type             X           Y           Z
 ---------------------------------------------------------------------
      1         12           0        5.850210    0.371737    0.024071
      2          6           0        3.544355   -2.218650   -0.006032
      3          6           0        3.312393    2.677691   -0.203506
      4          6           0        8.145959    2.662405   -0.527695
      5          6           0        8.459357   -1.982445    0.283836
      6          7           0        3.750971    0.132123   -0.097069
      7          6           0        2.971662   -0.946375   -0.101633
      8          6           0        1.471075   -0.611063   -0.041750
      9          6           0        1.513258    0.957092   -0.092593
     10          6           0        2.929697    1.315158   -0.188991
     11          6           0        0.714973    1.566269   -1.223044
     12          6           0        0.737250   -1.026047    1.226211
     13          6           0       -0.396757   -2.075705    1.167358
     14          6           0       -1.851082   -1.786020    1.651799
     15          8           0       -2.189860   -1.792102    2.845475
     16          8           0       -2.716833   -1.497868    0.605789
     17          7           0        5.704110    2.395707   -0.099459
     18          6           0        4.627933    3.222172   -0.223053
     19          6           0        5.006805    4.578717   -0.173385
     20          6           0        6.441637    4.585870   -0.226438
     21          6           0        6.869557    3.139197   -0.373794
     22          6           0        3.927146    5.745406    0.065545
     23          6           0        7.459737    5.780209   -0.003505
     24          8           0        8.719667    5.697576    0.007892
     25          6           0        6.933757    7.161792    0.255739
     26          7           0        7.962243    0.333064   -0.095809
     27          6           0        8.634688    1.380181   -0.461846
     28          6           0       10.143195    1.137022   -0.382501
     29          6           0       10.187854   -0.223384    0.219388
     30          6           0        8.816236   -0.651583    0.210359
     31          6           0       10.663998    1.279107   -1.834119
     32          6           0       11.033439   -0.526392    1.604130
     33          6           0       10.280120   -0.216330    2.934945
     34          7           0        6.013931   -1.685547    0.001254
     35          6           0        7.131645   -2.463900    0.277471
     36          6           0        6.724940   -3.895911    0.293500
     37          6           0        5.294632   -3.814411    0.219140
     38          6           0        4.927727   -2.485667    0.118989
     39          6           0        7.616876   -5.050715    0.349730
     40          6           0        4.063450   -4.618483    0.225024
     41          8           0        3.822458   -5.821033    0.291419
     42          6           0        2.974322   -3.569020    0.035150
     43          6           0        2.299908   -3.821720   -1.202409
     44          8           0        2.681201   -3.675297   -2.344919
     45          8           0        1.074294   -4.298859   -0.892271
     46          6           0        0.408829   -5.040004   -1.956478
     47          6           0       -4.099160   -1.227537    1.061739
     48          6           0       -4.976990   -1.048980   -0.184813
     49          6           0       -6.280847   -0.626144   -0.242261
     50          6           0       -7.020769   -0.131754    0.897930
     51          6           0       -7.037885   -0.698347   -1.535317
     52          6           0       -7.105279    0.503242   -2.483572
     53          6           0       -8.496742    1.155580   -2.528394
     54          6           0       -9.510240    0.791018   -3.550559
     55          6           0       -9.954191    1.903958   -4.496097
     56          6           0      -10.815807    0.176041   -2.991590
     57          6           0      -11.443888    0.933598   -1.818548
     58          6           0      -13.004310    0.711260   -1.678958
     59          6           0      -13.509067   -0.012935   -0.362101
     60          6           0      -14.776328   -0.864210   -0.644806
     61          6           0      -13.917450    1.000114    0.763342
     62          6           0      -13.802693    0.471267    2.231756
     63          6           0      -13.088643    1.386418    3.259750
     64          6           0      -11.648542    0.805471    3.745814
     65          6           0      -11.275915    1.473190    5.144183
     66          6           0      -10.490666    1.087422    2.688011
     67          1           0        2.551244    3.460650   -0.219611
     68          1           0        8.908220    3.429737   -0.676200
     69          1           0        9.264169   -2.699720    0.453864
     70          1           0        0.929917   -1.004860   -0.901991
     71          1           0        1.187103    1.412801    0.841881
     72          1           0        1.353816    1.916217   -2.033795
     73          1           0        0.236426    2.485488   -0.887572
     74          1           0       -0.129512    0.938345   -1.508725
     75          1           0        0.384809   -0.192249    1.834957
     76          1           0        1.411402   -1.574597    1.883604
     77          1           0       -0.079881   -2.958247    1.722964
     78          1           0       -0.495601   -2.439463    0.144304
     79          1           0        3.898014    6.443452   -0.770968
     80          1           0        4.421227    6.183521    0.932974
     81          1           0        2.899292    5.469623    0.300334
     82          1           0        6.512127    7.237837    1.257714
     83          1           0        6.260091    7.423994   -0.561179
     84          1           0        7.743562    7.889298    0.198664
     85          1           0       10.647812    1.886649    0.228190
     86          1           0       10.479612   -0.802544   -0.656968
     87          1           0        9.794371    1.190342   -2.486210
     88          1           0       11.333982    0.497497   -2.191326
     89          1           0       11.245201    2.200540   -1.830863
     90          1           0       11.966869    0.037755    1.604599
     91          1           0       11.324197   -1.569011    1.477917
     92          1           0       11.078292   -0.176587    3.675880
     93          1           0        9.742847   -1.084398    3.315784
     94          1           0        9.563757    0.600464    3.025251
     95          1           0        8.384890   -4.943485    1.117008
     96          1           0        8.149568   -5.130791   -0.597831
     97          1           0        7.008300   -5.905094    0.647469
     98          1           0        2.304121   -3.717601    0.881454
     99          1           0       -0.046017   -4.314779   -2.630783
    100          1           0       -0.291694   -5.819722   -1.657547
    101          1           0        1.199551   -5.489402   -2.555866
    102          1           0       -4.219379   -0.381648    1.739542
    103          1           0       -4.538488   -2.079214    1.580926
    104          1           0       -4.521601   -1.407231   -1.108043
    105          1           0       -6.910567    0.941519    0.743628
    106          1           0       -6.613571   -0.357499    1.884244
    107          1           0       -8.103492   -0.259936    0.917868
    108          1           0       -8.046273   -0.990277   -1.244053
    109          1           0       -6.660017   -1.466388   -2.210715
    110          1           0       -7.029171    0.037076   -3.466184
    111          1           0       -6.326345    1.244438   -2.308064
    112          1           0       -8.411184    2.238937   -2.446917
    113          1           0       -8.896942    1.094084   -1.516910
    114          1           0       -9.074767    0.014712   -4.179189
    115          1           0       -9.644303    1.457404   -5.440798
    116          1           0       -9.372735    2.813813   -4.349695
    117          1           0      -10.987993    2.223841   -4.624481
    118          1           0      -10.639255   -0.833043   -2.617656
    119          1           0      -11.521991    0.132450   -3.820294
    120          1           0      -11.187243    1.993071   -1.805684
    121          1           0      -11.042978    0.553823   -0.878373
    122          1           0      -13.228990   -0.051969   -2.423829
    123          1           0      -13.538069    1.652116   -1.811465
    124          1           0      -12.683480   -0.582338    0.065374
    125          1           0      -14.685555   -1.375442   -1.602985
    126          1           0      -15.693300   -0.275161   -0.672595
    127          1           0      -14.878580   -1.529421    0.212808
    128          1           0      -14.890975    1.491389    0.738174
    129          1           0      -13.150491    1.774140    0.756806
    130          1           0      -13.325591   -0.499122    2.091272
    131          1           0      -14.815396    0.344426    2.613231
    132          1           0      -13.780535    1.721694    4.033349
    133          1           0      -12.793713    2.304485    2.751679
    134          1           0      -11.684098   -0.284180    3.738460
    135          1           0      -12.086250    2.121138    5.480013
    136          1           0      -10.355873    2.053481    5.221471
    137          1           0      -11.238030    0.574087    5.759307
    138          1           0      -10.043513    2.064516    2.872182
    139          1           0      -10.699612    1.048550    1.618832
    140          1           0       -9.761419    0.289588    2.826717
 ---------------------------------------------------------------------

 SCF Done:  E(RCAM-B3LYP) =  -3007.10359145     A.U. after   16 cycles

 Excitation energies and oscillator strengths:

 Excited State   1:      Singlet-A      1.6679 eV  743.34 nm  f=0.3940  <S**2>=0.000
     245 -> 248       -0.17568
     246 -> 247        0.68535
     245 <- 248       -0.10619
 This state for optimization and/or second-order correction.
 Total Energy, E(TD-HF/TD-DFT) =  -3007.04229565
 Copying the excited state density for this state as the 1-particle RhoCI density.

 Excited State   2:      Singlet-A      2.2236 eV  557.59 nm  f=0.0887  <S**2>=0.000
     245 -> 247        0.62557
     246 -> 248        0.31018

 Excited State   3:      Singlet-A      3.3187 eV  373.59 nm  f=0.0007  <S**2>=0.000
     242 -> 247       -0.27840
     243 -> 247        0.63677

 Excited State   4:      Singlet-A      3.3785 eV  366.98 nm  f=0.3647  <S**2>=0.000
     242 -> 247       -0.33253
     243 -> 247       -0.13376
     245 -> 247       -0.22959
     246 -> 248        0.54883

 Excited State   5:      Singlet-A      3.4845 eV  355.81 nm  f=0.1135  <S**2>=0.000
     239 -> 247        0.24191
     239 -> 248        0.10924
     239 -> 249       -0.16179
     239 -> 250       -0.13918
     241 -> 247        0.38930
     241 -> 248        0.13030
     241 -> 249       -0.20903
     241 -> 250       -0.15144
     242 -> 247       -0.24508
     243 -> 247       -0.13412
     245 -> 247        0.12265
     246 -> 248       -0.17940

 The electronic state is 1-A.
 Alpha  occ. eigenvalues --  -46.87024 -19.25614 -19.24537 -19.19748 -19.19385
 Alpha  occ. eigenvalues --  -19.19264 -19.19138 -14.42266 -14.41600 -14.39416
 Alpha  occ. eigenvalues --  -14.38613 -10.39615 -10.38501 -10.36075 -10.35038
 Alpha  occ. eigenvalues --  -10.32127 -10.31292 -10.31230 -10.31045 -10.30621
 Alpha  occ. eigenvalues --  -10.29942 -10.29748 -10.29746 -10.29527 -10.29352
 Alpha  occ. eigenvalues --  -10.28725 -10.28351 -10.28255 -10.28184 -10.28172
 Alpha  occ. eigenvalues --  -10.28158 -10.27281 -10.27238 -10.27215 -10.27196
 Alpha  occ. eigenvalues --  -10.27191 -10.27004 -10.26849 -10.26813 -10.26744
 Alpha  occ. eigenvalues --  -10.26625 -10.26574 -10.26180 -10.26170 -10.26066
 Alpha  occ. eigenvalues --  -10.25983 -10.25800 -10.25755 -10.25735 -10.25721
 Alpha  occ. eigenvalues --  -10.25590 -10.25582 -10.25437 -10.25238 -10.25173
 Alpha  occ. eigenvalues --  -10.25070 -10.25049 -10.25032 -10.25022 -10.24920
 Alpha  occ. eigenvalues --  -10.24872 -10.24606 -10.24502 -10.24413 -10.24220
 Alpha  occ. eigenvalues --  -10.24208  -3.15849  -1.90759  -1.90311  -1.90157
 Alpha  occ. eigenvalues --   -1.17149  -1.15370  -1.09612  -1.08185  -1.07781
 Alpha  occ. eigenvalues --   -1.06934  -1.06830  -1.03824  -1.02647  -1.02104
 Alpha  occ. eigenvalues --   -0.93851  -0.91208  -0.90219  -0.89906  -0.89778
 Alpha  occ. eigenvalues --   -0.88917  -0.88567  -0.88223  -0.86635  -0.86465
 Alpha  occ. eigenvalues --   -0.86168  -0.85464  -0.84626  -0.84004  -0.83357
 Alpha  occ. eigenvalues --   -0.82620  -0.82151  -0.81642  -0.81125  -0.80463
 Alpha  occ. eigenvalues --   -0.80207  -0.78596  -0.78157  -0.77675  -0.76497
 Alpha  occ. eigenvalues --   -0.76313  -0.75413  -0.75313  -0.74475  -0.73839
 Alpha  occ. eigenvalues --   -0.73169  -0.72590  -0.72013  -0.70430  -0.70348
 Alpha  occ. eigenvalues --   -0.68821  -0.68628  -0.67417  -0.67015  -0.66148
 Alpha  occ. eigenvalues --   -0.65851  -0.65657  -0.64785  -0.64563  -0.63653
 Alpha  occ. eigenvalues --   -0.63540  -0.62920  -0.62469  -0.61961  -0.60448
 Alpha  occ. eigenvalues --   -0.59966  -0.59570  -0.59404  -0.59116  -0.58736
 Alpha  occ. eigenvalues --   -0.57516  -0.56711  -0.56297  -0.56262  -0.55485
 Alpha  occ. eigenvalues --   -0.55411  -0.54993  -0.54792  -0.54477  -0.54255
 Alpha  occ. eigenvalues --   -0.53874  -0.53489  -0.53221  -0.52945  -0.52729
 Alpha  occ. eigenvalues --   -0.52619  -0.52365  -0.52106  -0.51951  -0.51716
 Alpha  occ. eigenvalues --   -0.51419  -0.51392  -0.51169  -0.50917  -0.50546
 Alpha  occ. eigenvalues --   -0.50349  -0.50240  -0.50186  -0.49806  -0.49678
 Alpha  occ. eigenvalues --   -0.49439  -0.49319  -0.49228  -0.49061  -0.48912
 Alpha  occ. eigenvalues --   -0.48748  -0.48705  -0.48443  -0.48126  -0.48036
 Alpha  occ. eigenvalues --   -0.47672  -0.47409  -0.47089  -0.46764  -0.46681
 Alpha  occ. eigenvalues --   -0.46565  -0.46399  -0.46216  -0.46159  -0.45980
 Alpha  occ. eigenvalues --   -0.45639  -0.45593  -0.45474  -0.45216  -0.44864
 Alpha  occ. eigenvalues --   -0.44780  -0.44657  -0.44368  -0.44271  -0.44136
 Alpha  occ. eigenvalues --   -0.43892  -0.43662  -0.43358  -0.43265  -0.42963
 Alpha  occ. eigenvalues --   -0.42774  -0.42691  -0.42434  -0.42270  -0.42169
 Alpha  occ. eigenvalues --   -0.41998  -0.41618  -0.41404  -0.41338  -0.40997
 Alpha  occ. eigenvalues --   -0.40903  -0.40722  -0.40502  -0.40343  -0.40022
 Alpha  occ. eigenvalues --   -0.39975  -0.39391  -0.39363  -0.39194  -0.38723
 Alpha  occ. eigenvalues --   -0.38666  -0.38431  -0.37697  -0.37678  -0.37289
 Alpha  occ. eigenvalues --   -0.37195  -0.37035  -0.36858  -0.36539  -0.36459
 Alpha  occ. eigenvalues --   -0.36270  -0.35758  -0.34507  -0.34465  -0.34443
 Alpha  occ. eigenvalues --   -0.34210  -0.33561  -0.33341  -0.31271  -0.31092
 Alpha  occ. eigenvalues --   -0.30877  -0.29849  -0.29330  -0.28661  -0.24182
 Alpha  occ. eigenvalues --   -0.20933
 Alpha virt. eigenvalues --   -0.08698  -0.02064   0.00166   0.02097   0.03358
 Alpha virt. eigenvalues --    0.04281   0.05251   0.05635   0.06060   0.06398
 Alpha virt. eigenvalues --    0.07546   0.07649   0.08587   0.08754   0.09346

 Mulliken charges:
               1
     1  Mg   0.830903
     2  C    0.003219
     3  C   -0.106452
     4  C   -0.063750
     5  C   -0.092439
     6  N   -0.318632
     7  C   -0.035504
     8  C    0.038432
     9  C   -0.085318
    10  C    0.118232
    11  C    0.070517
    12  C    0.074020
    13  C    0.042488
    14  C    0.164861
    15  O   -0.256022
    16  O   -0.339419
    17  N   -0.424268
    18  C    0.134093
    19  C   -0.137681
    20  C   -0.072871
    21  C    0.163733
    22  C    0.090589
    23  C    0.040322
    24  O   -0.237665
    25  C    0.042953
    26  N   -0.238315
    27  C    0.032978
    28  C   -0.149136
    29  C    0.111980
    30  C   -0.034476
    31  C    0.079427
    32  C    0.066111
    33  C    0.002570
    34  N   -0.365573
    35  C    0.134760
    36  C   -0.186036
    37  C   -0.021913
    38  C    0.114823
    39  C    0.126018
    40  C    0.050497
    41  O   -0.169976
    42  C    0.018308
    43  C    0.167511
    44  O   -0.205458
    45  O   -0.327621
    46  C    0.183895
    47  C    0.277852
    48  C   -0.142451
    49  C   -0.157516
    50  C    0.084692
    51  C    0.065707
    52  C    0.079239
    53  C    0.024502
    54  C   -0.079518
    55  C    0.039969
    56  C    0.030903
    57  C   -0.015991
    58  C    0.070387
    59  C   -0.129465
    60  C    0.057957
    61  C    0.012694
    62  C    0.014260
    63  C    0.030965
    64  C   -0.149163
    65  C    0.039000
    66  C   -0.003868
    67  H   -0.038056
    68  H   -0.004580
    69  H   -0.031020
    70  H    0.020817
    71  H    0.024096
    72  H    0.027006
    73  H    0.000315
    74  H    0.021997
    75  H    0.018617
    76  H    0.012256
    77  H    0.033145
    78  H    0.019545
    79  H    0.038763
    80  H    0.034212
    81  H    0.030289
    82  H    0.049237
    83  H    0.031182
    84  H    0.025559
    85  H    0.014417
    86  H   -0.015871
    87  H    0.026145
    88  H    0.007096
    89  H    0.033177
    90  H    0.013554
    91  H    0.010141
    92  H    0.013531
    93  H    0.008895
    94  H    0.038491
    95  H    0.014639
    96  H    0.036010
    97  H    0.040051
    98  H    0.032090
    99  H    0.023325
   100  H    0.047035
   101  H    0.036395
   102  H    0.031508
   103  H    0.037761
   104  H   -0.003591
   105  H    0.019941
   106  H    0.018696
   107  H    0.016158
   108  H   -0.003146
   109  H   -0.004528
   110  H   -0.009745
   111  H    0.005015
   112  H   -0.029811
   113  H   -0.026518
   114  H   -0.012409
   115  H    0.004273
   116  H   -0.001258
   117  H    0.019675
   118  H   -0.010785
   119  H    0.002475
   120  H   -0.003622
   121  H    0.003624
   122  H   -0.011300
   123  H    0.005806
   124  H   -0.007916
   125  H    0.009309
   126  H    0.006667
   127  H    0.006733
   128  H    0.001330
   129  H   -0.017895
   130  H   -0.006633
   131  H   -0.004459
   132  H    0.003402
   133  H   -0.007404
   134  H    0.010245
   135  H    0.011558
   136  H    0.018483
   137  H    0.018002
   138  H    0.012106
   139  H    0.004456
   140  H    0.016422
 Sum of Mulliken charges =  -0.00000

 Dipole moment (field-independent basis, Debye):
    X=             -1.3249    Y=              4.0039    Z=              0.2862  Tot=              4.2271
 Quadrupole moment (field-independent basis, Debye-Ang):
   XX=           -364.9375   YY=           -416.8007   ZZ=           -414.2847
   XY=            -10.3381   XZ=             16.0361   YZ=              5.6861

 Normal termination of Gaussian 16 at Wed May  4 12:13:12 2022.
