 Gaussian 16, Revision A.03,
 Gaussian 16:  ES64L-G16RevA.03 25-Dec-2016

 ---------------------------------
 #p PBE1PBE/Def2SVP td=(nstates=5)
 ---------------------------------

 ------------------------------------------------------
 step_1701_chromophore_25 TDDFT with PBE1PBE functional
 ------------------------------------------------------
 Symbolic Z-matrix:
 Charge =  0 Multiplicity = 1

                         Standard orientation:
 ---------------------------------------------------------------------
 Center     Atomic      Atomic             Coordinates (Angstroms)
 Number     Number       Type             X           Y           Z
 ---------------------------------------------------------------------
      1         12           0        5.850210    0.371737    0.024071
      2          6           0        3.544355   -2.218650   -0.006032
      3          6           0        3.312393    2.677691   -0.203506
      4          6           0        8.145959    2.662405   -0.527695
      5          6           0        8.459357   -1.982445    0.283836
      6          7           0        3.750971    0.132123   -0.097069
      7          6           0        2.971662   -0.946375   -0.101633
      8          6           0        1.471075   -0.611063   -0.041750
      9          6           0        1.513258    0.957092   -0.092593
     10          6           0        2.929697    1.315158   -0.188991
     11          6           0        0.714973    1.566269   -1.223044
     12          6           0        0.737250   -1.026047    1.226211
     13          6           0       -0.396757   -2.075705    1.167358
     14          6           0       -1.851082   -1.786020    1.651799
     15          8           0       -2.189860   -1.792102    2.845475
     16          8           0       -2.716833   -1.497868    0.605789
     17          7           0        5.704110    2.395707   -0.099459
     18          6           0        4.627933    3.222172   -0.223053
     19          6           0        5.006805    4.578717   -0.173385
     20          6           0        6.441637    4.585870   -0.226438
     21          6           0        6.869557    3.139197   -0.373794
     22          6           0        3.927146    5.745406    0.065545
     23          6           0        7.459737    5.780209   -0.003505
     24          8           0        8.719667    5.697576    0.007892
     25          6           0        6.933757    7.161792    0.255739
     26          7           0        7.962243    0.333064   -0.095809
     27          6           0        8.634688    1.380181   -0.461846
     28          6           0       10.143195    1.137022   -0.382501
     29          6           0       10.187854   -0.223384    0.219388
     30          6           0        8.816236   -0.651583    0.210359
     31          6           0       10.663998    1.279107   -1.834119
     32          6           0       11.033439   -0.526392    1.604130
     33          6           0       10.280120   -0.216330    2.934945
     34          7           0        6.013931   -1.685547    0.001254
     35          6           0        7.131645   -2.463900    0.277471
     36          6           0        6.724940   -3.895911    0.293500
     37          6           0        5.294632   -3.814411    0.219140
     38          6           0        4.927727   -2.485667    0.118989
     39          6           0        7.616876   -5.050715    0.349730
     40          6           0        4.063450   -4.618483    0.225024
     41          8           0        3.822458   -5.821033    0.291419
     42          6           0        2.974322   -3.569020    0.035150
     43          6           0        2.299908   -3.821720   -1.202409
     44          8           0        2.681201   -3.675297   -2.344919
     45          8           0        1.074294   -4.298859   -0.892271
     46          6           0        0.408829   -5.040004   -1.956478
     47          6           0       -4.099160   -1.227537    1.061739
     48          6           0       -4.976990   -1.048980   -0.184813
     49          6           0       -6.280847   -0.626144   -0.242261
     50          6           0       -7.020769   -0.131754    0.897930
     51          6           0       -7.037885   -0.698347   -1.535317
     52          6           0       -7.105279    0.503242   -2.483572
     53          6           0       -8.496742    1.155580   -2.528394
     54          6           0       -9.510240    0.791018   -3.550559
     55          6           0       -9.954191    1.903958   -4.496097
     56          6           0      -10.815807    0.176041   -2.991590
     57          6           0      -11.443888    0.933598   -1.818548
     58          6           0      -13.004310    0.711260   -1.678958
     59          6           0      -13.509067   -0.012935   -0.362101
     60          6           0      -14.776328   -0.864210   -0.644806
     61          6           0      -13.917450    1.000114    0.763342
     62          6           0      -13.802693    0.471267    2.231756
     63          6           0      -13.088643    1.386418    3.259750
     64          6           0      -11.648542    0.805471    3.745814
     65          6           0      -11.275915    1.473190    5.144183
     66          6           0      -10.490666    1.087422    2.688011
     67          1           0        2.551244    3.460650   -0.219611
     68          1           0        8.908220    3.429737   -0.676200
     69          1           0        9.264169   -2.699720    0.453864
     70          1           0        0.929917   -1.004860   -0.901991
     71          1           0        1.187103    1.412801    0.841881
     72          1           0        1.353816    1.916217   -2.033795
     73          1           0        0.236426    2.485488   -0.887572
     74          1           0       -0.129512    0.938345   -1.508725
     75          1           0        0.384809   -0.192249    1.834957
     76          1           0        1.411402   -1.574597    1.883604
     77          1           0       -0.079881   -2.958247    1.722964
     78          1           0       -0.495601   -2.439463    0.144304
     79          1           0        3.898014    6.443452   -0.770968
     80          1           0        4.421227    6.183521    0.932974
     81          1           0        2.899292    5.469623    0.300334
     82          1           0        6.512127    7.237837    1.257714
     83          1           0        6.260091    7.423994   -0.561179
     84          1           0        7.743562    7.889298    0.198664
     85          1           0       10.647812    1.886649    0.228190
     86          1           0       10.479612   -0.802544   -0.656968
     87          1           0        9.794371    1.190342   -2.486210
     88          1           0       11.333982    0.497497   -2.191326
     89          1           0       11.245201    2.200540   -1.830863
     90          1           0       11.966869    0.037755    1.604599
     91          1           0       11.324197   -1.569011    1.477917
     92          1           0       11.078292   -0.176587    3.675880
     93          1           0        9.742847   -1.084398    3.315784
     94          1           0        9.563757    0.600464    3.025251
     95          1           0        8.384890   -4.943485    1.117008
     96          1           0        8.149568   -5.130791   -0.597831
     97          1           0        7.008300   -5.905094    0.647469
     98          1           0        2.304121   -3.717601    0.881454
     99          1           0       -0.046017   -4.314779   -2.630783
    100          1           0       -0.291694   -5.819722   -1.657547
    101          1           0        1.199551   -5.489402   -2.555866
    102          1           0       -4.219379   -0.381648    1.739542
    103          1           0       -4.538488   -2.079214    1.580926
    104          1           0       -4.521601   -1.407231   -1.108043
    105          1           0       -6.910567    0.941519    0.743628
    106          1           0       -6.613571   -0.357499    1.884244
    107          1           0       -8.103492   -0.259936    0.917868
    108          1           0       -8.046273   -0.990277   -1.244053
    109          1           0       -6.660017   -1.466388   -2.210715
    110          1           0       -7.029171    0.037076   -3.466184
    111          1           0       -6.326345    1.244438   -2.308064
    112          1           0       -8.411184    2.238937   -2.446917
    113          1           0       -8.896942    1.094084   -1.516910
    114          1           0       -9.074767    0.014712   -4.179189
    115          1           0       -9.644303    1.457404   -5.440798
    116          1           0       -9.372735    2.813813   -4.349695
    117          1           0      -10.987993    2.223841   -4.624481
    118          1           0      -10.639255   -0.833043   -2.617656
    119          1           0      -11.521991    0.132450   -3.820294
    120          1           0      -11.187243    1.993071   -1.805684
    121          1           0      -11.042978    0.553823   -0.878373
    122          1           0      -13.228990   -0.051969   -2.423829
    123          1           0      -13.538069    1.652116   -1.811465
    124          1           0      -12.683480   -0.582338    0.065374
    125          1           0      -14.685555   -1.375442   -1.602985
    126          1           0      -15.693300   -0.275161   -0.672595
    127          1           0      -14.878580   -1.529421    0.212808
    128          1           0      -14.890975    1.491389    0.738174
    129          1           0      -13.150491    1.774140    0.756806
    130          1           0      -13.325591   -0.499122    2.091272
    131          1           0      -14.815396    0.344426    2.613231
    132          1           0      -13.780535    1.721694    4.033349
    133          1           0      -12.793713    2.304485    2.751679
    134          1           0      -11.684098   -0.284180    3.738460
    135          1           0      -12.086250    2.121138    5.480013
    136          1           0      -10.355873    2.053481    5.221471
    137          1           0      -11.238030    0.574087    5.759307
    138          1           0      -10.043513    2.064516    2.872182
    139          1           0      -10.699612    1.048550    1.618832
    140          1           0       -9.761419    0.289588    2.826717
 ---------------------------------------------------------------------

 SCF Done:  E(RPBE1PBE) =  -3005.29437421     A.U. after   15 cycles

 Excitation energies and oscillator strengths:

 Excited State   1:      Singlet-A      1.8185 eV  681.78 nm  f=0.3805  <S**2>=0.000
     245 -> 248        0.16825
     246 -> 247        0.69328
     246 <- 247       -0.11252
 This state for optimization and/or second-order correction.
 Total Energy, E(TD-HF/TD-DFT) =  -3005.22754375
 Copying the excited state density for this state as the 1-particle RhoCI density.

 Excited State   2:      Singlet-A      2.2208 eV  558.29 nm  f=0.0882  <S**2>=0.000
     245 -> 247        0.64043
     246 -> 248       -0.27480

 Excited State   3:      Singlet-A      2.9891 eV  414.79 nm  f=0.0003  <S**2>=0.000
     241 -> 247        0.11184
     242 -> 247       -0.23540
     243 -> 247        0.64760

 Excited State   4:      Singlet-A      3.0192 eV  410.65 nm  f=0.0018  <S**2>=0.000
     241 -> 247        0.57272
     241 -> 248        0.11562
     241 -> 249        0.13967
     241 -> 250       -0.10426
     242 -> 247       -0.26675
     243 -> 247       -0.21661

 Excited State   5:      Singlet-A      3.1126 eV  398.33 nm  f=0.0016  <S**2>=0.000
     240 -> 247        0.66284
     240 -> 249       -0.16441
     240 -> 250       -0.10298

 The electronic state is 1-A.
 Alpha  occ. eigenvalues --  -46.90438 -19.26350 -19.25173 -19.20083 -19.19605
 Alpha  occ. eigenvalues --  -19.19429 -19.19391 -14.41888 -14.41002 -14.39041
 Alpha  occ. eigenvalues --  -14.38362 -10.36731 -10.35490 -10.33132 -10.32239
 Alpha  occ. eigenvalues --  -10.29566 -10.29001 -10.28997 -10.28269 -10.28253
 Alpha  occ. eigenvalues --  -10.27594 -10.27514 -10.27404 -10.27316 -10.26947
 Alpha  occ. eigenvalues --  -10.26373 -10.26176 -10.25932 -10.25910 -10.25874
 Alpha  occ. eigenvalues --  -10.25626 -10.25038 -10.24928 -10.24927 -10.24918
 Alpha  occ. eigenvalues --  -10.24909 -10.24730 -10.24600 -10.24500 -10.24489
 Alpha  occ. eigenvalues --  -10.24372 -10.24173 -10.23896 -10.23507 -10.23454
 Alpha  occ. eigenvalues --  -10.23368 -10.23270 -10.23270 -10.23255 -10.23235
 Alpha  occ. eigenvalues --  -10.23173 -10.23133 -10.22994 -10.22866 -10.22787
 Alpha  occ. eigenvalues --  -10.22763 -10.22671 -10.22613 -10.22439 -10.22438
 Alpha  occ. eigenvalues --  -10.22341 -10.22159 -10.21997 -10.21904 -10.21775
 Alpha  occ. eigenvalues --  -10.21634  -3.12835  -1.85689  -1.85216  -1.85068
 Alpha  occ. eigenvalues --   -1.11913  -1.10221  -1.04401  -1.02786  -1.02593
 Alpha  occ. eigenvalues --   -1.01737  -1.01575  -0.98463  -0.97324  -0.96764
 Alpha  occ. eigenvalues --   -0.88296  -0.85334  -0.84539  -0.84240  -0.83930
 Alpha  occ. eigenvalues --   -0.83252  -0.82660  -0.82522  -0.80968  -0.80557
 Alpha  occ. eigenvalues --   -0.80397  -0.79726  -0.78821  -0.78300  -0.77609
 Alpha  occ. eigenvalues --   -0.76834  -0.76385  -0.75815  -0.75382  -0.74792
 Alpha  occ. eigenvalues --   -0.74367  -0.72946  -0.72480  -0.71878  -0.70689
 Alpha  occ. eigenvalues --   -0.70621  -0.69683  -0.69503  -0.68618  -0.68014
 Alpha  occ. eigenvalues --   -0.67572  -0.67016  -0.66449  -0.64753  -0.64665
 Alpha  occ. eigenvalues --   -0.63251  -0.62860  -0.61829  -0.61273  -0.60636
 Alpha  occ. eigenvalues --   -0.60205  -0.60066  -0.59280  -0.59132  -0.58191
 Alpha  occ. eigenvalues --   -0.57678  -0.57124  -0.56697  -0.56553  -0.54951
 Alpha  occ. eigenvalues --   -0.54486  -0.54068  -0.53882  -0.53709  -0.53272
 Alpha  occ. eigenvalues --   -0.52159  -0.51220  -0.50886  -0.50797  -0.50036
 Alpha  occ. eigenvalues --   -0.49856  -0.49555  -0.49204  -0.48986  -0.48809
 Alpha  occ. eigenvalues --   -0.48488  -0.47876  -0.47724  -0.47615  -0.47262
 Alpha  occ. eigenvalues --   -0.47067  -0.46870  -0.46653  -0.46434  -0.46275
 Alpha  occ. eigenvalues --   -0.45964  -0.45869  -0.45694  -0.45484  -0.45113
 Alpha  occ. eigenvalues --   -0.44926  -0.44832  -0.44721  -0.44393  -0.44306
 Alpha  occ. eigenvalues --   -0.44066  -0.43930  -0.43809  -0.43685  -0.43516
 Alpha  occ. eigenvalues --   -0.43396  -0.43334  -0.43106  -0.42745  -0.42689
 Alpha  occ. eigenvalues --   -0.42280  -0.42025  -0.41750  -0.41530  -0.41319
 Alpha  occ. eigenvalues --   -0.41258  -0.41108  -0.40872  -0.40722  -0.40693
 Alpha  occ. eigenvalues --   -0.40422  -0.40331  -0.40145  -0.40012  -0.39610
 Alpha  occ. eigenvalues --   -0.39458  -0.39408  -0.39101  -0.39050  -0.38918
 Alpha  occ. eigenvalues --   -0.38774  -0.38442  -0.38147  -0.38002  -0.37719
 Alpha  occ. eigenvalues --   -0.37556  -0.37461  -0.37177  -0.37044  -0.36923
 Alpha  occ. eigenvalues --   -0.36827  -0.36497  -0.36136  -0.36085  -0.35839
 Alpha  occ. eigenvalues --   -0.35627  -0.35617  -0.35428  -0.35232  -0.34958
 Alpha  occ. eigenvalues --   -0.34758  -0.34342  -0.34177  -0.34049  -0.33660
 Alpha  occ. eigenvalues --   -0.33534  -0.33210  -0.32681  -0.32560  -0.32229
 Alpha  occ. eigenvalues --   -0.32123  -0.32019  -0.31745  -0.31561  -0.31320
 Alpha  occ. eigenvalues --   -0.31239  -0.30612  -0.29657  -0.29424  -0.29256
 Alpha  occ. eigenvalues --   -0.29187  -0.28908  -0.28412  -0.26787  -0.26016
 Alpha  occ. eigenvalues --   -0.25689  -0.25385  -0.25058  -0.23995  -0.21093
 Alpha  occ. eigenvalues --   -0.18607
 Alpha virt. eigenvalues --   -0.11189  -0.05588  -0.04014  -0.02300  -0.00318
 Alpha virt. eigenvalues --    0.00473   0.00983   0.01381   0.01455   0.03082
 Alpha virt. eigenvalues --    0.03498   0.04219   0.04627   0.05221   0.05747

 Mulliken charges:
               1
     1  Mg   0.990167
     2  C   -0.028532
     3  C   -0.091563
     4  C   -0.051238
     5  C   -0.078349
     6  N   -0.426686
     7  C    0.049482
     8  C   -0.032113
     9  C   -0.167960
    10  C    0.146980
    11  C    0.013416
    12  C    0.028184
    13  C   -0.031445
    14  C    0.228334
    15  O   -0.286117
    16  O   -0.369380
    17  N   -0.533745
    18  C    0.151536
    19  C   -0.158515
    20  C   -0.113397
    21  C    0.184711
    22  C    0.031811
    23  C    0.084941
    24  O   -0.273162
    25  C   -0.030682
    26  N   -0.354436
    27  C    0.064857
    28  C   -0.227525
    29  C    0.028599
    30  C    0.015761
    31  C    0.027610
    32  C    0.000852
    33  C   -0.070603
    34  N   -0.483909
    35  C    0.149916
    36  C   -0.195551
    37  C   -0.064090
    38  C    0.168504
    39  C    0.068332
    40  C    0.142698
    41  O   -0.218043
    42  C   -0.097381
    43  C    0.268094
    44  O   -0.243151
    45  O   -0.361576
    46  C    0.127626
    47  C    0.237376
    48  C   -0.146342
    49  C   -0.210605
    50  C    0.020206
    51  C    0.004208
    52  C    0.011843
    53  C   -0.023684
    54  C   -0.169658
    55  C   -0.017462
    56  C   -0.028052
    57  C   -0.083947
    58  C    0.018362
    59  C   -0.220067
    60  C   -0.002319
    61  C   -0.039715
    62  C   -0.045700
    63  C   -0.024798
    64  C   -0.236658
    65  C   -0.021472
    66  C   -0.071629
    67  H   -0.004513
    68  H    0.026489
    69  H   -0.000167
    70  H    0.056841
    71  H    0.060751
    72  H    0.055166
    73  H    0.028292
    74  H    0.049814
    75  H    0.049891
    76  H    0.045644
    77  H    0.064705
    78  H    0.053875
    79  H    0.065168
    80  H    0.062682
    81  H    0.054636
    82  H    0.074179
    83  H    0.057858
    84  H    0.053030
    85  H    0.050791
    86  H    0.025818
    87  H    0.054859
    88  H    0.034549
    89  H    0.059995
    90  H    0.045771
    91  H    0.041509
    92  H    0.042137
    93  H    0.037431
    94  H    0.066053
    95  H    0.042490
    96  H    0.064126
    97  H    0.068030
    98  H    0.072336
    99  H    0.045920
   100  H    0.068690
   101  H    0.057870
   102  H    0.057417
   103  H    0.065157
   104  H    0.026657
   105  H    0.049710
   106  H    0.045128
   107  H    0.043886
   108  H    0.031200
   109  H    0.027133
   110  H    0.024149
   111  H    0.036679
   112  H    0.002416
   113  H    0.009259
   114  H    0.026013
   115  H    0.032150
   116  H    0.026314
   117  H    0.045746
   118  H    0.023174
   119  H    0.035134
   120  H    0.028712
   121  H    0.041167
   122  H    0.022631
   123  H    0.037453
   124  H    0.028571
   125  H    0.036473
   126  H    0.034194
   127  H    0.035724
   128  H    0.033095
   129  H    0.017523
   130  H    0.025287
   131  H    0.029160
   132  H    0.034109
   133  H    0.025960
   134  H    0.045987
   135  H    0.038538
   136  H    0.044330
   137  H    0.045729
   138  H    0.039011
   139  H    0.037915
   140  H    0.045245
 Sum of Mulliken charges =  -0.00000

 Dipole moment (field-independent basis, Debye):
    X=             -1.3031    Y=              3.7877    Z=              0.3316  Tot=              4.0193
 Quadrupole moment (field-independent basis, Debye-Ang):
   XX=           -358.6699   YY=           -414.8811   ZZ=           -411.6613
   XY=            -12.8308   XZ=             16.4463   YZ=              5.7789

 Normal termination of Gaussian 16 at Wed May  4 12:32:40 2022.
