 Gaussian 16, Revision A.03,
 Gaussian 16:  ES64L-G16RevA.03 25-Dec-2016

 --------------------------------
 #p wB97XD/Def2SVP td=(nstates=5)
 --------------------------------

 -----------------------------------------------------
 step_1701_chromophore_25 TDDFT with wB97XD functional
 -----------------------------------------------------
 Symbolic Z-matrix:
 Charge =  0 Multiplicity = 1

                         Standard orientation:
 ---------------------------------------------------------------------
 Center     Atomic      Atomic             Coordinates (Angstroms)
 Number     Number       Type             X           Y           Z
 ---------------------------------------------------------------------
      1         12           0        5.850210    0.371737    0.024071
      2          6           0        3.544355   -2.218650   -0.006032
      3          6           0        3.312393    2.677691   -0.203506
      4          6           0        8.145959    2.662405   -0.527695
      5          6           0        8.459357   -1.982445    0.283836
      6          7           0        3.750971    0.132123   -0.097069
      7          6           0        2.971662   -0.946375   -0.101633
      8          6           0        1.471075   -0.611063   -0.041750
      9          6           0        1.513258    0.957092   -0.092593
     10          6           0        2.929697    1.315158   -0.188991
     11          6           0        0.714973    1.566269   -1.223044
     12          6           0        0.737250   -1.026047    1.226211
     13          6           0       -0.396757   -2.075705    1.167358
     14          6           0       -1.851082   -1.786020    1.651799
     15          8           0       -2.189860   -1.792102    2.845475
     16          8           0       -2.716833   -1.497868    0.605789
     17          7           0        5.704110    2.395707   -0.099459
     18          6           0        4.627933    3.222172   -0.223053
     19          6           0        5.006805    4.578717   -0.173385
     20          6           0        6.441637    4.585870   -0.226438
     21          6           0        6.869557    3.139197   -0.373794
     22          6           0        3.927146    5.745406    0.065545
     23          6           0        7.459737    5.780209   -0.003505
     24          8           0        8.719667    5.697576    0.007892
     25          6           0        6.933757    7.161792    0.255739
     26          7           0        7.962243    0.333064   -0.095809
     27          6           0        8.634688    1.380181   -0.461846
     28          6           0       10.143195    1.137022   -0.382501
     29          6           0       10.187854   -0.223384    0.219388
     30          6           0        8.816236   -0.651583    0.210359
     31          6           0       10.663998    1.279107   -1.834119
     32          6           0       11.033439   -0.526392    1.604130
     33          6           0       10.280120   -0.216330    2.934945
     34          7           0        6.013931   -1.685547    0.001254
     35          6           0        7.131645   -2.463900    0.277471
     36          6           0        6.724940   -3.895911    0.293500
     37          6           0        5.294632   -3.814411    0.219140
     38          6           0        4.927727   -2.485667    0.118989
     39          6           0        7.616876   -5.050715    0.349730
     40          6           0        4.063450   -4.618483    0.225024
     41          8           0        3.822458   -5.821033    0.291419
     42          6           0        2.974322   -3.569020    0.035150
     43          6           0        2.299908   -3.821720   -1.202409
     44          8           0        2.681201   -3.675297   -2.344919
     45          8           0        1.074294   -4.298859   -0.892271
     46          6           0        0.408829   -5.040004   -1.956478
     47          6           0       -4.099160   -1.227537    1.061739
     48          6           0       -4.976990   -1.048980   -0.184813
     49          6           0       -6.280847   -0.626144   -0.242261
     50          6           0       -7.020769   -0.131754    0.897930
     51          6           0       -7.037885   -0.698347   -1.535317
     52          6           0       -7.105279    0.503242   -2.483572
     53          6           0       -8.496742    1.155580   -2.528394
     54          6           0       -9.510240    0.791018   -3.550559
     55          6           0       -9.954191    1.903958   -4.496097
     56          6           0      -10.815807    0.176041   -2.991590
     57          6           0      -11.443888    0.933598   -1.818548
     58          6           0      -13.004310    0.711260   -1.678958
     59          6           0      -13.509067   -0.012935   -0.362101
     60          6           0      -14.776328   -0.864210   -0.644806
     61          6           0      -13.917450    1.000114    0.763342
     62          6           0      -13.802693    0.471267    2.231756
     63          6           0      -13.088643    1.386418    3.259750
     64          6           0      -11.648542    0.805471    3.745814
     65          6           0      -11.275915    1.473190    5.144183
     66          6           0      -10.490666    1.087422    2.688011
     67          1           0        2.551244    3.460650   -0.219611
     68          1           0        8.908220    3.429737   -0.676200
     69          1           0        9.264169   -2.699720    0.453864
     70          1           0        0.929917   -1.004860   -0.901991
     71          1           0        1.187103    1.412801    0.841881
     72          1           0        1.353816    1.916217   -2.033795
     73          1           0        0.236426    2.485488   -0.887572
     74          1           0       -0.129512    0.938345   -1.508725
     75          1           0        0.384809   -0.192249    1.834957
     76          1           0        1.411402   -1.574597    1.883604
     77          1           0       -0.079881   -2.958247    1.722964
     78          1           0       -0.495601   -2.439463    0.144304
     79          1           0        3.898014    6.443452   -0.770968
     80          1           0        4.421227    6.183521    0.932974
     81          1           0        2.899292    5.469623    0.300334
     82          1           0        6.512127    7.237837    1.257714
     83          1           0        6.260091    7.423994   -0.561179
     84          1           0        7.743562    7.889298    0.198664
     85          1           0       10.647812    1.886649    0.228190
     86          1           0       10.479612   -0.802544   -0.656968
     87          1           0        9.794371    1.190342   -2.486210
     88          1           0       11.333982    0.497497   -2.191326
     89          1           0       11.245201    2.200540   -1.830863
     90          1           0       11.966869    0.037755    1.604599
     91          1           0       11.324197   -1.569011    1.477917
     92          1           0       11.078292   -0.176587    3.675880
     93          1           0        9.742847   -1.084398    3.315784
     94          1           0        9.563757    0.600464    3.025251
     95          1           0        8.384890   -4.943485    1.117008
     96          1           0        8.149568   -5.130791   -0.597831
     97          1           0        7.008300   -5.905094    0.647469
     98          1           0        2.304121   -3.717601    0.881454
     99          1           0       -0.046017   -4.314779   -2.630783
    100          1           0       -0.291694   -5.819722   -1.657547
    101          1           0        1.199551   -5.489402   -2.555866
    102          1           0       -4.219379   -0.381648    1.739542
    103          1           0       -4.538488   -2.079214    1.580926
    104          1           0       -4.521601   -1.407231   -1.108043
    105          1           0       -6.910567    0.941519    0.743628
    106          1           0       -6.613571   -0.357499    1.884244
    107          1           0       -8.103492   -0.259936    0.917868
    108          1           0       -8.046273   -0.990277   -1.244053
    109          1           0       -6.660017   -1.466388   -2.210715
    110          1           0       -7.029171    0.037076   -3.466184
    111          1           0       -6.326345    1.244438   -2.308064
    112          1           0       -8.411184    2.238937   -2.446917
    113          1           0       -8.896942    1.094084   -1.516910
    114          1           0       -9.074767    0.014712   -4.179189
    115          1           0       -9.644303    1.457404   -5.440798
    116          1           0       -9.372735    2.813813   -4.349695
    117          1           0      -10.987993    2.223841   -4.624481
    118          1           0      -10.639255   -0.833043   -2.617656
    119          1           0      -11.521991    0.132450   -3.820294
    120          1           0      -11.187243    1.993071   -1.805684
    121          1           0      -11.042978    0.553823   -0.878373
    122          1           0      -13.228990   -0.051969   -2.423829
    123          1           0      -13.538069    1.652116   -1.811465
    124          1           0      -12.683480   -0.582338    0.065374
    125          1           0      -14.685555   -1.375442   -1.602985
    126          1           0      -15.693300   -0.275161   -0.672595
    127          1           0      -14.878580   -1.529421    0.212808
    128          1           0      -14.890975    1.491389    0.738174
    129          1           0      -13.150491    1.774140    0.756806
    130          1           0      -13.325591   -0.499122    2.091272
    131          1           0      -14.815396    0.344426    2.613231
    132          1           0      -13.780535    1.721694    4.033349
    133          1           0      -12.793713    2.304485    2.751679
    134          1           0      -11.684098   -0.284180    3.738460
    135          1           0      -12.086250    2.121138    5.480013
    136          1           0      -10.355873    2.053481    5.221471
    137          1           0      -11.238030    0.574087    5.759307
    138          1           0      -10.043513    2.064516    2.872182
    139          1           0      -10.699612    1.048550    1.618832
    140          1           0       -9.761419    0.289588    2.826717
 ---------------------------------------------------------------------

 SCF Done:  E(RwB97XD) =  -3007.80202732     A.U. after   17 cycles

 Excitation energies and oscillator strengths:

 Excited State   1:      Singlet-A      1.6093 eV  770.44 nm  f=0.3921  <S**2>=0.000
     245 -> 248       -0.18104
     246 -> 247        0.68308
     245 <- 248       -0.11562
 This state for optimization and/or second-order correction.
 Total Energy, E(TD-HF/TD-DFT) =  -3007.74288778
 Copying the excited state density for this state as the 1-particle RhoCI density.

 Excited State   2:      Singlet-A      2.1675 eV  572.00 nm  f=0.0865  <S**2>=0.000
     245 -> 247        0.62409
     246 -> 248        0.31140

 Excited State   3:      Singlet-A      3.3339 eV  371.88 nm  f=0.0010  <S**2>=0.000
     242 -> 247       -0.32061
     243 -> 247        0.61079

 Excited State   4:      Singlet-A      3.3868 eV  366.08 nm  f=0.3475  <S**2>=0.000
     242 -> 247       -0.33672
     243 -> 247       -0.17429
     245 -> 247       -0.21837
     246 -> 248        0.53772

 Excited State   5:      Singlet-A      3.5018 eV  354.06 nm  f=0.0796  <S**2>=0.000
     239 -> 247        0.14724
     239 -> 249       -0.11969
     239 -> 250       -0.10265
     241 -> 247        0.45082
     241 -> 248        0.16718
     241 -> 249       -0.27954
     241 -> 250       -0.20306
     242 -> 247       -0.15686
     243 -> 247       -0.11808
     245 -> 247        0.10289
     246 -> 248       -0.15461

 The electronic state is 1-A.
 Alpha  occ. eigenvalues --  -46.93386 -19.30893 -19.29736 -19.24735 -19.24343
 Alpha  occ. eigenvalues --  -19.24302 -19.24183 -14.46869 -14.46179 -14.44063
 Alpha  occ. eigenvalues --  -14.43203 -10.43483 -10.42308 -10.40107 -10.39054
 Alpha  occ. eigenvalues --  -10.36051 -10.35361 -10.35225 -10.34761 -10.34697
 Alpha  occ. eigenvalues --  -10.33915 -10.33792 -10.33679 -10.33543 -10.33528
 Alpha  occ. eigenvalues --  -10.32892 -10.32408 -10.32290 -10.32226 -10.32134
 Alpha  occ. eigenvalues --  -10.32130 -10.31267 -10.31263 -10.31254 -10.31184
 Alpha  occ. eigenvalues --  -10.31143 -10.31092 -10.30857 -10.30823 -10.30749
 Alpha  occ. eigenvalues --  -10.30641 -10.30595 -10.30173 -10.30065 -10.29875
 Alpha  occ. eigenvalues --  -10.29836 -10.29777 -10.29663 -10.29593 -10.29586
 Alpha  occ. eigenvalues --  -10.29564 -10.29561 -10.29372 -10.29179 -10.29111
 Alpha  occ. eigenvalues --  -10.29064 -10.29032 -10.28993 -10.28864 -10.28807
 Alpha  occ. eigenvalues --  -10.28749 -10.28525 -10.28354 -10.28345 -10.28145
 Alpha  occ. eigenvalues --  -10.28059  -3.19598  -1.93207  -1.92738  -1.92586
 Alpha  occ. eigenvalues --   -1.19295  -1.17586  -1.11836  -1.10433  -1.09949
 Alpha  occ. eigenvalues --   -1.09067  -1.08933  -1.05809  -1.04688  -1.04149
 Alpha  occ. eigenvalues --   -0.95831  -0.93005  -0.92102  -0.91792  -0.91590
 Alpha  occ. eigenvalues --   -0.90811  -0.90335  -0.90122  -0.88573  -0.88240
 Alpha  occ. eigenvalues --   -0.88116  -0.87393  -0.86478  -0.85897  -0.85229
 Alpha  occ. eigenvalues --   -0.84479  -0.84036  -0.83589  -0.83040  -0.82413
 Alpha  occ. eigenvalues --   -0.82035  -0.80523  -0.80061  -0.79635  -0.78341
 Alpha  occ. eigenvalues --   -0.78239  -0.77254  -0.77207  -0.76307  -0.75682
 Alpha  occ. eigenvalues --   -0.75118  -0.74560  -0.73977  -0.72357  -0.72226
 Alpha  occ. eigenvalues --   -0.70794  -0.70508  -0.69410  -0.68909  -0.68073
 Alpha  occ. eigenvalues --   -0.67716  -0.67640  -0.66782  -0.66560  -0.65646
 Alpha  occ. eigenvalues --   -0.65352  -0.64769  -0.64317  -0.63938  -0.62420
 Alpha  occ. eigenvalues --   -0.61916  -0.61544  -0.61337  -0.61099  -0.60705
 Alpha  occ. eigenvalues --   -0.59534  -0.58646  -0.58254  -0.58203  -0.57415
 Alpha  occ. eigenvalues --   -0.57326  -0.56967  -0.56669  -0.56381  -0.56191
 Alpha  occ. eigenvalues --   -0.55829  -0.55341  -0.55120  -0.54904  -0.54632
 Alpha  occ. eigenvalues --   -0.54554  -0.54306  -0.54026  -0.53837  -0.53652
 Alpha  occ. eigenvalues --   -0.53317  -0.53268  -0.53049  -0.52800  -0.52447
 Alpha  occ. eigenvalues --   -0.52248  -0.52188  -0.52098  -0.51718  -0.51602
 Alpha  occ. eigenvalues --   -0.51390  -0.51234  -0.51110  -0.51007  -0.50855
 Alpha  occ. eigenvalues --   -0.50679  -0.50619  -0.50360  -0.50024  -0.49981
 Alpha  occ. eigenvalues --   -0.49559  -0.49363  -0.49048  -0.48668  -0.48538
 Alpha  occ. eigenvalues --   -0.48465  -0.48314  -0.48113  -0.48012  -0.47891
 Alpha  occ. eigenvalues --   -0.47559  -0.47522  -0.47363  -0.47126  -0.46794
 Alpha  occ. eigenvalues --   -0.46652  -0.46565  -0.46247  -0.46209  -0.46070
 Alpha  occ. eigenvalues --   -0.45821  -0.45601  -0.45279  -0.45133  -0.44870
 Alpha  occ. eigenvalues --   -0.44661  -0.44600  -0.44350  -0.44212  -0.44051
 Alpha  occ. eigenvalues --   -0.43918  -0.43564  -0.43457  -0.43219  -0.42893
 Alpha  occ. eigenvalues --   -0.42746  -0.42638  -0.42442  -0.42229  -0.41917
 Alpha  occ. eigenvalues --   -0.41840  -0.41270  -0.41221  -0.41057  -0.40609
 Alpha  occ. eigenvalues --   -0.40549  -0.40286  -0.39613  -0.39556  -0.39181
 Alpha  occ. eigenvalues --   -0.39131  -0.39063  -0.38740  -0.38590  -0.38318
 Alpha  occ. eigenvalues --   -0.38288  -0.37613  -0.36439  -0.36367  -0.36363
 Alpha  occ. eigenvalues --   -0.36061  -0.35600  -0.35491  -0.33412  -0.33058
 Alpha  occ. eigenvalues --   -0.32912  -0.32044  -0.31492  -0.30715  -0.26106
 Alpha  occ. eigenvalues --   -0.22731
 Alpha virt. eigenvalues --   -0.07049  -0.00122   0.02197   0.04197   0.06404
 Alpha virt. eigenvalues --    0.06552   0.07621   0.08085   0.08209   0.09286
 Alpha virt. eigenvalues --    0.10157   0.10800   0.11529   0.11948   0.12514

 Mulliken charges:
               1
     1  Mg   0.975468
     2  C   -0.020079
     3  C   -0.113528
     4  C   -0.069818
     5  C   -0.095603
     6  N   -0.394103
     7  C    0.012372
     8  C   -0.010453
     9  C   -0.137818
    10  C    0.141655
    11  C    0.023004
    12  C    0.038216
    13  C   -0.014657
    14  C    0.220459
    15  O   -0.284706
    16  O   -0.369256
    17  N   -0.504699
    18  C    0.148454
    19  C   -0.152762
    20  C   -0.110578
    21  C    0.180352
    22  C    0.047198
    23  C    0.083888
    24  O   -0.266802
    25  C   -0.021055
    26  N   -0.313403
    27  C    0.054318
    28  C   -0.204312
    29  C    0.057282
    30  C   -0.004770
    31  C    0.033856
    32  C    0.016854
    33  C   -0.054890
    34  N   -0.449989
    35  C    0.142172
    36  C   -0.192104
    37  C   -0.064653
    38  C    0.150269
    39  C    0.077247
    40  C    0.126233
    41  O   -0.207890
    42  C   -0.054502
    43  C    0.238962
    44  O   -0.236523
    45  O   -0.358501
    46  C    0.143302
    47  C    0.249971
    48  C   -0.158848
    49  C   -0.190865
    50  C    0.034773
    51  C    0.024492
    52  C    0.028447
    53  C   -0.008462
    54  C   -0.139296
    55  C   -0.009171
    56  C   -0.006916
    57  C   -0.060461
    58  C    0.033716
    59  C   -0.185531
    60  C    0.010245
    61  C   -0.023468
    62  C   -0.031029
    63  C   -0.007724
    64  C   -0.208325
    65  C   -0.009660
    66  C   -0.050400
    67  H   -0.014642
    68  H    0.021859
    69  H   -0.004998
    70  H    0.045931
    71  H    0.049598
    72  H    0.048791
    73  H    0.022354
    74  H    0.044867
    75  H    0.042951
    76  H    0.036622
    77  H    0.059630
    78  H    0.043789
    79  H    0.061212
    80  H    0.054070
    81  H    0.052975
    82  H    0.071045
    83  H    0.052504
    84  H    0.052289
    85  H    0.042269
    86  H    0.011345
    87  H    0.047967
    88  H    0.029465
    89  H    0.055249
    90  H    0.038609
    91  H    0.034441
    92  H    0.036401
    93  H    0.030158
    94  H    0.059962
    95  H    0.036655
    96  H    0.059477
    97  H    0.064651
    98  H    0.062177
    99  H    0.041779
   100  H    0.066084
   101  H    0.052944
   102  H    0.052138
   103  H    0.059549
   104  H    0.024036
   105  H    0.041988
   106  H    0.041152
   107  H    0.035527
   108  H    0.018517
   109  H    0.021364
   110  H    0.014847
   111  H    0.031048
   112  H   -0.005550
   113  H   -0.008617
   114  H    0.014240
   115  H    0.026652
   116  H    0.020373
   117  H    0.040349
   118  H    0.014730
   119  H    0.024590
   120  H    0.020156
   121  H    0.020901
   122  H    0.009327
   123  H    0.030922
   124  H    0.014632
   125  H    0.030834
   126  H    0.027535
   127  H    0.029288
   128  H    0.025917
   129  H    0.001479
   130  H    0.012683
   131  H    0.021989
   132  H    0.027682
   133  H    0.014122
   134  H    0.035241
   135  H    0.032211
   136  H    0.039488
   137  H    0.039733
   138  H    0.032207
   139  H    0.023468
   140  H    0.037177
 Sum of Mulliken charges =  -0.00000

 Dipole moment (field-independent basis, Debye):
    X=             -1.3542    Y=              4.1436    Z=              0.2924  Tot=              4.3691
 Quadrupole moment (field-independent basis, Debye-Ang):
   XX=           -359.4358   YY=           -412.3204   ZZ=           -411.4408
   XY=            -10.1911   XZ=             16.5410   YZ=              5.8535

 Normal termination of Gaussian 16 at Wed May  4 13:02:34 2022.
