 Gaussian 16, Revision A.03,
 Gaussian 16:  ES64L-G16RevA.03 25-Dec-2016

 --------------------
 #p ZINDO=(nstates=5)
 --------------------

 ------------------------------
 step_1701_chromophore_25 ZINDO
 ------------------------------
 Symbolic Z-matrix:
 Charge =  0 Multiplicity = 1

                         Standard orientation:
 ---------------------------------------------------------------------
 Center     Atomic      Atomic             Coordinates (Angstroms)
 Number     Number       Type             X           Y           Z
 ---------------------------------------------------------------------
      1         12           0        5.850210    0.371737    0.024071
      2          6           0        3.544355   -2.218650   -0.006032
      3          6           0        3.312393    2.677691   -0.203506
      4          6           0        8.145959    2.662405   -0.527695
      5          6           0        8.459357   -1.982445    0.283836
      6          7           0        3.750971    0.132123   -0.097069
      7          6           0        2.971662   -0.946375   -0.101633
      8          6           0        1.471075   -0.611063   -0.041750
      9          6           0        1.513258    0.957092   -0.092593
     10          6           0        2.929697    1.315158   -0.188991
     11          6           0        0.714973    1.566269   -1.223044
     12          6           0        0.737250   -1.026047    1.226211
     13          6           0       -0.396757   -2.075705    1.167358
     14          6           0       -1.851082   -1.786020    1.651799
     15          8           0       -2.189860   -1.792102    2.845475
     16          8           0       -2.716833   -1.497868    0.605789
     17          7           0        5.704110    2.395707   -0.099459
     18          6           0        4.627933    3.222172   -0.223053
     19          6           0        5.006805    4.578717   -0.173385
     20          6           0        6.441637    4.585870   -0.226438
     21          6           0        6.869557    3.139197   -0.373794
     22          6           0        3.927146    5.745406    0.065545
     23          6           0        7.459737    5.780209   -0.003505
     24          8           0        8.719667    5.697576    0.007892
     25          6           0        6.933757    7.161792    0.255739
     26          7           0        7.962243    0.333064   -0.095809
     27          6           0        8.634688    1.380181   -0.461846
     28          6           0       10.143195    1.137022   -0.382501
     29          6           0       10.187854   -0.223384    0.219388
     30          6           0        8.816236   -0.651583    0.210359
     31          6           0       10.663998    1.279107   -1.834119
     32          6           0       11.033439   -0.526392    1.604130
     33          6           0       10.280120   -0.216330    2.934945
     34          7           0        6.013931   -1.685547    0.001254
     35          6           0        7.131645   -2.463900    0.277471
     36          6           0        6.724940   -3.895911    0.293500
     37          6           0        5.294632   -3.814411    0.219140
     38          6           0        4.927727   -2.485667    0.118989
     39          6           0        7.616876   -5.050715    0.349730
     40          6           0        4.063450   -4.618483    0.225024
     41          8           0        3.822458   -5.821033    0.291419
     42          6           0        2.974322   -3.569020    0.035150
     43          6           0        2.299908   -3.821720   -1.202409
     44          8           0        2.681201   -3.675297   -2.344919
     45          8           0        1.074294   -4.298859   -0.892271
     46          6           0        0.408829   -5.040004   -1.956478
     47          6           0       -4.099160   -1.227537    1.061739
     48          6           0       -4.976990   -1.048980   -0.184813
     49          6           0       -6.280847   -0.626144   -0.242261
     50          6           0       -7.020769   -0.131754    0.897930
     51          6           0       -7.037885   -0.698347   -1.535317
     52          6           0       -7.105279    0.503242   -2.483572
     53          6           0       -8.496742    1.155580   -2.528394
     54          6           0       -9.510240    0.791018   -3.550559
     55          6           0       -9.954191    1.903958   -4.496097
     56          6           0      -10.815807    0.176041   -2.991590
     57          6           0      -11.443888    0.933598   -1.818548
     58          6           0      -13.004310    0.711260   -1.678958
     59          6           0      -13.509067   -0.012935   -0.362101
     60          6           0      -14.776328   -0.864210   -0.644806
     61          6           0      -13.917450    1.000114    0.763342
     62          6           0      -13.802693    0.471267    2.231756
     63          6           0      -13.088643    1.386418    3.259750
     64          6           0      -11.648542    0.805471    3.745814
     65          6           0      -11.275915    1.473190    5.144183
     66          6           0      -10.490666    1.087422    2.688011
     67          1           0        2.551244    3.460650   -0.219611
     68          1           0        8.908220    3.429737   -0.676200
     69          1           0        9.264169   -2.699720    0.453864
     70          1           0        0.929917   -1.004860   -0.901991
     71          1           0        1.187103    1.412801    0.841881
     72          1           0        1.353816    1.916217   -2.033795
     73          1           0        0.236426    2.485488   -0.887572
     74          1           0       -0.129512    0.938345   -1.508725
     75          1           0        0.384809   -0.192249    1.834957
     76          1           0        1.411402   -1.574597    1.883604
     77          1           0       -0.079881   -2.958247    1.722964
     78          1           0       -0.495601   -2.439463    0.144304
     79          1           0        3.898014    6.443452   -0.770968
     80          1           0        4.421227    6.183521    0.932974
     81          1           0        2.899292    5.469623    0.300334
     82          1           0        6.512127    7.237837    1.257714
     83          1           0        6.260091    7.423994   -0.561179
     84          1           0        7.743562    7.889298    0.198664
     85          1           0       10.647812    1.886649    0.228190
     86          1           0       10.479612   -0.802544   -0.656968
     87          1           0        9.794371    1.190342   -2.486210
     88          1           0       11.333982    0.497497   -2.191326
     89          1           0       11.245201    2.200540   -1.830863
     90          1           0       11.966869    0.037755    1.604599
     91          1           0       11.324197   -1.569011    1.477917
     92          1           0       11.078292   -0.176587    3.675880
     93          1           0        9.742847   -1.084398    3.315784
     94          1           0        9.563757    0.600464    3.025251
     95          1           0        8.384890   -4.943485    1.117008
     96          1           0        8.149568   -5.130791   -0.597831
     97          1           0        7.008300   -5.905094    0.647469
     98          1           0        2.304121   -3.717601    0.881454
     99          1           0       -0.046017   -4.314779   -2.630783
    100          1           0       -0.291694   -5.819722   -1.657547
    101          1           0        1.199551   -5.489402   -2.555866
    102          1           0       -4.219379   -0.381648    1.739542
    103          1           0       -4.538488   -2.079214    1.580926
    104          1           0       -4.521601   -1.407231   -1.108043
    105          1           0       -6.910567    0.941519    0.743628
    106          1           0       -6.613571   -0.357499    1.884244
    107          1           0       -8.103492   -0.259936    0.917868
    108          1           0       -8.046273   -0.990277   -1.244053
    109          1           0       -6.660017   -1.466388   -2.210715
    110          1           0       -7.029171    0.037076   -3.466184
    111          1           0       -6.326345    1.244438   -2.308064
    112          1           0       -8.411184    2.238937   -2.446917
    113          1           0       -8.896942    1.094084   -1.516910
    114          1           0       -9.074767    0.014712   -4.179189
    115          1           0       -9.644303    1.457404   -5.440798
    116          1           0       -9.372735    2.813813   -4.349695
    117          1           0      -10.987993    2.223841   -4.624481
    118          1           0      -10.639255   -0.833043   -2.617656
    119          1           0      -11.521991    0.132450   -3.820294
    120          1           0      -11.187243    1.993071   -1.805684
    121          1           0      -11.042978    0.553823   -0.878373
    122          1           0      -13.228990   -0.051969   -2.423829
    123          1           0      -13.538069    1.652116   -1.811465
    124          1           0      -12.683480   -0.582338    0.065374
    125          1           0      -14.685555   -1.375442   -1.602985
    126          1           0      -15.693300   -0.275161   -0.672595
    127          1           0      -14.878580   -1.529421    0.212808
    128          1           0      -14.890975    1.491389    0.738174
    129          1           0      -13.150491    1.774140    0.756806
    130          1           0      -13.325591   -0.499122    2.091272
    131          1           0      -14.815396    0.344426    2.613231
    132          1           0      -13.780535    1.721694    4.033349
    133          1           0      -12.793713    2.304485    2.751679
    134          1           0      -11.684098   -0.284180    3.738460
    135          1           0      -12.086250    2.121138    5.480013
    136          1           0      -10.355873    2.053481    5.221471
    137          1           0      -11.238030    0.574087    5.759307
    138          1           0      -10.043513    2.064516    2.872182
    139          1           0      -10.699612    1.048550    1.618832
    140          1           0       -9.761419    0.289588    2.826717
 ---------------------------------------------------------------------

 SCF Done:  E(RZINDO/S) =  -474.435623478     A.U. after   20 cycles

 Excitation energies and oscillator strengths:

 Excited State   1:      Singlet-A      1.2242 eV 1012.79 nm  f=0.6037  <S**2>=0.000
     175 ->178        -0.19043
     176 ->177         0.66202
 This state for optimization and/or second-order correction.
 Total Energy, E(CIS/TDA) =  -474.390635436
 Copying the excited state density for this state as the 1-particle RhoCI density.

 Excited State   2:      Singlet-A      1.9148 eV  647.51 nm  f=0.0263  <S**2>=0.000
     175 ->177         0.52402
     176 ->178         0.45085

 Excited State   3:      Singlet-A      2.9155 eV  425.25 nm  f=0.4013  <S**2>=0.000
     168 ->177        -0.20708
     168 ->178        -0.10605
     168 ->179        -0.24216
     168 ->180        -0.22376
     168 ->185        -0.16185
     175 ->177        -0.25879
     176 ->178         0.32757
     176 ->179         0.30198

 Excited State   4:      Singlet-A      2.9345 eV  422.51 nm  f=0.3131  <S**2>=0.000
     168 ->177         0.22845
     168 ->178         0.11832
     168 ->179         0.26392
     168 ->180         0.24901
     168 ->185         0.18211
     171 ->177        -0.12363
     175 ->177        -0.23100
     176 ->178         0.29117
     176 ->179         0.23190

 Excited State   5:      Singlet-A      3.0202 eV  410.51 nm  f=0.3784  <S**2>=0.000
     172 ->177         0.16125
     173 ->177         0.11750
     175 ->177         0.23648
     176 ->178        -0.25682
     176 ->179         0.51554
     176 ->180        -0.10774

 The electronic state is 1-A.
 Alpha  occ. eigenvalues --   -1.88847  -1.85305  -1.80463  -1.75971  -1.72216
 Alpha  occ. eigenvalues --   -1.70184  -1.66212  -1.60202  -1.59817  -1.56155
 Alpha  occ. eigenvalues --   -1.54506  -1.49722  -1.49346  -1.48189  -1.45477
 Alpha  occ. eigenvalues --   -1.44586  -1.43655  -1.41979  -1.39750  -1.38790
 Alpha  occ. eigenvalues --   -1.36794  -1.34548  -1.33574  -1.31575  -1.29799
 Alpha  occ. eigenvalues --   -1.27586  -1.25927  -1.21529  -1.20656  -1.19249
 Alpha  occ. eigenvalues --   -1.18307  -1.16694  -1.15446  -1.14718  -1.13726
 Alpha  occ. eigenvalues --   -1.12173  -1.09701  -1.09534  -1.04646  -1.03499
 Alpha  occ. eigenvalues --   -1.02227  -1.01269  -0.99296  -0.98878  -0.98525
 Alpha  occ. eigenvalues --   -0.97853  -0.95183  -0.93790  -0.92866  -0.91843
 Alpha  occ. eigenvalues --   -0.91425  -0.90769  -0.88250  -0.87398  -0.86898
 Alpha  occ. eigenvalues --   -0.85483  -0.85029  -0.83486  -0.81997  -0.80822
 Alpha  occ. eigenvalues --   -0.79134  -0.78901  -0.77917  -0.77187  -0.76359
 Alpha  occ. eigenvalues --   -0.75532  -0.75290  -0.74780  -0.74697  -0.73420
 Alpha  occ. eigenvalues --   -0.73121  -0.72634  -0.72313  -0.71437  -0.70860
 Alpha  occ. eigenvalues --   -0.70044  -0.68968  -0.68824  -0.68093  -0.67454
 Alpha  occ. eigenvalues --   -0.66965  -0.66746  -0.66500  -0.66267  -0.65391
 Alpha  occ. eigenvalues --   -0.64961  -0.64920  -0.64466  -0.64151  -0.64020
 Alpha  occ. eigenvalues --   -0.63664  -0.63224  -0.62376  -0.62180  -0.61999
 Alpha  occ. eigenvalues --   -0.61731  -0.61410  -0.61081  -0.60475  -0.60191
 Alpha  occ. eigenvalues --   -0.59843  -0.59366  -0.59212  -0.58683  -0.58641
 Alpha  occ. eigenvalues --   -0.58088  -0.57679  -0.57549  -0.57174  -0.56162
 Alpha  occ. eigenvalues --   -0.56028  -0.55754  -0.55524  -0.55226  -0.54599
 Alpha  occ. eigenvalues --   -0.54192  -0.54062  -0.53383  -0.53090  -0.52948
 Alpha  occ. eigenvalues --   -0.52824  -0.52417  -0.52109  -0.51611  -0.51322
 Alpha  occ. eigenvalues --   -0.50759  -0.50627  -0.50420  -0.50024  -0.49962
 Alpha  occ. eigenvalues --   -0.49702  -0.49695  -0.49250  -0.49208  -0.48987
 Alpha  occ. eigenvalues --   -0.48864  -0.48790  -0.48350  -0.48226  -0.47681
 Alpha  occ. eigenvalues --   -0.47510  -0.47119  -0.46614  -0.46439  -0.46253
 Alpha  occ. eigenvalues --   -0.45832  -0.45496  -0.45404  -0.45264  -0.44956
 Alpha  occ. eigenvalues --   -0.44777  -0.44600  -0.44387  -0.44164  -0.43953
 Alpha  occ. eigenvalues --   -0.43479  -0.43224  -0.42608  -0.42553  -0.42230
 Alpha  occ. eigenvalues --   -0.42017  -0.41506  -0.41417  -0.39036  -0.38564
 Alpha  occ. eigenvalues --   -0.37939  -0.36923  -0.35746  -0.34942  -0.34770
 Alpha  occ. eigenvalues --   -0.32979  -0.32264  -0.31834  -0.31169  -0.26719
 Alpha  occ. eigenvalues --   -0.21639
 Alpha virt. eigenvalues --   -0.08493  -0.02329  -0.00707   0.01114   0.01397
 Alpha virt. eigenvalues --    0.02717   0.03383   0.03512   0.04600   0.04697
 Alpha virt. eigenvalues --    0.05672   0.06388   0.07159   0.07792   0.08328

 Mulliken charges:
               1
     1  Mg   0.418537
     2  C   -0.053132
     3  C   -0.095541
     4  C   -0.042655
     5  C   -0.062959
     6  N   -0.293482
     7  C    0.140963
     8  C    0.010810
     9  C    0.008326
    10  C    0.134436
    11  C   -0.049912
    12  C   -0.017750
    13  C    0.000359
    14  C    0.461732
    15  O   -0.517010
    16  O   -0.261171
    17  N   -0.333894
    18  C    0.131308
    19  C   -0.000078
    20  C   -0.044637
    21  C    0.119141
    22  C   -0.049328
    23  C    0.322912
    24  O   -0.531605
    25  C   -0.025627
    26  N   -0.246660
    27  C    0.150324
    28  C    0.003582
    29  C   -0.008701
    30  C    0.128940
    31  C   -0.054220
    32  C   -0.022788
    33  C   -0.056380
    34  N   -0.330514
    35  C    0.071341
    36  C    0.034155
    37  C   -0.064485
    38  C    0.120138
    39  C   -0.029636
    40  C    0.336105
    41  O   -0.529149
    42  C    0.071952
    43  C    0.508041
    44  O   -0.538634
    45  O   -0.279939
    46  C    0.069245
    47  C    0.105657
    48  C   -0.114088
    49  C    0.007193
    50  C   -0.038980
    51  C   -0.019214
    52  C   -0.026964
    53  C   -0.035197
    54  C    0.006054
    55  C   -0.059917
    56  C   -0.026740
    57  C   -0.038668
    58  C   -0.047729
    59  C   -0.013431
    60  C   -0.056271
    61  C   -0.046742
    62  C   -0.045077
    63  C   -0.041077
    64  C   -0.017913
    65  C   -0.061476
    66  C   -0.064171
    67  H    0.026882
    68  H    0.042933
    69  H    0.026733
    70  H    0.041916
    71  H    0.036564
    72  H    0.030601
    73  H    0.008090
    74  H    0.022866
    75  H    0.031920
    76  H    0.020012
    77  H    0.039545
    78  H    0.029639
    79  H    0.031370
    80  H    0.029589
    81  H    0.036203
    82  H    0.044778
    83  H    0.032148
    84  H    0.034284
    85  H    0.030742
    86  H    0.032808
    87  H    0.031174
    88  H    0.016700
    89  H    0.028678
    90  H    0.022019
    91  H    0.025637
    92  H    0.014889
    93  H    0.014274
    94  H    0.039575
    95  H    0.023604
    96  H    0.041547
    97  H    0.035561
    98  H    0.047581
    99  H    0.035136
   100  H    0.043753
   101  H    0.044843
   102  H    0.053602
   103  H    0.051277
   104  H    0.029996
   105  H    0.027054
   106  H    0.024428
   107  H    0.027490
   108  H    0.020200
   109  H    0.016923
   110  H    0.017788
   111  H    0.029847
   112  H    0.007642
   113  H    0.009497
   114  H    0.013855
   115  H    0.010673
   116  H    0.013085
   117  H    0.028843
   118  H    0.011817
   119  H    0.017978
   120  H    0.020493
   121  H    0.014809
   122  H    0.018569
   123  H    0.028285
   124  H    0.030145
   125  H    0.018561
   126  H    0.020791
   127  H    0.017452
   128  H    0.027078
   129  H    0.006944
   130  H    0.021842
   131  H    0.012655
   132  H    0.027365
   133  H    0.013555
   134  H    0.028338
   135  H    0.020996
   136  H    0.029128
   137  H    0.017983
   138  H    0.018340
   139  H    0.020205
   140  H    0.012176
 Sum of Mulliken charges =  -0.00000

 Dipole moment (field-independent basis, Debye):
    X=             -2.2779    Y=              6.2294    Z=              0.3410  Tot=              6.6416
 N-N= 4.284499623286D+03 E-N= 0.000000000000D+00  KE=-9.243302973216D+03
 Leave Link  601 at Wed May  4 13:14:51 2022, MaxMem=  6710886400 cpu:               0.8 elap:               0.0
 (Enter /sw/apps/gaussian-16.0/g16/l9999.exe)
 1\1\GINC-BP1-COMPUTE062\SP\RZINDO CIS\STO-3G\C55H74Mg1N4O6\OF15641\04-
 May-2022\0\\#p ZINDO=(nstates=5)\\step_1701_chromophore_25 ZINDO\\0,1\
 Mg,0,-2.695,34.983,27.085\C,0,-3.765,33.029,29.743\C,0,-0.957,37.02,29
 .239\C,0,-2.252,37.058,24.571\C,0,-4.452,32.886,24.864\N,0,-2.482,34.9
 33,29.19\C,0,-2.96,34.109,30.119\C,0,-2.393,34.383,31.523\C,0,-1.509,3
 5.65,31.246\C,0,-1.674,35.948,29.822\C,0,-1.852,36.849,32.101\C,0,-1.5
 ,33.3,32.113\C,0,-1.927,32.543,33.392\C,0,-1.068,32.519,34.694\O,0,-0.

 Normal termination of Gaussian 16 at Wed May  4 13:14:51 2022.
