 Gaussian 16, Revision A.03,
 Gaussian 16:  ES64L-G16RevA.03 25-Dec-2016

 ------------------------------
 #p blyp/Def2SVP td=(nstates=5)
 ------------------------------

 --------------------------------------------------
 step_1701_chromophore_4 TDDFT with blyp functional
 --------------------------------------------------
 Symbolic Z-matrix:
 Charge =  0 Multiplicity = 1

                         Standard orientation:
 ---------------------------------------------------------------------
 Center     Atomic      Atomic             Coordinates (Angstroms)
 Number     Number       Type             X           Y           Z
 ---------------------------------------------------------------------
      1         12           0        5.868510    0.507600    0.099113
      2          6           0        3.508180   -2.159799    0.433721
      3          6           0        3.157829    2.643520   -0.574694
      4          6           0        7.985521    3.023876   -0.260772
      5          6           0        8.392674   -1.841515    0.174267
      6          7           0        3.570239    0.256594   -0.022188
      7          6           0        2.845264   -0.924484    0.163970
      8          6           0        1.348757   -0.699351   -0.008432
      9          6           0        1.358150    0.796894   -0.660479
     10          6           0        2.789982    1.242813   -0.521714
     11          6           0        0.738322    0.911699   -2.088173
     12          6           0        0.633637   -0.783019    1.348988
     13          6           0       -0.520417   -1.817700    1.419871
     14          6           0       -1.674646   -1.639790    0.375953
     15          8           0       -1.839085   -0.645662   -0.296993
     16          8           0       -2.431023   -2.778359    0.270243
     17          7           0        5.601050    2.527821   -0.231676
     18          6           0        4.438304    3.250744   -0.412247
     19          6           0        4.734956    4.679111   -0.282996
     20          6           0        6.152792    4.751229   -0.259667
     21          6           0        6.672706    3.423420   -0.253327
     22          6           0        3.625517    5.766593   -0.440534
     23          6           0        7.108285    6.040130   -0.111035
     24          8           0        8.358632    6.034770    0.047115
     25          6           0        6.487948    7.433829   -0.054928
     26          7           0        7.955986    0.581773   -0.148477
     27          6           0        8.610019    1.733650   -0.126718
     28          6           0       10.159968    1.460703   -0.288401
     29          6           0       10.260382   -0.039350   -0.010653
     30          6           0        8.832369   -0.468035   -0.086661
     31          6           0       10.767968    1.975642   -1.647820
     32          6           0       11.127814   -0.418167    1.324355
     33          6           0       12.569342   -0.551640    1.111990
     34          7           0        5.963807   -1.501643    0.287292
     35          6           0        7.050546   -2.336469    0.297903
     36          6           0        6.635734   -3.724434    0.398317
     37          6           0        5.261282   -3.626569    0.579393
     38          6           0        4.850001   -2.298002    0.433116
     39          6           0        7.501067   -4.911969    0.449293
     40          6           0        4.062356   -4.456900    0.848783
     41          8           0        3.947077   -5.671339    1.026980
     42          6           0        2.839797   -3.532264    0.618370
     43          6           0        2.171531   -4.092060   -0.622106
     44          8           0        2.704621   -4.375805   -1.671237
     45          8           0        0.845081   -4.302371   -0.332774
     46          6           0        0.025836   -4.676747   -1.530878
     47          6           0       -3.474635   -2.753210   -0.763250
     48          6           0       -4.707614   -2.086507   -0.184809
     49          6           0       -5.807881   -2.738858    0.186003
     50          6           0       -6.048664   -4.193946    0.677181
     51          6           0       -7.002863   -1.917630    0.630861
     52          6           0       -7.910857   -1.393022   -0.559009
     53          6           0       -7.863279    0.210947   -0.639441
     54          6           0       -9.164424    0.987879   -0.341852
     55          6           0      -10.106153    1.098930   -1.601083
     56          6           0       -8.899285    2.348277    0.262293
     57          6           0       -9.479905    2.395057    1.744069
     58          6           0      -10.929025    2.896340    1.735264
     59          6           0      -12.041173    1.933979    2.447603
     60          6           0      -12.345695    2.510377    3.848463
     61          6           0      -13.427178    2.004528    1.669162
     62          6           0      -13.507006    0.933991    0.535539
     63          6           0      -14.448723    1.228146   -0.572037
     64          6           0      -14.333664    0.178389   -1.739369
     65          6           0      -13.475025    0.588835   -2.957822
     66          6           0      -15.734485   -0.307273   -2.270706
     67          1           0        2.400443    3.408942   -0.754925
     68          1           0        8.769284    3.761972   -0.443554
     69          1           0        9.134008   -2.639236    0.101695
     70          1           0        0.995243   -1.393652   -0.770745
     71          1           0        0.762717    1.297382    0.102621
     72          1           0        0.105821    0.035077   -2.228915
     73          1           0        1.483473    0.823901   -2.878062
     74          1           0        0.252846    1.880094   -2.209646
     75          1           0        0.442365    0.194925    1.790479
     76          1           0        1.393731   -1.214342    2.000113
     77          1           0       -0.936102   -1.636046    2.410809
     78          1           0       -0.230791   -2.859613    1.546651
     79          1           0        3.979387    6.363753   -1.280508
     80          1           0        3.664734    6.380402    0.459670
     81          1           0        2.593041    5.418158   -0.487664
     82          1           0        5.933417    7.426834    0.883784
     83          1           0        5.766772    7.515901   -0.867990
     84          1           0        7.186879    8.266467   -0.133790
     85          1           0       10.650761    1.946524    0.554185
     86          1           0       10.639156   -0.615574   -0.854674
     87          1           0       11.528067    2.743196   -1.503614
     88          1           0        9.923363    2.429955   -2.165580
     89          1           0       11.216315    1.182902   -2.247074
     90          1           0       10.669719   -1.353386    1.647049
     91          1           0       11.009763    0.335205    2.103542
     92          1           0       12.910353   -1.582412    1.011427
     93          1           0       13.161367   -0.060646    1.883622
     94          1           0       12.749388   -0.040379    0.166581
     95          1           0        8.000373   -4.829333    1.415229
     96          1           0        8.239249   -4.892444   -0.352228
     97          1           0        6.923863   -5.831177    0.346216
     98          1           0        2.137764   -3.744553    1.424799
     99          1           0       -0.056991   -5.758808   -1.432806
    100          1           0        0.480189   -4.437071   -2.491316
    101          1           0       -0.938378   -4.169375   -1.486222
    102          1           0       -3.674609   -3.771999   -1.094343
    103          1           0       -3.284992   -2.197968   -1.681119
    104          1           0       -4.897621   -1.047913   -0.454000
    105          1           0       -5.255015   -4.770751    0.201990
    106          1           0       -6.946253   -4.716227    0.343546
    107          1           0       -5.912577   -4.162146    1.757596
    108          1           0       -6.635350   -1.048481    1.176929
    109          1           0       -7.519175   -2.442184    1.435352
    110          1           0       -8.898496   -1.649605   -0.175655
    111          1           0       -7.672432   -1.889874   -1.499432
    112          1           0       -7.706436    0.215960   -1.718456
    113          1           0       -7.018913    0.736707   -0.194450
    114          1           0       -9.619557    0.344644    0.411101
    115          1           0       -9.482315    1.380519   -2.449432
    116          1           0      -10.926972    1.805609   -1.483375
    117          1           0      -10.648355    0.174327   -1.795285
    118          1           0       -9.366583    3.167506   -0.284946
    119          1           0       -7.862732    2.684358    0.241389
    120          1           0       -8.870265    2.996793    2.418583
    121          1           0       -9.419859    1.473063    2.322803
    122          1           0      -11.380824    3.128333    0.770496
    123          1           0      -10.835011    3.826395    2.296261
    124          1           0      -11.654941    0.915706    2.399335
    125          1           0      -11.906101    3.485783    4.055499
    126          1           0      -11.997439    1.815472    4.613147
    127          1           0      -13.419587    2.654834    3.970871
    128          1           0      -13.686318    2.959605    1.212348
    129          1           0      -14.316100    1.768539    2.254647
    130          1           0      -13.846566    0.012588    1.009854
    131          1           0      -12.471508    0.868037    0.202998
    132          1           0      -14.232554    2.244318   -0.901762
    133          1           0      -15.465583    1.231579   -0.180932
    134          1           0      -13.838373   -0.699950   -1.325202
    135          1           0      -14.088026    0.989767   -3.764102
    136          1           0      -12.807674   -0.213077   -3.272060
    137          1           0      -12.790239    1.373440   -2.634467
    138          1           0      -15.702668   -0.392428   -3.356741
    139          1           0      -16.708694    0.113609   -2.020466
    140          1           0      -15.730449   -1.316218   -1.857079
 ---------------------------------------------------------------------

 SCF Done:  E(RB-LYP) =  -3007.35076677     A.U. after   21 cycles

 Excitation energies and oscillator strengths:

 Excited State   1:      Singlet-A      1.8147 eV  683.24 nm  f=0.2653  <S**2>=0.000
     245 -> 248       -0.22879
     246 -> 247        0.67536
     246 <- 247       -0.12843
 This state for optimization and/or second-order correction.
 Total Energy, E(TD-HF/TD-DFT) =  -3007.28407952
 Copying the excited state density for this state as the 1-particle RhoCI density.

 Excited State   2:      Singlet-A      1.9946 eV  621.59 nm  f=0.0351  <S**2>=0.000
     243 -> 247        0.20502
     245 -> 247        0.60610
     246 -> 248        0.27854

 Excited State   3:      Singlet-A      2.1017 eV  589.92 nm  f=0.0016  <S**2>=0.000
     244 -> 247        0.69947

 Excited State   4:      Singlet-A      2.1199 eV  584.85 nm  f=0.0032  <S**2>=0.000
     243 -> 247        0.67135
     245 -> 247       -0.15130
     246 -> 248       -0.13846

 Excited State   5:      Singlet-A      2.6476 eV  468.30 nm  f=0.0169  <S**2>=0.000
     242 -> 247        0.59539
     246 -> 248        0.23530
     246 -> 249        0.25190

 The electronic state is 1-A.
 Alpha  occ. eigenvalues --  -46.26182 -18.82638 -18.82439 -18.77532 -18.76749
 Alpha  occ. eigenvalues --  -18.75895 -18.75493 -14.02889 -14.02785 -14.00583
 Alpha  occ. eigenvalues --  -14.00413 -10.04678 -10.03924 -10.00745  -9.99254
 Alpha  occ. eigenvalues --   -9.98320  -9.97699  -9.96439  -9.96275  -9.96161
 Alpha  occ. eigenvalues --   -9.96134  -9.95366  -9.95221  -9.95133  -9.94330
 Alpha  occ. eigenvalues --   -9.93899  -9.93850  -9.93833  -9.93755  -9.93677
 Alpha  occ. eigenvalues --   -9.93571  -9.93481  -9.93451  -9.93375  -9.93305
 Alpha  occ. eigenvalues --   -9.93274  -9.93148  -9.92933  -9.92886  -9.92881
 Alpha  occ. eigenvalues --   -9.92779  -9.92754  -9.92672  -9.92643  -9.92287
 Alpha  occ. eigenvalues --   -9.92217  -9.92160  -9.92116  -9.91880  -9.91701
 Alpha  occ. eigenvalues --   -9.91670  -9.91622  -9.91584  -9.91498  -9.91463
 Alpha  occ. eigenvalues --   -9.91461  -9.91424  -9.91290  -9.91242  -9.91010
 Alpha  occ. eigenvalues --   -9.90850  -9.90756  -9.90596  -9.90596  -9.90554
 Alpha  occ. eigenvalues --   -9.90510  -2.90898  -1.71332  -1.70789  -1.70599
 Alpha  occ. eigenvalues --   -0.98417  -0.97717  -0.90759  -0.90614  -0.89864
 Alpha  occ. eigenvalues --   -0.89699  -0.86576  -0.85598  -0.84692  -0.84001
 Alpha  occ. eigenvalues --   -0.75585  -0.73638  -0.72760  -0.72237  -0.72132
 Alpha  occ. eigenvalues --   -0.71953  -0.70768  -0.70289  -0.70104  -0.69332
 Alpha  occ. eigenvalues --   -0.69225  -0.68494  -0.67770  -0.67546  -0.67126
 Alpha  occ. eigenvalues --   -0.66488  -0.65685  -0.65123  -0.64817  -0.64105
 Alpha  occ. eigenvalues --   -0.63990  -0.62311  -0.62099  -0.61973  -0.60796
 Alpha  occ. eigenvalues --   -0.60479  -0.59857  -0.59508  -0.59338  -0.59002
 Alpha  occ. eigenvalues --   -0.58341  -0.57013  -0.56576  -0.55471  -0.53988
 Alpha  occ. eigenvalues --   -0.53877  -0.53364  -0.52403  -0.51773  -0.51280
 Alpha  occ. eigenvalues --   -0.50847  -0.50619  -0.50327  -0.50229  -0.49963
 Alpha  occ. eigenvalues --   -0.49867  -0.49505  -0.48827  -0.48272  -0.46256
 Alpha  occ. eigenvalues --   -0.46163  -0.45455  -0.45169  -0.44844  -0.44158
 Alpha  occ. eigenvalues --   -0.43914  -0.43561  -0.42657  -0.42452  -0.41952
 Alpha  occ. eigenvalues --   -0.41816  -0.41650  -0.41365  -0.41054  -0.40880
 Alpha  occ. eigenvalues --   -0.40637  -0.40457  -0.40281  -0.40072  -0.39933
 Alpha  occ. eigenvalues --   -0.39510  -0.39440  -0.39251  -0.39243  -0.39075
 Alpha  occ. eigenvalues --   -0.38804  -0.38471  -0.38418  -0.38259  -0.38018
 Alpha  occ. eigenvalues --   -0.37914  -0.37572  -0.37465  -0.37333  -0.37131
 Alpha  occ. eigenvalues --   -0.36856  -0.36787  -0.36333  -0.36288  -0.36215
 Alpha  occ. eigenvalues --   -0.36121  -0.36011  -0.35822  -0.35648  -0.35579
 Alpha  occ. eigenvalues --   -0.35274  -0.35141  -0.35056  -0.34770  -0.34491
 Alpha  occ. eigenvalues --   -0.34389  -0.34295  -0.34113  -0.34008  -0.33776
 Alpha  occ. eigenvalues --   -0.33730  -0.33547  -0.33537  -0.33274  -0.33153
 Alpha  occ. eigenvalues --   -0.32864  -0.32692  -0.32617  -0.32472  -0.31969
 Alpha  occ. eigenvalues --   -0.31923  -0.31852  -0.31670  -0.31434  -0.31293
 Alpha  occ. eigenvalues --   -0.31223  -0.30908  -0.30831  -0.30711  -0.30500
 Alpha  occ. eigenvalues --   -0.30351  -0.30090  -0.29876  -0.29671  -0.29603
 Alpha  occ. eigenvalues --   -0.29577  -0.29491  -0.29422  -0.29105  -0.29019
 Alpha  occ. eigenvalues --   -0.28929  -0.28447  -0.28303  -0.27910  -0.27699
 Alpha  occ. eigenvalues --   -0.27450  -0.27212  -0.26898  -0.26785  -0.26242
 Alpha  occ. eigenvalues --   -0.26069  -0.25882  -0.25518  -0.25302  -0.25095
 Alpha  occ. eigenvalues --   -0.24969  -0.24279  -0.24130  -0.23823  -0.23619
 Alpha  occ. eigenvalues --   -0.23214  -0.22767  -0.22361  -0.21316  -0.21262
 Alpha  occ. eigenvalues --   -0.20481  -0.19967  -0.18405  -0.18371  -0.16738
 Alpha  occ. eigenvalues --   -0.15297
 Alpha virt. eigenvalues --   -0.10759  -0.07189  -0.06118  -0.04670  -0.03353
 Alpha virt. eigenvalues --   -0.02818  -0.02247  -0.01581  -0.00860  -0.00302
 Alpha virt. eigenvalues --    0.00975   0.01775   0.02375   0.02600   0.02874

 Mulliken charges:
               1
     1  Mg   0.700630
     2  C   -0.016068
     3  C   -0.052011
     4  C   -0.041408
     5  C   -0.074944
     6  N   -0.188248
     7  C   -0.145972
     8  C    0.004647
     9  C    0.006963
    10  C    0.056719
    11  C    0.152993
    12  C    0.166533
    13  C    0.102078
    14  C    0.089747
    15  O   -0.181774
    16  O   -0.264829
    17  N   -0.320061
    18  C    0.088283
    19  C   -0.144656
    20  C    0.006235
    21  C    0.159070
    22  C    0.159240
    23  C   -0.027542
    24  O   -0.193617
    25  C    0.131371
    26  N   -0.214054
    27  C   -0.039536
    28  C    0.034994
    29  C    0.023564
    30  C    0.000344
    31  C    0.132603
    32  C    0.097080
    33  C    0.085728
    34  N   -0.286176
    35  C    0.097599
    36  C   -0.194952
    37  C    0.069944
    38  C    0.176681
    39  C    0.183111
    40  C   -0.056963
    41  O   -0.141445
    42  C    0.083843
    43  C    0.098828
    44  O   -0.160972
    45  O   -0.283613
    46  C    0.199039
    47  C    0.308742
    48  C   -0.084702
    49  C   -0.162091
    50  C    0.134955
    51  C    0.096921
    52  C    0.075678
    53  C    0.079930
    54  C   -0.039335
    55  C    0.079615
    56  C    0.115794
    57  C    0.062108
    58  C    0.085471
    59  C   -0.074033
    60  C    0.126907
    61  C    0.079669
    62  C   -0.003664
    63  C    0.137040
    64  C   -0.081702
    65  C    0.108133
    66  C    0.085461
    67  H   -0.070458
    68  H   -0.045142
    69  H   -0.059927
    70  H   -0.023189
    71  H   -0.030282
    72  H   -0.003173
    73  H   -0.019941
    74  H   -0.001204
    75  H   -0.014953
    76  H   -0.028046
    77  H   -0.007843
    78  H    0.007397
    79  H    0.024246
    80  H   -0.004825
    81  H    0.000815
    82  H    0.013449
    83  H   -0.010677
    84  H    0.004057
    85  H   -0.024339
    86  H   -0.027870
    87  H   -0.002277
    88  H   -0.001024
    89  H   -0.005888
    90  H   -0.029115
    91  H   -0.017825
    92  H   -0.006171
    93  H   -0.008459
    94  H   -0.013905
    95  H    0.007904
    96  H   -0.005297
    97  H    0.011552
    98  H   -0.011135
    99  H    0.022926
   100  H    0.026441
   101  H    0.019710
   102  H   -0.005168
   103  H   -0.006145
   104  H   -0.014361
   105  H   -0.030184
   106  H    0.003368
   107  H    0.026025
   108  H   -0.027188
   109  H   -0.042319
   110  H   -0.023328
   111  H   -0.010223
   112  H   -0.044686
   113  H   -0.015106
   114  H   -0.025876
   115  H   -0.011428
   116  H    0.010574
   117  H   -0.014193
   118  H   -0.036858
   119  H   -0.043764
   120  H   -0.045861
   121  H   -0.037537
   122  H   -0.021446
   123  H   -0.029226
   124  H   -0.022989
   125  H   -0.019129
   126  H   -0.019072
   127  H   -0.020599
   128  H   -0.037262
   129  H   -0.036617
   130  H   -0.026394
   131  H   -0.026260
   132  H   -0.041162
   133  H   -0.042524
   134  H   -0.033621
   135  H   -0.010608
   136  H   -0.008249
   137  H   -0.033890
   138  H   -0.024754
   139  H   -0.005812
   140  H   -0.021584
 Sum of Mulliken charges =  -0.00000

 Dipole moment (field-independent basis, Debye):
    X=             -3.6775    Y=              1.6986    Z=              0.5423  Tot=              4.0870
 Quadrupole moment (field-independent basis, Debye-Ang):
   XX=           -383.2937   YY=           -425.3883   ZZ=           -403.6583
   XY=              4.2984   XZ=              1.9369   YZ=              2.5315

 Normal termination of Gaussian 16 at Wed May  4 13:23:57 2022.
