 Gaussian 16, Revision A.03,
 Gaussian 16:  ES64L-G16RevA.03 25-Dec-2016

 -----------------------------------
 #p cam-b3lyp/Def2SVP td=(nstates=5)
 -----------------------------------

 -------------------------------------------------------
 step_1701_chromophore_4 TDDFT with cam-b3lyp functional
 -------------------------------------------------------
 Symbolic Z-matrix:
 Charge =  0 Multiplicity = 1

                         Standard orientation:
 ---------------------------------------------------------------------
 Center     Atomic      Atomic             Coordinates (Angstroms)
 Number     Number       Type             X           Y           Z
 ---------------------------------------------------------------------
      1         12           0        5.868510    0.507600    0.099113
      2          6           0        3.508180   -2.159799    0.433721
      3          6           0        3.157829    2.643520   -0.574694
      4          6           0        7.985521    3.023876   -0.260772
      5          6           0        8.392674   -1.841515    0.174267
      6          7           0        3.570239    0.256594   -0.022188
      7          6           0        2.845264   -0.924484    0.163970
      8          6           0        1.348757   -0.699351   -0.008432
      9          6           0        1.358150    0.796894   -0.660479
     10          6           0        2.789982    1.242813   -0.521714
     11          6           0        0.738322    0.911699   -2.088173
     12          6           0        0.633637   -0.783019    1.348988
     13          6           0       -0.520417   -1.817700    1.419871
     14          6           0       -1.674646   -1.639790    0.375953
     15          8           0       -1.839085   -0.645662   -0.296993
     16          8           0       -2.431023   -2.778359    0.270243
     17          7           0        5.601050    2.527821   -0.231676
     18          6           0        4.438304    3.250744   -0.412247
     19          6           0        4.734956    4.679111   -0.282996
     20          6           0        6.152792    4.751229   -0.259667
     21          6           0        6.672706    3.423420   -0.253327
     22          6           0        3.625517    5.766593   -0.440534
     23          6           0        7.108285    6.040130   -0.111035
     24          8           0        8.358632    6.034770    0.047115
     25          6           0        6.487948    7.433829   -0.054928
     26          7           0        7.955986    0.581773   -0.148477
     27          6           0        8.610019    1.733650   -0.126718
     28          6           0       10.159968    1.460703   -0.288401
     29          6           0       10.260382   -0.039350   -0.010653
     30          6           0        8.832369   -0.468035   -0.086661
     31          6           0       10.767968    1.975642   -1.647820
     32          6           0       11.127814   -0.418167    1.324355
     33          6           0       12.569342   -0.551640    1.111990
     34          7           0        5.963807   -1.501643    0.287292
     35          6           0        7.050546   -2.336469    0.297903
     36          6           0        6.635734   -3.724434    0.398317
     37          6           0        5.261282   -3.626569    0.579393
     38          6           0        4.850001   -2.298002    0.433116
     39          6           0        7.501067   -4.911969    0.449293
     40          6           0        4.062356   -4.456900    0.848783
     41          8           0        3.947077   -5.671339    1.026980
     42          6           0        2.839797   -3.532264    0.618370
     43          6           0        2.171531   -4.092060   -0.622106
     44          8           0        2.704621   -4.375805   -1.671237
     45          8           0        0.845081   -4.302371   -0.332774
     46          6           0        0.025836   -4.676747   -1.530878
     47          6           0       -3.474635   -2.753210   -0.763250
     48          6           0       -4.707614   -2.086507   -0.184809
     49          6           0       -5.807881   -2.738858    0.186003
     50          6           0       -6.048664   -4.193946    0.677181
     51          6           0       -7.002863   -1.917630    0.630861
     52          6           0       -7.910857   -1.393022   -0.559009
     53          6           0       -7.863279    0.210947   -0.639441
     54          6           0       -9.164424    0.987879   -0.341852
     55          6           0      -10.106153    1.098930   -1.601083
     56          6           0       -8.899285    2.348277    0.262293
     57          6           0       -9.479905    2.395057    1.744069
     58          6           0      -10.929025    2.896340    1.735264
     59          6           0      -12.041173    1.933979    2.447603
     60          6           0      -12.345695    2.510377    3.848463
     61          6           0      -13.427178    2.004528    1.669162
     62          6           0      -13.507006    0.933991    0.535539
     63          6           0      -14.448723    1.228146   -0.572037
     64          6           0      -14.333664    0.178389   -1.739369
     65          6           0      -13.475025    0.588835   -2.957822
     66          6           0      -15.734485   -0.307273   -2.270706
     67          1           0        2.400443    3.408942   -0.754925
     68          1           0        8.769284    3.761972   -0.443554
     69          1           0        9.134008   -2.639236    0.101695
     70          1           0        0.995243   -1.393652   -0.770745
     71          1           0        0.762717    1.297382    0.102621
     72          1           0        0.105821    0.035077   -2.228915
     73          1           0        1.483473    0.823901   -2.878062
     74          1           0        0.252846    1.880094   -2.209646
     75          1           0        0.442365    0.194925    1.790479
     76          1           0        1.393731   -1.214342    2.000113
     77          1           0       -0.936102   -1.636046    2.410809
     78          1           0       -0.230791   -2.859613    1.546651
     79          1           0        3.979387    6.363753   -1.280508
     80          1           0        3.664734    6.380402    0.459670
     81          1           0        2.593041    5.418158   -0.487664
     82          1           0        5.933417    7.426834    0.883784
     83          1           0        5.766772    7.515901   -0.867990
     84          1           0        7.186879    8.266467   -0.133790
     85          1           0       10.650761    1.946524    0.554185
     86          1           0       10.639156   -0.615574   -0.854674
     87          1           0       11.528067    2.743196   -1.503614
     88          1           0        9.923363    2.429955   -2.165580
     89          1           0       11.216315    1.182902   -2.247074
     90          1           0       10.669719   -1.353386    1.647049
     91          1           0       11.009763    0.335205    2.103542
     92          1           0       12.910353   -1.582412    1.011427
     93          1           0       13.161367   -0.060646    1.883622
     94          1           0       12.749388   -0.040379    0.166581
     95          1           0        8.000373   -4.829333    1.415229
     96          1           0        8.239249   -4.892444   -0.352228
     97          1           0        6.923863   -5.831177    0.346216
     98          1           0        2.137764   -3.744553    1.424799
     99          1           0       -0.056991   -5.758808   -1.432806
    100          1           0        0.480189   -4.437071   -2.491316
    101          1           0       -0.938378   -4.169375   -1.486222
    102          1           0       -3.674609   -3.771999   -1.094343
    103          1           0       -3.284992   -2.197968   -1.681119
    104          1           0       -4.897621   -1.047913   -0.454000
    105          1           0       -5.255015   -4.770751    0.201990
    106          1           0       -6.946253   -4.716227    0.343546
    107          1           0       -5.912577   -4.162146    1.757596
    108          1           0       -6.635350   -1.048481    1.176929
    109          1           0       -7.519175   -2.442184    1.435352
    110          1           0       -8.898496   -1.649605   -0.175655
    111          1           0       -7.672432   -1.889874   -1.499432
    112          1           0       -7.706436    0.215960   -1.718456
    113          1           0       -7.018913    0.736707   -0.194450
    114          1           0       -9.619557    0.344644    0.411101
    115          1           0       -9.482315    1.380519   -2.449432
    116          1           0      -10.926972    1.805609   -1.483375
    117          1           0      -10.648355    0.174327   -1.795285
    118          1           0       -9.366583    3.167506   -0.284946
    119          1           0       -7.862732    2.684358    0.241389
    120          1           0       -8.870265    2.996793    2.418583
    121          1           0       -9.419859    1.473063    2.322803
    122          1           0      -11.380824    3.128333    0.770496
    123          1           0      -10.835011    3.826395    2.296261
    124          1           0      -11.654941    0.915706    2.399335
    125          1           0      -11.906101    3.485783    4.055499
    126          1           0      -11.997439    1.815472    4.613147
    127          1           0      -13.419587    2.654834    3.970871
    128          1           0      -13.686318    2.959605    1.212348
    129          1           0      -14.316100    1.768539    2.254647
    130          1           0      -13.846566    0.012588    1.009854
    131          1           0      -12.471508    0.868037    0.202998
    132          1           0      -14.232554    2.244318   -0.901762
    133          1           0      -15.465583    1.231579   -0.180932
    134          1           0      -13.838373   -0.699950   -1.325202
    135          1           0      -14.088026    0.989767   -3.764102
    136          1           0      -12.807674   -0.213077   -3.272060
    137          1           0      -12.790239    1.373440   -2.634467
    138          1           0      -15.702668   -0.392428   -3.356741
    139          1           0      -16.708694    0.113609   -2.020466
    140          1           0      -15.730449   -1.316218   -1.857079
 ---------------------------------------------------------------------

 SCF Done:  E(RCAM-B3LYP) =  -3007.13418722     A.U. after   17 cycles

 Excitation energies and oscillator strengths:

 Excited State   1:      Singlet-A      1.7383 eV  713.24 nm  f=0.3314  <S**2>=0.000
     245 -> 248        0.21721
     246 -> 247        0.67493
     245 <- 248        0.11401
 This state for optimization and/or second-order correction.
 Total Energy, E(TD-HF/TD-DFT) =  -3007.07030492
 Copying the excited state density for this state as the 1-particle RhoCI density.

 Excited State   2:      Singlet-A      2.2383 eV  553.91 nm  f=0.0367  <S**2>=0.000
     245 -> 247        0.59244
     246 -> 248       -0.37811

 Excited State   3:      Singlet-A      3.3578 eV  369.24 nm  f=0.7485  <S**2>=0.000
     243 -> 247        0.16283
     244 -> 247       -0.16388
     245 -> 247        0.34222
     246 -> 248        0.56151
     245 <- 247       -0.10988

 Excited State   4:      Singlet-A      3.5806 eV  346.26 nm  f=0.0993  <S**2>=0.000
     241 -> 247        0.10679
     242 -> 247        0.10545
     243 -> 249        0.10343
     244 -> 247        0.62379
     245 -> 247        0.10244
     246 -> 248        0.15129

 Excited State   5:      Singlet-A      3.6161 eV  342.87 nm  f=0.0222  <S**2>=0.000
     240 -> 247        0.29422
     240 -> 249       -0.14160
     240 -> 250       -0.18454
     241 -> 249        0.30232
     242 -> 247        0.33631
     242 -> 250       -0.19579
     243 -> 247        0.20683

 The electronic state is 1-A.
 Alpha  occ. eigenvalues --  -46.87675 -19.25481 -19.25359 -19.20502 -19.19824
 Alpha  occ. eigenvalues --  -19.19246 -19.18688 -14.41770 -14.41702 -14.38943
 Alpha  occ. eigenvalues --  -14.38884 -10.39963 -10.39318 -10.36244 -10.34564
 Alpha  occ. eigenvalues --  -10.32446 -10.31741 -10.30832 -10.30812 -10.30737
 Alpha  occ. eigenvalues --  -10.30600 -10.29864 -10.29607 -10.29343 -10.29172
 Alpha  occ. eigenvalues --  -10.28280 -10.28018 -10.28000 -10.27846 -10.27821
 Alpha  occ. eigenvalues --  -10.27795 -10.27640 -10.27528 -10.27401 -10.27303
 Alpha  occ. eigenvalues --  -10.27214 -10.27146 -10.27081 -10.27057 -10.27043
 Alpha  occ. eigenvalues --  -10.26570 -10.26552 -10.26364 -10.26358 -10.26338
 Alpha  occ. eigenvalues --  -10.26066 -10.25903 -10.25803 -10.25796 -10.25524
 Alpha  occ. eigenvalues --  -10.25475 -10.25295 -10.25235 -10.25188 -10.25143
 Alpha  occ. eigenvalues --  -10.25070 -10.24995 -10.24985 -10.24886 -10.24732
 Alpha  occ. eigenvalues --  -10.24544 -10.24506 -10.24369 -10.24201 -10.24190
 Alpha  occ. eigenvalues --  -10.24183  -3.16300  -1.91209  -1.90759  -1.90604
 Alpha  occ. eigenvalues --   -1.16861  -1.16251  -1.08951  -1.08596  -1.08154
 Alpha  occ. eigenvalues --   -1.07805  -1.04306  -1.03197  -1.02331  -1.01574
 Alpha  occ. eigenvalues --   -0.92705  -0.90482  -0.89537  -0.88889  -0.88834
 Alpha  occ. eigenvalues --   -0.88638  -0.87453  -0.86821  -0.86650  -0.86038
 Alpha  occ. eigenvalues --   -0.85674  -0.84755  -0.84002  -0.83670  -0.83253
 Alpha  occ. eigenvalues --   -0.82528  -0.81739  -0.81176  -0.80839  -0.79935
 Alpha  occ. eigenvalues --   -0.79752  -0.77997  -0.77685  -0.77592  -0.76208
 Alpha  occ. eigenvalues --   -0.75787  -0.75183  -0.74760  -0.74575  -0.74268
 Alpha  occ. eigenvalues --   -0.73377  -0.71944  -0.71528  -0.70250  -0.68558
 Alpha  occ. eigenvalues --   -0.68405  -0.67900  -0.66704  -0.66195  -0.65311
 Alpha  occ. eigenvalues --   -0.65090  -0.64796  -0.64336  -0.64195  -0.63957
 Alpha  occ. eigenvalues --   -0.63814  -0.63404  -0.62725  -0.62003  -0.59970
 Alpha  occ. eigenvalues --   -0.59744  -0.58960  -0.58671  -0.58244  -0.57780
 Alpha  occ. eigenvalues --   -0.57346  -0.56953  -0.55925  -0.55680  -0.55112
 Alpha  occ. eigenvalues --   -0.54807  -0.54651  -0.54542  -0.54155  -0.53742
 Alpha  occ. eigenvalues --   -0.53358  -0.53080  -0.52931  -0.52785  -0.52572
 Alpha  occ. eigenvalues --   -0.52194  -0.52077  -0.52024  -0.51887  -0.51739
 Alpha  occ. eigenvalues --   -0.51291  -0.51133  -0.50785  -0.50716  -0.50424
 Alpha  occ. eigenvalues --   -0.50096  -0.49861  -0.49778  -0.49646  -0.49373
 Alpha  occ. eigenvalues --   -0.49278  -0.49048  -0.48970  -0.48672  -0.48572
 Alpha  occ. eigenvalues --   -0.48414  -0.48176  -0.47943  -0.47702  -0.47675
 Alpha  occ. eigenvalues --   -0.47289  -0.47183  -0.47032  -0.46922  -0.46472
 Alpha  occ. eigenvalues --   -0.46320  -0.46083  -0.46028  -0.45892  -0.45630
 Alpha  occ. eigenvalues --   -0.45446  -0.45293  -0.45197  -0.45006  -0.44792
 Alpha  occ. eigenvalues --   -0.44693  -0.44649  -0.44308  -0.44096  -0.43754
 Alpha  occ. eigenvalues --   -0.43608  -0.43402  -0.43314  -0.43156  -0.42935
 Alpha  occ. eigenvalues --   -0.42567  -0.42507  -0.42278  -0.42130  -0.42075
 Alpha  occ. eigenvalues --   -0.41788  -0.41632  -0.41171  -0.41086  -0.41044
 Alpha  occ. eigenvalues --   -0.40749  -0.40658  -0.40494  -0.40379  -0.40132
 Alpha  occ. eigenvalues --   -0.40059  -0.39565  -0.39234  -0.38868  -0.38690
 Alpha  occ. eigenvalues --   -0.38302  -0.38062  -0.37754  -0.37686  -0.37393
 Alpha  occ. eigenvalues --   -0.37192  -0.36635  -0.36563  -0.36357  -0.36058
 Alpha  occ. eigenvalues --   -0.35634  -0.34907  -0.34782  -0.34566  -0.34554
 Alpha  occ. eigenvalues --   -0.34105  -0.34017  -0.33071  -0.31028  -0.30883
 Alpha  occ. eigenvalues --   -0.30556  -0.30467  -0.29702  -0.29233  -0.23487
 Alpha  occ. eigenvalues --   -0.20510
 Alpha virt. eigenvalues --   -0.07606  -0.02359   0.00434   0.02399   0.03739
 Alpha virt. eigenvalues --    0.03990   0.05147   0.05622   0.06071   0.06394
 Alpha virt. eigenvalues --    0.07774   0.08650   0.08777   0.08830   0.09077

 Mulliken charges:
               1
     1  Mg   0.835049
     2  C   -0.050834
     3  C   -0.064625
     4  C   -0.066099
     5  C   -0.081136
     6  N   -0.254326
     7  C   -0.096862
     8  C   -0.046284
     9  C   -0.049785
    10  C    0.077222
    11  C    0.097584
    12  C    0.115345
    13  C    0.030331
    14  C    0.168436
    15  O   -0.223102
    16  O   -0.328212
    17  N   -0.408585
    18  C    0.099088
    19  C   -0.148463
    20  C   -0.056051
    21  C    0.175766
    22  C    0.104553
    23  C    0.050776
    24  O   -0.232500
    25  C    0.054378
    26  N   -0.286015
    27  C   -0.012565
    28  C   -0.020940
    29  C   -0.037971
    30  C    0.026196
    31  C    0.072776
    32  C    0.043501
    33  C    0.023061
    34  N   -0.376430
    35  C    0.102133
    36  C   -0.189665
    37  C   -0.012337
    38  C    0.207431
    39  C    0.126148
    40  C    0.046265
    41  O   -0.179745
    42  C    0.011170
    43  C    0.189619
    44  O   -0.198890
    45  O   -0.348667
    46  C    0.166550
    47  C    0.261903
    48  C   -0.096070
    49  C   -0.179278
    50  C    0.075939
    51  C    0.032809
    52  C    0.023728
    53  C    0.027379
    54  C   -0.091270
    55  C    0.030673
    56  C    0.055511
    57  C    0.007992
    58  C    0.037512
    59  C   -0.131890
    60  C    0.068754
    61  C    0.029180
    62  C   -0.046053
    63  C    0.082094
    64  C   -0.140213
    65  C    0.050380
    66  C    0.025100
    67  H   -0.036805
    68  H   -0.004588
    69  H   -0.024917
    70  H    0.008067
    71  H    0.005934
    72  H    0.019863
    73  H    0.006216
    74  H    0.022003
    75  H    0.015829
    76  H    0.004765
    77  H    0.026290
    78  H    0.040267
    79  H    0.047444
    80  H    0.021514
    81  H    0.029196
    82  H    0.038651
    83  H    0.014850
    84  H    0.038459
    85  H    0.011084
    86  H    0.007483
    87  H    0.022272
    88  H    0.023964
    89  H    0.018580
    90  H    0.000521
    91  H    0.009991
    92  H    0.017659
    93  H    0.016342
    94  H    0.007382
    95  H    0.033156
    96  H    0.019231
    97  H    0.039741
    98  H    0.032528
    99  H    0.046343
   100  H    0.052006
   101  H    0.035331
   102  H    0.022806
   103  H    0.026254
   104  H    0.015149
   105  H   -0.006205
   106  H    0.028240
   107  H    0.049413
   108  H    0.003444
   109  H   -0.010581
   110  H    0.004470
   111  H    0.017909
   112  H   -0.015169
   113  H    0.010845
   114  H    0.000611
   115  H    0.012924
   116  H    0.024786
   117  H    0.006420
   118  H   -0.006203
   119  H   -0.012236
   120  H   -0.014605
   121  H   -0.010201
   122  H    0.002446
   123  H   -0.000562
   124  H    0.007056
   125  H    0.004677
   126  H    0.005337
   127  H    0.004243
   128  H   -0.009121
   129  H   -0.007400
   130  H    0.000085
   131  H   -0.007959
   132  H   -0.013606
   133  H   -0.012729
   134  H   -0.001140
   135  H    0.013856
   136  H    0.015011
   137  H   -0.012737
   138  H    0.000063
   139  H    0.018287
   140  H    0.002004
 Sum of Mulliken charges =  -0.00000

 Dipole moment (field-independent basis, Debye):
    X=             -3.8029    Y=              2.3612    Z=              0.5242  Tot=              4.5069
 Quadrupole moment (field-independent basis, Debye-Ang):
   XX=           -382.5070   YY=           -420.7888   ZZ=           -403.4207
   XY=              7.7651   XZ=              1.8963   YZ=              2.4553

 Normal termination of Gaussian 16 at Wed May  4 12:16:00 2022.
