 Gaussian 16, Revision A.03,
 Gaussian 16:  ES64L-G16RevA.03 25-Dec-2016

 ---------------------------------
 #p PBE1PBE/Def2SVP td=(nstates=5)
 ---------------------------------

 -----------------------------------------------------
 step_1701_chromophore_4 TDDFT with PBE1PBE functional
 -----------------------------------------------------
 Symbolic Z-matrix:
 Charge =  0 Multiplicity = 1

                         Standard orientation:
 ---------------------------------------------------------------------
 Center     Atomic      Atomic             Coordinates (Angstroms)
 Number     Number       Type             X           Y           Z
 ---------------------------------------------------------------------
      1         12           0        5.868510    0.507600    0.099113
      2          6           0        3.508180   -2.159799    0.433721
      3          6           0        3.157829    2.643520   -0.574694
      4          6           0        7.985521    3.023876   -0.260772
      5          6           0        8.392674   -1.841515    0.174267
      6          7           0        3.570239    0.256594   -0.022188
      7          6           0        2.845264   -0.924484    0.163970
      8          6           0        1.348757   -0.699351   -0.008432
      9          6           0        1.358150    0.796894   -0.660479
     10          6           0        2.789982    1.242813   -0.521714
     11          6           0        0.738322    0.911699   -2.088173
     12          6           0        0.633637   -0.783019    1.348988
     13          6           0       -0.520417   -1.817700    1.419871
     14          6           0       -1.674646   -1.639790    0.375953
     15          8           0       -1.839085   -0.645662   -0.296993
     16          8           0       -2.431023   -2.778359    0.270243
     17          7           0        5.601050    2.527821   -0.231676
     18          6           0        4.438304    3.250744   -0.412247
     19          6           0        4.734956    4.679111   -0.282996
     20          6           0        6.152792    4.751229   -0.259667
     21          6           0        6.672706    3.423420   -0.253327
     22          6           0        3.625517    5.766593   -0.440534
     23          6           0        7.108285    6.040130   -0.111035
     24          8           0        8.358632    6.034770    0.047115
     25          6           0        6.487948    7.433829   -0.054928
     26          7           0        7.955986    0.581773   -0.148477
     27          6           0        8.610019    1.733650   -0.126718
     28          6           0       10.159968    1.460703   -0.288401
     29          6           0       10.260382   -0.039350   -0.010653
     30          6           0        8.832369   -0.468035   -0.086661
     31          6           0       10.767968    1.975642   -1.647820
     32          6           0       11.127814   -0.418167    1.324355
     33          6           0       12.569342   -0.551640    1.111990
     34          7           0        5.963807   -1.501643    0.287292
     35          6           0        7.050546   -2.336469    0.297903
     36          6           0        6.635734   -3.724434    0.398317
     37          6           0        5.261282   -3.626569    0.579393
     38          6           0        4.850001   -2.298002    0.433116
     39          6           0        7.501067   -4.911969    0.449293
     40          6           0        4.062356   -4.456900    0.848783
     41          8           0        3.947077   -5.671339    1.026980
     42          6           0        2.839797   -3.532264    0.618370
     43          6           0        2.171531   -4.092060   -0.622106
     44          8           0        2.704621   -4.375805   -1.671237
     45          8           0        0.845081   -4.302371   -0.332774
     46          6           0        0.025836   -4.676747   -1.530878
     47          6           0       -3.474635   -2.753210   -0.763250
     48          6           0       -4.707614   -2.086507   -0.184809
     49          6           0       -5.807881   -2.738858    0.186003
     50          6           0       -6.048664   -4.193946    0.677181
     51          6           0       -7.002863   -1.917630    0.630861
     52          6           0       -7.910857   -1.393022   -0.559009
     53          6           0       -7.863279    0.210947   -0.639441
     54          6           0       -9.164424    0.987879   -0.341852
     55          6           0      -10.106153    1.098930   -1.601083
     56          6           0       -8.899285    2.348277    0.262293
     57          6           0       -9.479905    2.395057    1.744069
     58          6           0      -10.929025    2.896340    1.735264
     59          6           0      -12.041173    1.933979    2.447603
     60          6           0      -12.345695    2.510377    3.848463
     61          6           0      -13.427178    2.004528    1.669162
     62          6           0      -13.507006    0.933991    0.535539
     63          6           0      -14.448723    1.228146   -0.572037
     64          6           0      -14.333664    0.178389   -1.739369
     65          6           0      -13.475025    0.588835   -2.957822
     66          6           0      -15.734485   -0.307273   -2.270706
     67          1           0        2.400443    3.408942   -0.754925
     68          1           0        8.769284    3.761972   -0.443554
     69          1           0        9.134008   -2.639236    0.101695
     70          1           0        0.995243   -1.393652   -0.770745
     71          1           0        0.762717    1.297382    0.102621
     72          1           0        0.105821    0.035077   -2.228915
     73          1           0        1.483473    0.823901   -2.878062
     74          1           0        0.252846    1.880094   -2.209646
     75          1           0        0.442365    0.194925    1.790479
     76          1           0        1.393731   -1.214342    2.000113
     77          1           0       -0.936102   -1.636046    2.410809
     78          1           0       -0.230791   -2.859613    1.546651
     79          1           0        3.979387    6.363753   -1.280508
     80          1           0        3.664734    6.380402    0.459670
     81          1           0        2.593041    5.418158   -0.487664
     82          1           0        5.933417    7.426834    0.883784
     83          1           0        5.766772    7.515901   -0.867990
     84          1           0        7.186879    8.266467   -0.133790
     85          1           0       10.650761    1.946524    0.554185
     86          1           0       10.639156   -0.615574   -0.854674
     87          1           0       11.528067    2.743196   -1.503614
     88          1           0        9.923363    2.429955   -2.165580
     89          1           0       11.216315    1.182902   -2.247074
     90          1           0       10.669719   -1.353386    1.647049
     91          1           0       11.009763    0.335205    2.103542
     92          1           0       12.910353   -1.582412    1.011427
     93          1           0       13.161367   -0.060646    1.883622
     94          1           0       12.749388   -0.040379    0.166581
     95          1           0        8.000373   -4.829333    1.415229
     96          1           0        8.239249   -4.892444   -0.352228
     97          1           0        6.923863   -5.831177    0.346216
     98          1           0        2.137764   -3.744553    1.424799
     99          1           0       -0.056991   -5.758808   -1.432806
    100          1           0        0.480189   -4.437071   -2.491316
    101          1           0       -0.938378   -4.169375   -1.486222
    102          1           0       -3.674609   -3.771999   -1.094343
    103          1           0       -3.284992   -2.197968   -1.681119
    104          1           0       -4.897621   -1.047913   -0.454000
    105          1           0       -5.255015   -4.770751    0.201990
    106          1           0       -6.946253   -4.716227    0.343546
    107          1           0       -5.912577   -4.162146    1.757596
    108          1           0       -6.635350   -1.048481    1.176929
    109          1           0       -7.519175   -2.442184    1.435352
    110          1           0       -8.898496   -1.649605   -0.175655
    111          1           0       -7.672432   -1.889874   -1.499432
    112          1           0       -7.706436    0.215960   -1.718456
    113          1           0       -7.018913    0.736707   -0.194450
    114          1           0       -9.619557    0.344644    0.411101
    115          1           0       -9.482315    1.380519   -2.449432
    116          1           0      -10.926972    1.805609   -1.483375
    117          1           0      -10.648355    0.174327   -1.795285
    118          1           0       -9.366583    3.167506   -0.284946
    119          1           0       -7.862732    2.684358    0.241389
    120          1           0       -8.870265    2.996793    2.418583
    121          1           0       -9.419859    1.473063    2.322803
    122          1           0      -11.380824    3.128333    0.770496
    123          1           0      -10.835011    3.826395    2.296261
    124          1           0      -11.654941    0.915706    2.399335
    125          1           0      -11.906101    3.485783    4.055499
    126          1           0      -11.997439    1.815472    4.613147
    127          1           0      -13.419587    2.654834    3.970871
    128          1           0      -13.686318    2.959605    1.212348
    129          1           0      -14.316100    1.768539    2.254647
    130          1           0      -13.846566    0.012588    1.009854
    131          1           0      -12.471508    0.868037    0.202998
    132          1           0      -14.232554    2.244318   -0.901762
    133          1           0      -15.465583    1.231579   -0.180932
    134          1           0      -13.838373   -0.699950   -1.325202
    135          1           0      -14.088026    0.989767   -3.764102
    136          1           0      -12.807674   -0.213077   -3.272060
    137          1           0      -12.790239    1.373440   -2.634467
    138          1           0      -15.702668   -0.392428   -3.356741
    139          1           0      -16.708694    0.113609   -2.020466
    140          1           0      -15.730449   -1.316218   -1.857079
 ---------------------------------------------------------------------

 SCF Done:  E(RPBE1PBE) =  -3005.32177806     A.U. after   15 cycles

 Excitation energies and oscillator strengths:

 Excited State   1:      Singlet-A      1.8853 eV  657.62 nm  f=0.3255  <S**2>=0.000
     245 -> 248        0.20933
     246 -> 247        0.68099
 This state for optimization and/or second-order correction.
 Total Energy, E(TD-HF/TD-DFT) =  -3005.25249283
 Copying the excited state density for this state as the 1-particle RhoCI density.

 Excited State   2:      Singlet-A      2.2473 eV  551.71 nm  f=0.0452  <S**2>=0.000
     245 -> 247        0.61373
     246 -> 248       -0.34391

 Excited State   3:      Singlet-A      3.1392 eV  394.96 nm  f=0.1307  <S**2>=0.000
     241 -> 247        0.21058
     242 -> 247       -0.21492
     243 -> 247        0.11471
     243 -> 249        0.11868
     244 -> 247        0.48796
     245 -> 247       -0.15840
     246 -> 248       -0.30396

 Excited State   4:      Singlet-A      3.1649 eV  391.75 nm  f=0.0655  <S**2>=0.000
     239 -> 247        0.10117
     241 -> 247        0.14534
     242 -> 247        0.14066
     242 -> 249       -0.11231
     243 -> 247        0.56612
     245 -> 247        0.10912
     246 -> 248        0.23599

 Excited State   5:      Singlet-A      3.2128 eV  385.90 nm  f=0.1158  <S**2>=0.000
     242 -> 247        0.57445
     242 -> 249       -0.14460
     242 -> 250       -0.10828
     245 -> 247       -0.14077
     246 -> 248       -0.27563
     246 -> 249       -0.10941

 The electronic state is 1-A.
 Alpha  occ. eigenvalues --  -46.91082 -19.26167 -19.26032 -19.20751 -19.20053
 Alpha  occ. eigenvalues --  -19.19411 -19.18959 -14.41256 -14.41216 -14.38650
 Alpha  occ. eigenvalues --  -14.38541 -10.36994 -10.36356 -10.33366 -10.31789
 Alpha  occ. eigenvalues --  -10.29847 -10.28984 -10.28636 -10.28485 -10.28435
 Alpha  occ. eigenvalues --  -10.28412 -10.27461 -10.27176 -10.27174 -10.26743
 Alpha  occ. eigenvalues --  -10.25935 -10.25766 -10.25629 -10.25592 -10.25449
 Alpha  occ. eigenvalues --  -10.25373 -10.25339 -10.25203 -10.25186 -10.25083
 Alpha  occ. eigenvalues --  -10.24955 -10.24880 -10.24808 -10.24782 -10.24713
 Alpha  occ. eigenvalues --  -10.24320 -10.24013 -10.23983 -10.23951 -10.23754
 Alpha  occ. eigenvalues --  -10.23618 -10.23549 -10.23439 -10.23272 -10.23101
 Alpha  occ. eigenvalues --  -10.22955 -10.22813 -10.22783 -10.22768 -10.22753
 Alpha  occ. eigenvalues --  -10.22669 -10.22597 -10.22393 -10.22340 -10.22337
 Alpha  occ. eigenvalues --  -10.22296 -10.22026 -10.21762 -10.21696 -10.21617
 Alpha  occ. eigenvalues --  -10.21585  -3.13285  -1.86136  -1.85663  -1.85513
 Alpha  occ. eigenvalues --   -1.11661  -1.11017  -1.03724  -1.03459  -1.02794
 Alpha  occ. eigenvalues --   -1.02643  -0.98934  -0.97889  -0.96938  -0.96188
 Alpha  occ. eigenvalues --   -0.87117  -0.84632  -0.83628  -0.83173  -0.83040
 Alpha  occ. eigenvalues --   -0.82787  -0.81737  -0.81006  -0.80922  -0.80245
 Alpha  occ. eigenvalues --   -0.80000  -0.78984  -0.78216  -0.77960  -0.77494
 Alpha  occ. eigenvalues --   -0.76760  -0.75967  -0.75297  -0.75065  -0.74264
 Alpha  occ. eigenvalues --   -0.73925  -0.72309  -0.71955  -0.71879  -0.70541
 Alpha  occ. eigenvalues --   -0.69983  -0.69297  -0.69077  -0.68750  -0.68429
 Alpha  occ. eigenvalues --   -0.67680  -0.66393  -0.65984  -0.64588  -0.62849
 Alpha  occ. eigenvalues --   -0.62708  -0.62349  -0.60989  -0.60598  -0.59750
 Alpha  occ. eigenvalues --   -0.59317  -0.59250  -0.58773  -0.58525  -0.58476
 Alpha  occ. eigenvalues --   -0.58211  -0.57647  -0.56943  -0.56597  -0.54454
 Alpha  occ. eigenvalues --   -0.54136  -0.53545  -0.53196  -0.52817  -0.52242
 Alpha  occ. eigenvalues --   -0.51886  -0.51453  -0.50468  -0.50144  -0.49721
 Alpha  occ. eigenvalues --   -0.49276  -0.49141  -0.48928  -0.48736  -0.48252
 Alpha  occ. eigenvalues --   -0.47921  -0.47552  -0.47514  -0.47332  -0.47098
 Alpha  occ. eigenvalues --   -0.46749  -0.46607  -0.46513  -0.46343  -0.46270
 Alpha  occ. eigenvalues --   -0.45798  -0.45715  -0.45436  -0.45269  -0.44962
 Alpha  occ. eigenvalues --   -0.44620  -0.44497  -0.44333  -0.44202  -0.43929
 Alpha  occ. eigenvalues --   -0.43866  -0.43654  -0.43543  -0.43279  -0.43114
 Alpha  occ. eigenvalues --   -0.43016  -0.42774  -0.42623  -0.42387  -0.42328
 Alpha  occ. eigenvalues --   -0.41917  -0.41845  -0.41612  -0.41531  -0.41178
 Alpha  occ. eigenvalues --   -0.41012  -0.40794  -0.40648  -0.40638  -0.40405
 Alpha  occ. eigenvalues --   -0.40125  -0.40031  -0.39875  -0.39742  -0.39525
 Alpha  occ. eigenvalues --   -0.39419  -0.39377  -0.39033  -0.38934  -0.38574
 Alpha  occ. eigenvalues --   -0.38346  -0.38191  -0.38071  -0.37957  -0.37763
 Alpha  occ. eigenvalues --   -0.37477  -0.37246  -0.37079  -0.36991  -0.36855
 Alpha  occ. eigenvalues --   -0.36606  -0.36382  -0.36027  -0.35837  -0.35803
 Alpha  occ. eigenvalues --   -0.35545  -0.35411  -0.35317  -0.35273  -0.35017
 Alpha  occ. eigenvalues --   -0.34908  -0.34481  -0.34042  -0.33672  -0.33462
 Alpha  occ. eigenvalues --   -0.33117  -0.33053  -0.32782  -0.32481  -0.32424
 Alpha  occ. eigenvalues --   -0.32171  -0.31576  -0.31439  -0.31259  -0.31109
 Alpha  occ. eigenvalues --   -0.30565  -0.29770  -0.29729  -0.29539  -0.29503
 Alpha  occ. eigenvalues --   -0.29209  -0.28949  -0.28579  -0.26359  -0.26340
 Alpha  occ. eigenvalues --   -0.25667  -0.25370  -0.25113  -0.24851  -0.20424
 Alpha  occ. eigenvalues --   -0.18181
 Alpha virt. eigenvalues --   -0.10203  -0.05704  -0.03808  -0.02050  -0.00393
 Alpha virt. eigenvalues --    0.00499   0.00854   0.01089   0.01693   0.02595
 Alpha virt. eigenvalues --    0.03792   0.04633   0.05264   0.05503   0.05758

 Mulliken charges:
               1
     1  Mg   0.988519
     2  C   -0.057728
     3  C   -0.057586
     4  C   -0.065403
     5  C   -0.074923
     6  N   -0.353849
     7  C   -0.018714
     8  C   -0.117102
     9  C   -0.129185
    10  C    0.119182
    11  C    0.038765
    12  C    0.065684
    13  C   -0.048461
    14  C    0.237338
    15  O   -0.255731
    16  O   -0.358481
    17  N   -0.521018
    18  C    0.120350
    19  C   -0.172276
    20  C   -0.099000
    21  C    0.194000
    22  C    0.041746
    23  C    0.098306
    24  O   -0.267146
    25  C   -0.020475
    26  N   -0.389995
    27  C    0.030344
    28  C   -0.096885
    29  C   -0.113030
    30  C    0.074562
    31  C    0.013310
    32  C   -0.019692
    33  C   -0.049368
    34  N   -0.508389
    35  C    0.123469
    36  C   -0.208149
    37  C   -0.064499
    38  C    0.250981
    39  C    0.068098
    40  C    0.148590
    41  O   -0.224570
    42  C   -0.101709
    43  C    0.281811
    44  O   -0.233232
    45  O   -0.379677
    46  C    0.106067
    47  C    0.207162
    48  C   -0.104473
    49  C   -0.213024
    50  C    0.007430
    51  C   -0.028772
    52  C   -0.038953
    53  C   -0.021618
    54  C   -0.176464
    55  C   -0.035014
    56  C    0.000547
    57  C   -0.055448
    58  C   -0.009454
    59  C   -0.224244
    60  C    0.013202
    61  C   -0.019891
    62  C   -0.121242
    63  C    0.027625
    64  C   -0.230876
    65  C   -0.015502
    66  C   -0.034377
    67  H   -0.002583
    68  H    0.027878
    69  H    0.006079
    70  H    0.050004
    71  H    0.043578
    72  H    0.047501
    73  H    0.034569
    74  H    0.048826
    75  H    0.045625
    76  H    0.041257
    77  H    0.060133
    78  H    0.071952
    79  H    0.074500
    80  H    0.049907
    81  H    0.053891
    82  H    0.065824
    83  H    0.042329
    84  H    0.064770
    85  H    0.049056
    86  H    0.045445
    87  H    0.049217
    88  H    0.052302
    89  H    0.045005
    90  H    0.034708
    91  H    0.042112
    92  H    0.045160
    93  H    0.044215
    94  H    0.037003
    95  H    0.061890
    96  H    0.046716
    97  H    0.067615
    98  H    0.068397
    99  H    0.068711
   100  H    0.072623
   101  H    0.063738
   102  H    0.048589
   103  H    0.053485
   104  H    0.045791
   105  H    0.023012
   106  H    0.055544
   107  H    0.077216
   108  H    0.036866
   109  H    0.020589
   110  H    0.037380
   111  H    0.048610
   112  H    0.018974
   113  H    0.039542
   114  H    0.039239
   115  H    0.040401
   116  H    0.051783
   117  H    0.035698
   118  H    0.026634
   119  H    0.019032
   120  H    0.018048
   121  H    0.021493
   122  H    0.033785
   123  H    0.031811
   124  H    0.042302
   125  H    0.030945
   126  H    0.033187
   127  H    0.030991
   128  H    0.022456
   129  H    0.025801
   130  H    0.034132
   131  H    0.035770
   132  H    0.018389
   133  H    0.020495
   134  H    0.036080
   135  H    0.041279
   136  H    0.042272
   137  H    0.019347
   138  H    0.027582
   139  H    0.044155
   140  H    0.029879
 Sum of Mulliken charges =  -0.00000

 Dipole moment (field-independent basis, Debye):
    X=             -3.7684    Y=              2.1288    Z=              0.5345  Tot=              4.3610
 Quadrupole moment (field-independent basis, Debye-Ang):
   XX=           -375.8582   YY=           -418.5156   ZZ=           -401.0576
   XY=              5.8203   XZ=              1.8664   YZ=              2.4003

 Normal termination of Gaussian 16 at Wed May  4 12:37:09 2022.
