 Gaussian 16, Revision A.03,
 Gaussian 16:  ES64L-G16RevA.03 25-Dec-2016

 --------------------------------
 #p wB97XD/Def2SVP td=(nstates=5)
 --------------------------------

 ----------------------------------------------------
 step_1701_chromophore_4 TDDFT with wB97XD functional
 ----------------------------------------------------
 Symbolic Z-matrix:
 Charge =  0 Multiplicity = 1

                         Standard orientation:
 ---------------------------------------------------------------------
 Center     Atomic      Atomic             Coordinates (Angstroms)
 Number     Number       Type             X           Y           Z
 ---------------------------------------------------------------------
      1         12           0        5.868510    0.507600    0.099113
      2          6           0        3.508180   -2.159799    0.433721
      3          6           0        3.157829    2.643520   -0.574694
      4          6           0        7.985521    3.023876   -0.260772
      5          6           0        8.392674   -1.841515    0.174267
      6          7           0        3.570239    0.256594   -0.022188
      7          6           0        2.845264   -0.924484    0.163970
      8          6           0        1.348757   -0.699351   -0.008432
      9          6           0        1.358150    0.796894   -0.660479
     10          6           0        2.789982    1.242813   -0.521714
     11          6           0        0.738322    0.911699   -2.088173
     12          6           0        0.633637   -0.783019    1.348988
     13          6           0       -0.520417   -1.817700    1.419871
     14          6           0       -1.674646   -1.639790    0.375953
     15          8           0       -1.839085   -0.645662   -0.296993
     16          8           0       -2.431023   -2.778359    0.270243
     17          7           0        5.601050    2.527821   -0.231676
     18          6           0        4.438304    3.250744   -0.412247
     19          6           0        4.734956    4.679111   -0.282996
     20          6           0        6.152792    4.751229   -0.259667
     21          6           0        6.672706    3.423420   -0.253327
     22          6           0        3.625517    5.766593   -0.440534
     23          6           0        7.108285    6.040130   -0.111035
     24          8           0        8.358632    6.034770    0.047115
     25          6           0        6.487948    7.433829   -0.054928
     26          7           0        7.955986    0.581773   -0.148477
     27          6           0        8.610019    1.733650   -0.126718
     28          6           0       10.159968    1.460703   -0.288401
     29          6           0       10.260382   -0.039350   -0.010653
     30          6           0        8.832369   -0.468035   -0.086661
     31          6           0       10.767968    1.975642   -1.647820
     32          6           0       11.127814   -0.418167    1.324355
     33          6           0       12.569342   -0.551640    1.111990
     34          7           0        5.963807   -1.501643    0.287292
     35          6           0        7.050546   -2.336469    0.297903
     36          6           0        6.635734   -3.724434    0.398317
     37          6           0        5.261282   -3.626569    0.579393
     38          6           0        4.850001   -2.298002    0.433116
     39          6           0        7.501067   -4.911969    0.449293
     40          6           0        4.062356   -4.456900    0.848783
     41          8           0        3.947077   -5.671339    1.026980
     42          6           0        2.839797   -3.532264    0.618370
     43          6           0        2.171531   -4.092060   -0.622106
     44          8           0        2.704621   -4.375805   -1.671237
     45          8           0        0.845081   -4.302371   -0.332774
     46          6           0        0.025836   -4.676747   -1.530878
     47          6           0       -3.474635   -2.753210   -0.763250
     48          6           0       -4.707614   -2.086507   -0.184809
     49          6           0       -5.807881   -2.738858    0.186003
     50          6           0       -6.048664   -4.193946    0.677181
     51          6           0       -7.002863   -1.917630    0.630861
     52          6           0       -7.910857   -1.393022   -0.559009
     53          6           0       -7.863279    0.210947   -0.639441
     54          6           0       -9.164424    0.987879   -0.341852
     55          6           0      -10.106153    1.098930   -1.601083
     56          6           0       -8.899285    2.348277    0.262293
     57          6           0       -9.479905    2.395057    1.744069
     58          6           0      -10.929025    2.896340    1.735264
     59          6           0      -12.041173    1.933979    2.447603
     60          6           0      -12.345695    2.510377    3.848463
     61          6           0      -13.427178    2.004528    1.669162
     62          6           0      -13.507006    0.933991    0.535539
     63          6           0      -14.448723    1.228146   -0.572037
     64          6           0      -14.333664    0.178389   -1.739369
     65          6           0      -13.475025    0.588835   -2.957822
     66          6           0      -15.734485   -0.307273   -2.270706
     67          1           0        2.400443    3.408942   -0.754925
     68          1           0        8.769284    3.761972   -0.443554
     69          1           0        9.134008   -2.639236    0.101695
     70          1           0        0.995243   -1.393652   -0.770745
     71          1           0        0.762717    1.297382    0.102621
     72          1           0        0.105821    0.035077   -2.228915
     73          1           0        1.483473    0.823901   -2.878062
     74          1           0        0.252846    1.880094   -2.209646
     75          1           0        0.442365    0.194925    1.790479
     76          1           0        1.393731   -1.214342    2.000113
     77          1           0       -0.936102   -1.636046    2.410809
     78          1           0       -0.230791   -2.859613    1.546651
     79          1           0        3.979387    6.363753   -1.280508
     80          1           0        3.664734    6.380402    0.459670
     81          1           0        2.593041    5.418158   -0.487664
     82          1           0        5.933417    7.426834    0.883784
     83          1           0        5.766772    7.515901   -0.867990
     84          1           0        7.186879    8.266467   -0.133790
     85          1           0       10.650761    1.946524    0.554185
     86          1           0       10.639156   -0.615574   -0.854674
     87          1           0       11.528067    2.743196   -1.503614
     88          1           0        9.923363    2.429955   -2.165580
     89          1           0       11.216315    1.182902   -2.247074
     90          1           0       10.669719   -1.353386    1.647049
     91          1           0       11.009763    0.335205    2.103542
     92          1           0       12.910353   -1.582412    1.011427
     93          1           0       13.161367   -0.060646    1.883622
     94          1           0       12.749388   -0.040379    0.166581
     95          1           0        8.000373   -4.829333    1.415229
     96          1           0        8.239249   -4.892444   -0.352228
     97          1           0        6.923863   -5.831177    0.346216
     98          1           0        2.137764   -3.744553    1.424799
     99          1           0       -0.056991   -5.758808   -1.432806
    100          1           0        0.480189   -4.437071   -2.491316
    101          1           0       -0.938378   -4.169375   -1.486222
    102          1           0       -3.674609   -3.771999   -1.094343
    103          1           0       -3.284992   -2.197968   -1.681119
    104          1           0       -4.897621   -1.047913   -0.454000
    105          1           0       -5.255015   -4.770751    0.201990
    106          1           0       -6.946253   -4.716227    0.343546
    107          1           0       -5.912577   -4.162146    1.757596
    108          1           0       -6.635350   -1.048481    1.176929
    109          1           0       -7.519175   -2.442184    1.435352
    110          1           0       -8.898496   -1.649605   -0.175655
    111          1           0       -7.672432   -1.889874   -1.499432
    112          1           0       -7.706436    0.215960   -1.718456
    113          1           0       -7.018913    0.736707   -0.194450
    114          1           0       -9.619557    0.344644    0.411101
    115          1           0       -9.482315    1.380519   -2.449432
    116          1           0      -10.926972    1.805609   -1.483375
    117          1           0      -10.648355    0.174327   -1.795285
    118          1           0       -9.366583    3.167506   -0.284946
    119          1           0       -7.862732    2.684358    0.241389
    120          1           0       -8.870265    2.996793    2.418583
    121          1           0       -9.419859    1.473063    2.322803
    122          1           0      -11.380824    3.128333    0.770496
    123          1           0      -10.835011    3.826395    2.296261
    124          1           0      -11.654941    0.915706    2.399335
    125          1           0      -11.906101    3.485783    4.055499
    126          1           0      -11.997439    1.815472    4.613147
    127          1           0      -13.419587    2.654834    3.970871
    128          1           0      -13.686318    2.959605    1.212348
    129          1           0      -14.316100    1.768539    2.254647
    130          1           0      -13.846566    0.012588    1.009854
    131          1           0      -12.471508    0.868037    0.202998
    132          1           0      -14.232554    2.244318   -0.901762
    133          1           0      -15.465583    1.231579   -0.180932
    134          1           0      -13.838373   -0.699950   -1.325202
    135          1           0      -14.088026    0.989767   -3.764102
    136          1           0      -12.807674   -0.213077   -3.272060
    137          1           0      -12.790239    1.373440   -2.634467
    138          1           0      -15.702668   -0.392428   -3.356741
    139          1           0      -16.708694    0.113609   -2.020466
    140          1           0      -15.730449   -1.316218   -1.857079
 ---------------------------------------------------------------------

 SCF Done:  E(RwB97XD) =  -3007.83526269     A.U. after   20 cycles

 Excitation energies and oscillator strengths:

 Excited State   1:      Singlet-A      1.6812 eV  737.47 nm  f=0.3284  <S**2>=0.000
     245 -> 248        0.22290
     246 -> 247        0.67310
     245 <- 248        0.12437
 This state for optimization and/or second-order correction.
 Total Energy, E(TD-HF/TD-DFT) =  -3007.77347931
 Copying the excited state density for this state as the 1-particle RhoCI density.

 Excited State   2:      Singlet-A      2.1816 eV  568.32 nm  f=0.0364  <S**2>=0.000
     245 -> 247        0.59234
     246 -> 248       -0.37715

 Excited State   3:      Singlet-A      3.3642 eV  368.55 nm  f=0.7409  <S**2>=0.000
     242 -> 247       -0.11080
     243 -> 247        0.18929
     244 -> 247       -0.15035
     245 -> 247        0.33402
     246 -> 248        0.55844
     245 <- 247       -0.11376

 Excited State   4:      Singlet-A      3.5976 eV  344.63 nm  f=0.1182  <S**2>=0.000
     242 -> 247        0.10480
     243 -> 249        0.11580
     244 -> 247        0.62932
     245 -> 247        0.11332
     246 -> 248        0.16327

 Excited State   5:      Singlet-A      3.6255 eV  341.98 nm  f=0.0063  <S**2>=0.000
     240 -> 247        0.15158
     240 -> 249       -0.13281
     240 -> 250        0.12751
     241 -> 247        0.41180
     241 -> 248       -0.12947
     241 -> 249       -0.32509
     241 -> 250        0.24475
     242 -> 247        0.17436

 The electronic state is 1-A.
 Alpha  occ. eigenvalues --  -46.94019 -19.30716 -19.30576 -19.25414 -19.24747
 Alpha  occ. eigenvalues --  -19.24322 -19.23723 -14.46345 -14.46300 -14.43548
 Alpha  occ. eigenvalues --  -14.43528 -10.43774 -10.43157 -10.40289 -10.38580
 Alpha  occ. eigenvalues --  -10.36355 -10.35498 -10.34886 -10.34815 -10.34788
 Alpha  occ. eigenvalues --  -10.34625 -10.33951 -10.33675 -10.33374 -10.33345
 Alpha  occ. eigenvalues --  -10.32331 -10.32143 -10.31998 -10.31913 -10.31819
 Alpha  occ. eigenvalues --  -10.31741 -10.31680 -10.31600 -10.31402 -10.31341
 Alpha  occ. eigenvalues --  -10.31199 -10.31193 -10.31153 -10.31149 -10.31116
 Alpha  occ. eigenvalues --  -10.30582 -10.30393 -10.30319 -10.30276 -10.30224
 Alpha  occ. eigenvalues --  -10.30037 -10.29903 -10.29872 -10.29655 -10.29455
 Alpha  occ. eigenvalues --  -10.29323 -10.29152 -10.29150 -10.29121 -10.29105
 Alpha  occ. eigenvalues --  -10.29008 -10.28942 -10.28769 -10.28763 -10.28683
 Alpha  occ. eigenvalues --  -10.28559 -10.28411 -10.28208 -10.28090 -10.28030
 Alpha  occ. eigenvalues --  -10.28009  -3.20070  -1.93671  -1.93202  -1.93045
 Alpha  occ. eigenvalues --   -1.19027  -1.18403  -1.11164  -1.10787  -1.10402
 Alpha  occ. eigenvalues --   -1.09998  -1.06303  -1.05205  -1.04366  -1.03626
 Alpha  occ. eigenvalues --   -0.94682  -0.92291  -0.91299  -0.90736  -0.90658
 Alpha  occ. eigenvalues --   -0.90436  -0.89397  -0.88593  -0.88580  -0.88012
 Alpha  occ. eigenvalues --   -0.87597  -0.86627  -0.85860  -0.85541  -0.85135
 Alpha  occ. eigenvalues --   -0.84403  -0.83645  -0.83070  -0.82746  -0.81897
 Alpha  occ. eigenvalues --   -0.81593  -0.79975  -0.79594  -0.79518  -0.78139
 Alpha  occ. eigenvalues --   -0.77642  -0.76990  -0.76677  -0.76421  -0.76098
 Alpha  occ. eigenvalues --   -0.75284  -0.73922  -0.73512  -0.72182  -0.70454
 Alpha  occ. eigenvalues --   -0.70297  -0.69872  -0.68592  -0.68201  -0.67224
 Alpha  occ. eigenvalues --   -0.66941  -0.66774  -0.66210  -0.66127  -0.65988
 Alpha  occ. eigenvalues --   -0.65736  -0.65266  -0.64569  -0.63991  -0.61978
 Alpha  occ. eigenvalues --   -0.61654  -0.60930  -0.60639  -0.60217  -0.59733
 Alpha  occ. eigenvalues --   -0.59308  -0.58903  -0.57896  -0.57616  -0.57076
 Alpha  occ. eigenvalues --   -0.56689  -0.56542  -0.56423  -0.56118  -0.55639
 Alpha  occ. eigenvalues --   -0.55273  -0.54956  -0.54846  -0.54697  -0.54465
 Alpha  occ. eigenvalues --   -0.54119  -0.54013  -0.53931  -0.53824  -0.53649
 Alpha  occ. eigenvalues --   -0.53166  -0.53072  -0.52715  -0.52598  -0.52359
 Alpha  occ. eigenvalues --   -0.51965  -0.51781  -0.51712  -0.51560  -0.51256
 Alpha  occ. eigenvalues --   -0.51183  -0.50991  -0.50908  -0.50620  -0.50498
 Alpha  occ. eigenvalues --   -0.50299  -0.50055  -0.49842  -0.49640  -0.49583
 Alpha  occ. eigenvalues --   -0.49179  -0.49085  -0.49012  -0.48820  -0.48413
 Alpha  occ. eigenvalues --   -0.48214  -0.48029  -0.47886  -0.47815  -0.47545
 Alpha  occ. eigenvalues --   -0.47291  -0.47193  -0.47085  -0.46895  -0.46704
 Alpha  occ. eigenvalues --   -0.46579  -0.46537  -0.46184  -0.46061  -0.45639
 Alpha  occ. eigenvalues --   -0.45532  -0.45310  -0.45216  -0.45095  -0.44892
 Alpha  occ. eigenvalues --   -0.44500  -0.44373  -0.44241  -0.44041  -0.43970
 Alpha  occ. eigenvalues --   -0.43720  -0.43510  -0.43147  -0.43037  -0.42948
 Alpha  occ. eigenvalues --   -0.42624  -0.42526  -0.42375  -0.42299  -0.42007
 Alpha  occ. eigenvalues --   -0.41976  -0.41456  -0.41094  -0.40733  -0.40547
 Alpha  occ. eigenvalues --   -0.40162  -0.40011  -0.39687  -0.39527  -0.39348
 Alpha  occ. eigenvalues --   -0.39198  -0.38533  -0.38473  -0.38260  -0.38088
 Alpha  occ. eigenvalues --   -0.37503  -0.36824  -0.36648  -0.36542  -0.36405
 Alpha  occ. eigenvalues --   -0.36085  -0.35856  -0.35294  -0.33061  -0.33021
 Alpha  occ. eigenvalues --   -0.32547  -0.32514  -0.31854  -0.31412  -0.25412
 Alpha  occ. eigenvalues --   -0.22320
 Alpha virt. eigenvalues --   -0.05950  -0.00469   0.02493   0.04485   0.06284
 Alpha virt. eigenvalues --    0.06808   0.07384   0.07808   0.08390   0.09053
 Alpha virt. eigenvalues --    0.10250   0.11383   0.11880   0.12082   0.12469

 Mulliken charges:
               1
     1  Mg   0.976711
     2  C   -0.066867
     3  C   -0.073400
     4  C   -0.080031
     5  C   -0.089659
     6  N   -0.320097
     7  C   -0.047547
     8  C   -0.093205
     9  C   -0.100317
    10  C    0.101433
    11  C    0.050324
    12  C    0.079462
    13  C   -0.030070
    14  C    0.221563
    15  O   -0.251885
    16  O   -0.356159
    17  N   -0.491731
    18  C    0.115771
    19  C   -0.163673
    20  C   -0.095292
    21  C    0.192973
    22  C    0.056464
    23  C    0.094719
    24  O   -0.261200
    25  C   -0.006279
    26  N   -0.357667
    27  C    0.014882
    28  C   -0.073709
    29  C   -0.086783
    30  C    0.055232
    31  C    0.025119
    32  C   -0.002565
    33  C   -0.033621
    34  N   -0.469824
    35  C    0.114850
    36  C   -0.201830
    37  C   -0.060078
    38  C    0.237270
    39  C    0.078277
    40  C    0.127435
    41  O   -0.215192
    42  C   -0.059931
    43  C    0.257736
    44  O   -0.228952
    45  O   -0.377873
    46  C    0.126736
    47  C    0.223769
    48  C   -0.114172
    49  C   -0.203791
    50  C    0.025592
    51  C   -0.010438
    52  C   -0.024113
    53  C   -0.007783
    54  C   -0.143114
    55  C   -0.011647
    56  C    0.014350
    57  C   -0.036833
    58  C    0.002871
    59  C   -0.192189
    60  C    0.024847
    61  C   -0.006970
    62  C   -0.085525
    63  C    0.040405
    64  C   -0.201178
    65  C    0.001242
    66  C   -0.023093
    67  H   -0.011316
    68  H    0.022270
    69  H    0.000939
    70  H    0.031752
    71  H    0.032182
    72  H    0.041048
    73  H    0.028859
    74  H    0.043963
    75  H    0.040234
    76  H    0.029524
    77  H    0.054652
    78  H    0.063833
    79  H    0.068421
    80  H    0.044163
    81  H    0.052331
    82  H    0.059853
    83  H    0.035050
    84  H    0.064693
    85  H    0.038171
    86  H    0.033164
    87  H    0.044506
    88  H    0.044557
    89  H    0.040056
    90  H    0.024877
    91  H    0.034375
    92  H    0.040106
    93  H    0.039275
    94  H    0.027348
    95  H    0.056091
    96  H    0.041053
    97  H    0.064571
    98  H    0.061777
    99  H    0.065149
   100  H    0.068888
   101  H    0.053748
   102  H    0.044335
   103  H    0.049368
   104  H    0.040986
   105  H    0.014983
   106  H    0.050665
   107  H    0.071294
   108  H    0.026705
   109  H    0.014174
   110  H    0.028633
   111  H    0.042252
   112  H    0.008532
   113  H    0.030233
   114  H    0.019718
   115  H    0.034715
   116  H    0.037246
   117  H    0.026752
   118  H    0.017506
   119  H    0.012620
   120  H    0.011848
   121  H    0.011374
   122  H    0.020891
   123  H    0.023010
   124  H    0.030197
   125  H    0.024811
   126  H    0.027962
   127  H    0.024332
   128  H    0.013092
   129  H    0.016335
   130  H    0.024833
   131  H    0.007469
   132  H    0.008880
   133  H    0.012327
   134  H    0.024290
   135  H    0.035822
   136  H    0.037206
   137  H    0.006453
   138  H    0.021031
   139  H    0.039650
   140  H    0.023551
 Sum of Mulliken charges =  -0.00000

 Dipole moment (field-independent basis, Debye):
    X=             -3.8437    Y=              2.4719    Z=              0.5264  Tot=              4.6002
 Quadrupole moment (field-independent basis, Debye-Ang):
   XX=           -377.1569   YY=           -416.2243   ZZ=           -400.5597
   XY=              8.2708   XZ=              1.9402   YZ=              2.4272

 Normal termination of Gaussian 16 at Wed May  4 13:10:45 2022.
