 Gaussian 16, Revision A.03,
 Gaussian 16:  ES64L-G16RevA.03 25-Dec-2016

 --------------------
 #p ZINDO=(nstates=5)
 --------------------

 -----------------------------
 step_1701_chromophore_4 ZINDO
 -----------------------------
 Symbolic Z-matrix:
 Charge =  0 Multiplicity = 1

                         Standard orientation:
 ---------------------------------------------------------------------
 Center     Atomic      Atomic             Coordinates (Angstroms)
 Number     Number       Type             X           Y           Z
 ---------------------------------------------------------------------
      1         12           0        5.868510    0.507600    0.099113
      2          6           0        3.508180   -2.159799    0.433721
      3          6           0        3.157829    2.643520   -0.574694
      4          6           0        7.985521    3.023876   -0.260772
      5          6           0        8.392674   -1.841515    0.174267
      6          7           0        3.570239    0.256594   -0.022188
      7          6           0        2.845264   -0.924484    0.163970
      8          6           0        1.348757   -0.699351   -0.008432
      9          6           0        1.358150    0.796894   -0.660479
     10          6           0        2.789982    1.242813   -0.521714
     11          6           0        0.738322    0.911699   -2.088173
     12          6           0        0.633637   -0.783019    1.348988
     13          6           0       -0.520417   -1.817700    1.419871
     14          6           0       -1.674646   -1.639790    0.375953
     15          8           0       -1.839085   -0.645662   -0.296993
     16          8           0       -2.431023   -2.778359    0.270243
     17          7           0        5.601050    2.527821   -0.231676
     18          6           0        4.438304    3.250744   -0.412247
     19          6           0        4.734956    4.679111   -0.282996
     20          6           0        6.152792    4.751229   -0.259667
     21          6           0        6.672706    3.423420   -0.253327
     22          6           0        3.625517    5.766593   -0.440534
     23          6           0        7.108285    6.040130   -0.111035
     24          8           0        8.358632    6.034770    0.047115
     25          6           0        6.487948    7.433829   -0.054928
     26          7           0        7.955986    0.581773   -0.148477
     27          6           0        8.610019    1.733650   -0.126718
     28          6           0       10.159968    1.460703   -0.288401
     29          6           0       10.260382   -0.039350   -0.010653
     30          6           0        8.832369   -0.468035   -0.086661
     31          6           0       10.767968    1.975642   -1.647820
     32          6           0       11.127814   -0.418167    1.324355
     33          6           0       12.569342   -0.551640    1.111990
     34          7           0        5.963807   -1.501643    0.287292
     35          6           0        7.050546   -2.336469    0.297903
     36          6           0        6.635734   -3.724434    0.398317
     37          6           0        5.261282   -3.626569    0.579393
     38          6           0        4.850001   -2.298002    0.433116
     39          6           0        7.501067   -4.911969    0.449293
     40          6           0        4.062356   -4.456900    0.848783
     41          8           0        3.947077   -5.671339    1.026980
     42          6           0        2.839797   -3.532264    0.618370
     43          6           0        2.171531   -4.092060   -0.622106
     44          8           0        2.704621   -4.375805   -1.671237
     45          8           0        0.845081   -4.302371   -0.332774
     46          6           0        0.025836   -4.676747   -1.530878
     47          6           0       -3.474635   -2.753210   -0.763250
     48          6           0       -4.707614   -2.086507   -0.184809
     49          6           0       -5.807881   -2.738858    0.186003
     50          6           0       -6.048664   -4.193946    0.677181
     51          6           0       -7.002863   -1.917630    0.630861
     52          6           0       -7.910857   -1.393022   -0.559009
     53          6           0       -7.863279    0.210947   -0.639441
     54          6           0       -9.164424    0.987879   -0.341852
     55          6           0      -10.106153    1.098930   -1.601083
     56          6           0       -8.899285    2.348277    0.262293
     57          6           0       -9.479905    2.395057    1.744069
     58          6           0      -10.929025    2.896340    1.735264
     59          6           0      -12.041173    1.933979    2.447603
     60          6           0      -12.345695    2.510377    3.848463
     61          6           0      -13.427178    2.004528    1.669162
     62          6           0      -13.507006    0.933991    0.535539
     63          6           0      -14.448723    1.228146   -0.572037
     64          6           0      -14.333664    0.178389   -1.739369
     65          6           0      -13.475025    0.588835   -2.957822
     66          6           0      -15.734485   -0.307273   -2.270706
     67          1           0        2.400443    3.408942   -0.754925
     68          1           0        8.769284    3.761972   -0.443554
     69          1           0        9.134008   -2.639236    0.101695
     70          1           0        0.995243   -1.393652   -0.770745
     71          1           0        0.762717    1.297382    0.102621
     72          1           0        0.105821    0.035077   -2.228915
     73          1           0        1.483473    0.823901   -2.878062
     74          1           0        0.252846    1.880094   -2.209646
     75          1           0        0.442365    0.194925    1.790479
     76          1           0        1.393731   -1.214342    2.000113
     77          1           0       -0.936102   -1.636046    2.410809
     78          1           0       -0.230791   -2.859613    1.546651
     79          1           0        3.979387    6.363753   -1.280508
     80          1           0        3.664734    6.380402    0.459670
     81          1           0        2.593041    5.418158   -0.487664
     82          1           0        5.933417    7.426834    0.883784
     83          1           0        5.766772    7.515901   -0.867990
     84          1           0        7.186879    8.266467   -0.133790
     85          1           0       10.650761    1.946524    0.554185
     86          1           0       10.639156   -0.615574   -0.854674
     87          1           0       11.528067    2.743196   -1.503614
     88          1           0        9.923363    2.429955   -2.165580
     89          1           0       11.216315    1.182902   -2.247074
     90          1           0       10.669719   -1.353386    1.647049
     91          1           0       11.009763    0.335205    2.103542
     92          1           0       12.910353   -1.582412    1.011427
     93          1           0       13.161367   -0.060646    1.883622
     94          1           0       12.749388   -0.040379    0.166581
     95          1           0        8.000373   -4.829333    1.415229
     96          1           0        8.239249   -4.892444   -0.352228
     97          1           0        6.923863   -5.831177    0.346216
     98          1           0        2.137764   -3.744553    1.424799
     99          1           0       -0.056991   -5.758808   -1.432806
    100          1           0        0.480189   -4.437071   -2.491316
    101          1           0       -0.938378   -4.169375   -1.486222
    102          1           0       -3.674609   -3.771999   -1.094343
    103          1           0       -3.284992   -2.197968   -1.681119
    104          1           0       -4.897621   -1.047913   -0.454000
    105          1           0       -5.255015   -4.770751    0.201990
    106          1           0       -6.946253   -4.716227    0.343546
    107          1           0       -5.912577   -4.162146    1.757596
    108          1           0       -6.635350   -1.048481    1.176929
    109          1           0       -7.519175   -2.442184    1.435352
    110          1           0       -8.898496   -1.649605   -0.175655
    111          1           0       -7.672432   -1.889874   -1.499432
    112          1           0       -7.706436    0.215960   -1.718456
    113          1           0       -7.018913    0.736707   -0.194450
    114          1           0       -9.619557    0.344644    0.411101
    115          1           0       -9.482315    1.380519   -2.449432
    116          1           0      -10.926972    1.805609   -1.483375
    117          1           0      -10.648355    0.174327   -1.795285
    118          1           0       -9.366583    3.167506   -0.284946
    119          1           0       -7.862732    2.684358    0.241389
    120          1           0       -8.870265    2.996793    2.418583
    121          1           0       -9.419859    1.473063    2.322803
    122          1           0      -11.380824    3.128333    0.770496
    123          1           0      -10.835011    3.826395    2.296261
    124          1           0      -11.654941    0.915706    2.399335
    125          1           0      -11.906101    3.485783    4.055499
    126          1           0      -11.997439    1.815472    4.613147
    127          1           0      -13.419587    2.654834    3.970871
    128          1           0      -13.686318    2.959605    1.212348
    129          1           0      -14.316100    1.768539    2.254647
    130          1           0      -13.846566    0.012588    1.009854
    131          1           0      -12.471508    0.868037    0.202998
    132          1           0      -14.232554    2.244318   -0.901762
    133          1           0      -15.465583    1.231579   -0.180932
    134          1           0      -13.838373   -0.699950   -1.325202
    135          1           0      -14.088026    0.989767   -3.764102
    136          1           0      -12.807674   -0.213077   -3.272060
    137          1           0      -12.790239    1.373440   -2.634467
    138          1           0      -15.702668   -0.392428   -3.356741
    139          1           0      -16.708694    0.113609   -2.020466
    140          1           0      -15.730449   -1.316218   -1.857079
 ---------------------------------------------------------------------

 SCF Done:  E(RZINDO/S) =  -473.928174073     A.U. after   19 cycles

 Excitation energies and oscillator strengths:

 Excited State   1:      Singlet-A      1.2741 eV  973.14 nm  f=0.5134  <S**2>=0.000
     175 ->178         0.22002
     176 ->177         0.65510
 This state for optimization and/or second-order correction.
 Total Energy, E(CIS/TDA) =  -473.881353186
 Copying the excited state density for this state as the 1-particle RhoCI density.

 Excited State   2:      Singlet-A      1.8609 eV  666.26 nm  f=0.0005  <S**2>=0.000
     175 ->177        -0.47789
     176 ->178         0.50300

 Excited State   3:      Singlet-A      2.9539 eV  419.73 nm  f=0.0609  <S**2>=0.000
     170 ->177         0.12260
     170 ->179         0.16988
     170 ->180        -0.15586
     175 ->177         0.10288
     176 ->178         0.11312
     176 ->179         0.56044

 Excited State   4:      Singlet-A      2.9667 eV  417.92 nm  f=0.0551  <S**2>=0.000
     168 ->177        -0.23909
     168 ->179         0.35101
     168 ->180         0.33683
     168 ->186         0.21853
     169 ->179         0.12333
     170 ->180        -0.11633

 Excited State   5:      Singlet-A      2.9868 eV  415.10 nm  f=0.2186  <S**2>=0.000
     169 ->177         0.11779
     169 ->179         0.11337
     169 ->180        -0.15263
     170 ->177         0.20067
     170 ->179         0.28046
     170 ->180        -0.21448
     170 ->186         0.16312
     170 ->187        -0.11834
     175 ->177        -0.18547
     176 ->178        -0.18862
     176 ->179        -0.25993

 The electronic state is 1-A.
 Alpha  occ. eigenvalues --   -1.84185  -1.80873  -1.78639  -1.73296  -1.72191
 Alpha  occ. eigenvalues --   -1.70163  -1.64346  -1.59259  -1.58339  -1.55333
 Alpha  occ. eigenvalues --   -1.54335  -1.51229  -1.48894  -1.47789  -1.46841
 Alpha  occ. eigenvalues --   -1.44353  -1.41948  -1.38782  -1.38560  -1.36541
 Alpha  occ. eigenvalues --   -1.34801  -1.33992  -1.32771  -1.31175  -1.28269
 Alpha  occ. eigenvalues --   -1.26946  -1.24083  -1.22327  -1.20756  -1.18178
 Alpha  occ. eigenvalues --   -1.17397  -1.16005  -1.15430  -1.13011  -1.12235
 Alpha  occ. eigenvalues --   -1.11487  -1.11295  -1.10133  -1.04332  -1.03487
 Alpha  occ. eigenvalues --   -1.02624  -1.00430  -0.98528  -0.97611  -0.96100
 Alpha  occ. eigenvalues --   -0.95143  -0.94788  -0.94051  -0.92496  -0.92031
 Alpha  occ. eigenvalues --   -0.90591  -0.90095  -0.88752  -0.88529  -0.86495
 Alpha  occ. eigenvalues --   -0.85329  -0.84317  -0.83081  -0.81847  -0.80252
 Alpha  occ. eigenvalues --   -0.79353  -0.78782  -0.77155  -0.76482  -0.76026
 Alpha  occ. eigenvalues --   -0.75047  -0.74841  -0.74218  -0.73803  -0.73549
 Alpha  occ. eigenvalues --   -0.72853  -0.71853  -0.71316  -0.70994  -0.70253
 Alpha  occ. eigenvalues --   -0.69739  -0.69035  -0.69005  -0.68607  -0.68303
 Alpha  occ. eigenvalues --   -0.67242  -0.66494  -0.66311  -0.65738  -0.65714
 Alpha  occ. eigenvalues --   -0.65544  -0.65038  -0.64634  -0.63931  -0.63456
 Alpha  occ. eigenvalues --   -0.63076  -0.62831  -0.62647  -0.62149  -0.61908
 Alpha  occ. eigenvalues --   -0.61343  -0.60783  -0.60511  -0.60138  -0.59917
 Alpha  occ. eigenvalues --   -0.59449  -0.59221  -0.58849  -0.58639  -0.58068
 Alpha  occ. eigenvalues --   -0.57962  -0.57788  -0.57504  -0.57014  -0.56717
 Alpha  occ. eigenvalues --   -0.56345  -0.55627  -0.55186  -0.55052  -0.54652
 Alpha  occ. eigenvalues --   -0.54501  -0.53840  -0.53704  -0.53271  -0.52970
 Alpha  occ. eigenvalues --   -0.52787  -0.52310  -0.52063  -0.51676  -0.51315
 Alpha  occ. eigenvalues --   -0.50815  -0.50506  -0.50428  -0.50202  -0.49902
 Alpha  occ. eigenvalues --   -0.49829  -0.49706  -0.49383  -0.49250  -0.49143
 Alpha  occ. eigenvalues --   -0.48624  -0.48509  -0.48463  -0.48119  -0.47703
 Alpha  occ. eigenvalues --   -0.47611  -0.46981  -0.46946  -0.46703  -0.46362
 Alpha  occ. eigenvalues --   -0.45996  -0.45844  -0.45564  -0.45040  -0.44877
 Alpha  occ. eigenvalues --   -0.44548  -0.44508  -0.44235  -0.43768  -0.43706
 Alpha  occ. eigenvalues --   -0.43527  -0.42847  -0.42636  -0.42259  -0.41752
 Alpha  occ. eigenvalues --   -0.41557  -0.41340  -0.41153  -0.39634  -0.38899
 Alpha  occ. eigenvalues --   -0.37966  -0.37138  -0.35429  -0.34872  -0.34517
 Alpha  occ. eigenvalues --   -0.33346  -0.33316  -0.32208  -0.31566  -0.26175
 Alpha  occ. eigenvalues --   -0.21203
 Alpha virt. eigenvalues --   -0.07527  -0.02696  -0.00399   0.01340   0.01644
 Alpha virt. eigenvalues --    0.02792   0.03090   0.03404   0.04396   0.04422
 Alpha virt. eigenvalues --    0.05970   0.06464   0.07143   0.07973   0.08171

 Mulliken charges:
               1
     1  Mg   0.421464
     2  C   -0.033241
     3  C   -0.094007
     4  C   -0.059929
     5  C   -0.081091
     6  N   -0.289431
     7  C    0.107448
     8  C   -0.000900
     9  C   -0.001919
    10  C    0.148469
    11  C   -0.046012
    12  C   -0.014315
    13  C    0.000054
    14  C    0.470253
    15  O   -0.513736
    16  O   -0.260964
    17  N   -0.343168
    18  C    0.114729
    19  C    0.002441
    20  C   -0.030281
    21  C    0.140995
    22  C   -0.044187
    23  C    0.315097
    24  O   -0.526316
    25  C   -0.025658
    26  N   -0.238748
    27  C    0.129716
    28  C    0.006674
    29  C   -0.000488
    30  C    0.099170
    31  C   -0.050982
    32  C   -0.022369
    33  C   -0.050028
    34  N   -0.324006
    35  C    0.089145
    36  C    0.036642
    37  C   -0.051299
    38  C    0.116094
    39  C   -0.032411
    40  C    0.325962
    41  O   -0.526383
    42  C    0.048611
    43  C    0.492558
    44  O   -0.507878
    45  O   -0.280231
    46  C    0.069174
    47  C    0.105588
    48  C   -0.085393
    49  C   -0.000465
    50  C   -0.044787
    51  C   -0.037803
    52  C   -0.035216
    53  C   -0.047951
    54  C   -0.002905
    55  C   -0.059671
    56  C   -0.027275
    57  C   -0.038357
    58  C   -0.044058
    59  C   -0.017117
    60  C   -0.056619
    61  C   -0.049014
    62  C   -0.041411
    63  C   -0.025586
    64  C   -0.011821
    65  C   -0.057939
    66  C   -0.070105
    67  H    0.026838
    68  H    0.040122
    69  H    0.026576
    70  H    0.040248
    71  H    0.033964
    72  H    0.031181
    73  H    0.020332
    74  H    0.027168
    75  H    0.041762
    76  H    0.012106
    77  H    0.032854
    78  H    0.051699
    79  H    0.035689
    80  H    0.023872
    81  H    0.038087
    82  H    0.040461
    83  H    0.026166
    84  H    0.046076
    85  H    0.027755
    86  H    0.030749
    87  H    0.024593
    88  H    0.027148
    89  H    0.024647
    90  H    0.019694
    91  H    0.025554
    92  H    0.020298
    93  H    0.020083
    94  H    0.015872
    95  H    0.034758
    96  H    0.026526
    97  H    0.037331
    98  H    0.056600
    99  H    0.043250
   100  H    0.052991
   101  H    0.035388
   102  H    0.033981
   103  H    0.047662
   104  H    0.039011
   105  H    0.008207
   106  H    0.035610
   107  H    0.039180
   108  H    0.015357
   109  H    0.016313
   110  H    0.019110
   111  H    0.036273
   112  H    0.007168
   113  H    0.034268
   114  H    0.021149
   115  H    0.023705
   116  H    0.019418
   117  H    0.015821
   118  H    0.016284
   119  H    0.017707
   120  H    0.010952
   121  H    0.019461
   122  H    0.024929
   123  H    0.017268
   124  H    0.035821
   125  H    0.021420
   126  H    0.013264
   127  H    0.017772
   128  H    0.022051
   129  H    0.014350
   130  H    0.015340
   131  H    0.019217
   132  H    0.017550
   133  H    0.017690
   134  H    0.019588
   135  H    0.025481
   136  H    0.021457
   137  H    0.009722
   138  H    0.015327
   139  H    0.031306
   140  H    0.008557
 Sum of Mulliken charges =  -0.00000

 Dipole moment (field-independent basis, Debye):
    X=             -4.7888    Y=              4.0614    Z=              1.0371  Tot=              6.3642
 N-N= 4.294834389336D+03 E-N= 0.000000000000D+00  KE=-9.264108543653D+03
 Leave Link  601 at Wed May  4 13:24:05 2022, MaxMem=  6710886400 cpu:               0.8 elap:               0.1
 (Enter /sw/apps/gaussian-16.0/g16/l9999.exe)
 1\1\GINC-BP1-COMPUTE101\SP\RZINDO CIS\STO-3G\C55H74Mg1N4O6\OF15641\04-
 May-2022\0\\#p ZINDO=(nstates=5)\\step_1701_chromophore_4 ZINDO\\0,1\M
 g,0,9.326,3.459,28.258\C,0,11.009,2.142,31.127\C,0,7.597,5.618,30.429\
 C,0,7.7,4.71,25.663\C,0,10.66,0.874,26.405\N,0,9.338,3.849,30.54\C,0,1
 0.118,3.194,31.498\C,0,9.84,3.715,32.902\C,0,8.492,4.591,32.62\C,0,8.3
 84,4.615,31.118\C,0,7.217,4.13,33.393\C,0,11.028,4.546,33.411\C,0,11.6
 29,4.073,34.761\C,0,10.641,4.012,35.975\O,0,9.541,4.52,35.986\O,0,11.1

 Normal termination of Gaussian 16 at Wed May  4 13:24:05 2022.
