 Gaussian 16, Revision A.03,
 Gaussian 16:  ES64L-G16RevA.03 25-Dec-2016

 ------------------------------
 #p blyp/Def2SVP td=(nstates=5)
 ------------------------------

 -------------------------------------------------
 step_601_chromophore_7 TDDFT with blyp functional
 -------------------------------------------------
 Symbolic Z-matrix:
 Charge =  0 Multiplicity = 1

                         Standard orientation:
 ---------------------------------------------------------------------
 Center     Atomic      Atomic             Coordinates (Angstroms)
 Number     Number       Type             X           Y           Z
 ---------------------------------------------------------------------
      1         12           0        6.156229    0.422009   -0.124604
      2          6           0        3.612658   -2.067699   -0.214572
      3          6           0        3.728130    2.715870   -0.974502
      4          6           0        8.393337    2.791187    0.174673
      5          6           0        8.407085   -1.976731    0.756473
      6          7           0        3.936711    0.288675   -0.628606
      7          6           0        3.121553   -0.801647   -0.510605
      8          6           0        1.643141   -0.448612   -0.740997
      9          6           0        1.688142    1.087694   -1.008701
     10          6           0        3.177813    1.417686   -0.824224
     11          6           0        1.257351    1.487480   -2.401267
     12          6           0        0.735337   -0.803462    0.490086
     13          6           0       -0.720729   -0.424860    0.430539
     14          6           0       -1.772936   -1.557608    0.555533
     15          8           0       -1.479296   -2.745262    0.527952
     16          8           0       -3.042104   -1.095880    0.437444
     17          7           0        6.069022    2.457959   -0.357423
     18          6           0        5.031211    3.199323   -0.848113
     19          6           0        5.383206    4.534184   -1.042993
     20          6           0        6.746669    4.661801   -0.499160
     21          6           0        7.190597    3.264692   -0.243538
     22          6           0        4.344117    5.554016   -1.448290
     23          6           0        7.617194    5.892924   -0.401756
     24          8           0        8.766586    5.889342    0.152572
     25          6           0        7.074914    7.254703   -0.834596
     26          7           0        8.221347    0.396083    0.147122
     27          6           0        8.876994    1.524457    0.404148
     28          6           0       10.292569    1.248078    0.982909
     29          6           0       10.212768   -0.247769    1.288110
     30          6           0        8.864965   -0.650000    0.641669
     31          6           0       11.386121    1.614702   -0.093026
     32          6           0       10.342261   -0.640684    2.789505
     33          6           0       11.317106   -1.835631    3.137819
     34          7           0        6.102542   -1.632649    0.110980
     35          6           0        7.125841   -2.489693    0.404063
     36          6           0        6.617156   -3.846120    0.566322
     37          6           0        5.262476   -3.763213    0.285577
     38          6           0        5.014468   -2.361589    0.038844
     39          6           0        7.450566   -5.016084    0.977099
     40          6           0        3.998102   -4.544989    0.143608
     41          8           0        3.877101   -5.786926    0.046467
     42          6           0        2.874892   -3.451976   -0.092215
     43          6           0        1.995739   -3.750358   -1.269963
     44          8           0        2.295037   -3.543808   -2.410586
     45          8           0        0.784280   -4.292940   -0.834958
     46          6           0       -0.131029   -4.623342   -1.928960
     47          6           0       -4.027676   -2.055224   -0.000267
     48          6           0       -5.294847   -1.418488   -0.204258
     49          6           0       -6.523806   -1.971213   -0.031530
     50          6           0       -6.723077   -3.460295    0.131921
     51          6           0       -7.754613   -1.107654   -0.165157
     52          6           0       -8.388073   -0.999772   -1.542781
     53          6           0       -8.743375    0.407604   -1.991437
     54          6           0      -10.287229    0.503303   -2.518860
     55          6           0      -10.552855    1.576389   -3.511776
     56          6           0      -11.220251    0.661770   -1.292198
     57          6           0      -12.431936   -0.292605   -1.371342
     58          6           0      -13.727285    0.476655   -1.124618
     59          6           0      -14.096099    0.366829    0.452344
     60          6           0      -15.527848   -0.224561    0.682792
     61          6           0      -14.066097    1.755213    1.049126
     62          6           0      -13.581898    1.879223    2.513148
     63          6           0      -12.252287    1.416520    2.885305
     64          6           0      -11.148523    2.584386    2.887931
     65          6           0       -9.883303    2.042916    2.194863
     66          6           0      -10.942783    3.029662    4.354315
     67          1           0        2.931879    3.415931   -1.238178
     68          1           0        9.302707    3.390888    0.251447
     69          1           0        9.129438   -2.706616    1.126185
     70          1           0        1.243810   -1.131256   -1.490752
     71          1           0        1.057204    1.603893   -0.285513
     72          1           0        0.895990    0.718287   -3.083549
     73          1           0        2.003968    2.039908   -2.971346
     74          1           0        0.328350    2.055787   -2.449011
     75          1           0        1.159255   -0.399493    1.410079
     76          1           0        0.709825   -1.892646    0.521857
     77          1           0       -0.903889    0.265045   -0.393674
     78          1           0       -0.909782    0.280708    1.240451
     79          1           0        4.763514    6.133427   -2.270252
     80          1           0        4.193395    6.120659   -0.528885
     81          1           0        3.349344    5.343520   -1.841323
     82          1           0        7.621096    8.039084   -0.311225
     83          1           0        6.035074    7.415274   -0.549506
     84          1           0        7.115976    7.276544   -1.923735
     85          1           0       10.322364    1.870342    1.877129
     86          1           0       11.034014   -0.789217    0.819053
     87          1           0       12.058476    0.768839   -0.235928
     88          1           0       11.986299    2.486657    0.168643
     89          1           0       10.962205    1.814696   -1.076400
     90          1           0        9.386580   -0.952902    3.210532
     91          1           0       10.769946    0.194351    3.344717
     92          1           0       12.341677   -1.491075    3.280489
     93          1           0       11.420391   -2.431712    2.230633
     94          1           0       11.043508   -2.504824    3.952853
     95          1           0        8.214354   -5.177768    0.217373
     96          1           0        6.719398   -5.823755    1.009202
     97          1           0        8.002757   -4.887526    1.908606
     98          1           0        2.296385   -3.417111    0.830448
     99          1           0       -0.830790   -5.380305   -1.575597
    100          1           0        0.376445   -5.002964   -2.815688
    101          1           0       -0.633359   -3.667269   -2.075068
    102          1           0       -4.187537   -2.834699    0.744628
    103          1           0       -3.662662   -2.404012   -0.966230
    104          1           0       -5.331675   -0.329291   -0.218746
    105          1           0       -5.834860   -4.045433   -0.108499
    106          1           0       -7.589244   -3.795692   -0.438463
    107          1           0       -6.977733   -3.772663    1.144690
    108          1           0       -7.503831   -0.110124    0.195572
    109          1           0       -8.405449   -1.500038    0.617097
    110          1           0       -9.259367   -1.642790   -1.669304
    111          1           0       -7.707459   -1.354112   -2.316958
    112          1           0       -8.098661    0.621088   -2.843960
    113          1           0       -8.634900    1.226392   -1.279046
    114          1           0      -10.502137   -0.424884   -3.048511
    115          1           0      -10.327291    1.262745   -4.531709
    116          1           0       -9.858659    2.385121   -3.286623
    117          1           0      -11.581102    1.939169   -3.500992
    118          1           0      -11.569357    1.689707   -1.198698
    119          1           0      -10.749585    0.409865   -0.341517
    120          1           0      -12.348494   -1.059975   -0.602414
    121          1           0      -12.529041   -0.824505   -2.317364
    122          1           0      -14.476482   -0.141274   -1.619063
    123          1           0      -13.662627    1.484265   -1.535411
    124          1           0      -13.295152   -0.166154    0.964804
    125          1           0      -15.431682   -1.292706    0.875885
    126          1           0      -16.318605    0.000859   -0.033222
    127          1           0      -15.898790    0.240149    1.596794
    128          1           0      -15.055383    2.205150    0.965118
    129          1           0      -13.460626    2.383811    0.395958
    130          1           0      -14.301022    1.367071    3.152278
    131          1           0      -13.658494    2.912421    2.851239
    132          1           0      -11.913748    0.524394    2.358348
    133          1           0      -12.333373    1.065121    3.914325
    134          1           0      -11.473482    3.504734    2.402860
    135          1           0      -10.036637    2.199114    1.127462
    136          1           0       -9.749838    0.965045    2.293030
    137          1           0       -8.968548    2.573163    2.457984
    138          1           0      -10.919866    4.111833    4.477341
    139          1           0       -9.955480    2.691980    4.667334
    140          1           0      -11.639429    2.622648    5.087410
 ---------------------------------------------------------------------

 SCF Done:  E(RB-LYP) =  -3007.38716205     A.U. after   22 cycles

 Excitation energies and oscillator strengths:

 Excited State   1:      Singlet-A      1.7423 eV  711.61 nm  f=0.0311  <S**2>=0.000
     244 -> 247        0.66352
     245 -> 247        0.11697
     246 -> 247       -0.20957
 This state for optimization and/or second-order correction.
 Total Energy, E(TD-HF/TD-DFT) =  -3007.32313372
 Copying the excited state density for this state as the 1-particle RhoCI density.

 Excited State   2:      Singlet-A      1.8108 eV  684.70 nm  f=0.2631  <S**2>=0.000
     244 -> 247        0.18921
     245 -> 247        0.13156
     245 -> 248        0.15873
     245 -> 249       -0.11128
     246 -> 247        0.64905
     246 <- 247       -0.14002

 Excited State   3:      Singlet-A      1.9825 eV  625.40 nm  f=0.0995  <S**2>=0.000
     243 -> 247        0.19513
     244 -> 247       -0.14431
     245 -> 247        0.61187
     246 -> 248       -0.18052
     246 -> 249        0.11613

 Excited State   4:      Singlet-A      2.1325 eV  581.40 nm  f=0.0080  <S**2>=0.000
     243 -> 247        0.67577
     245 -> 247       -0.16733

 Excited State   5:      Singlet-A      2.4174 eV  512.88 nm  f=0.0001  <S**2>=0.000
     241 -> 247        0.70692

 The electronic state is 1-A.
 Alpha  occ. eigenvalues --  -46.26887 -18.82745 -18.80915 -18.77511 -18.76679
 Alpha  occ. eigenvalues --  -18.76346 -18.74717 -14.03177 -14.02982 -14.01030
 Alpha  occ. eigenvalues --  -14.00757 -10.04964 -10.03324 -10.00593  -9.99503
 Alpha  occ. eigenvalues --   -9.98174  -9.96536  -9.96533  -9.96361  -9.96319
 Alpha  occ. eigenvalues --   -9.95779  -9.95769  -9.95247  -9.94878  -9.94754
 Alpha  occ. eigenvalues --   -9.94431  -9.94290  -9.94007  -9.93984  -9.93973
 Alpha  occ. eigenvalues --   -9.93859  -9.93734  -9.93584  -9.93384  -9.93325
 Alpha  occ. eigenvalues --   -9.93318  -9.93198  -9.92889  -9.92768  -9.92676
 Alpha  occ. eigenvalues --   -9.92500  -9.92485  -9.92452  -9.92375  -9.92212
 Alpha  occ. eigenvalues --   -9.92090  -9.92068  -9.92042  -9.91992  -9.91935
 Alpha  occ. eigenvalues --   -9.91919  -9.91700  -9.91598  -9.91430  -9.91418
 Alpha  occ. eigenvalues --   -9.91241  -9.91078  -9.91070  -9.90955  -9.90947
 Alpha  occ. eigenvalues --   -9.90938  -9.90843  -9.90738  -9.90736  -9.90708
 Alpha  occ. eigenvalues --   -9.90515  -2.91588  -1.72023  -1.71468  -1.71300
 Alpha  occ. eigenvalues --   -0.99244  -0.97074  -0.90806  -0.90068  -0.89906
 Alpha  occ. eigenvalues --   -0.88058  -0.87829  -0.86864  -0.85576  -0.84756
 Alpha  occ. eigenvalues --   -0.74453  -0.74307  -0.73435  -0.73063  -0.72476
 Alpha  occ. eigenvalues --   -0.72440  -0.72063  -0.70991  -0.70851  -0.70533
 Alpha  occ. eigenvalues --   -0.69895  -0.69543  -0.68670  -0.67473  -0.67083
 Alpha  occ. eigenvalues --   -0.66827  -0.65985  -0.65405  -0.64783  -0.64580
 Alpha  occ. eigenvalues --   -0.64029  -0.62612  -0.62200  -0.61585  -0.61267
 Alpha  occ. eigenvalues --   -0.60529  -0.60524  -0.60057  -0.59479  -0.59196
 Alpha  occ. eigenvalues --   -0.58530  -0.57791  -0.56862  -0.55591  -0.54701
 Alpha  occ. eigenvalues --   -0.53975  -0.53734  -0.53022  -0.52533  -0.52032
 Alpha  occ. eigenvalues --   -0.51344  -0.50600  -0.50561  -0.50409  -0.50282
 Alpha  occ. eigenvalues --   -0.49880  -0.49756  -0.48266  -0.47545  -0.47065
 Alpha  occ. eigenvalues --   -0.46615  -0.46099  -0.45759  -0.45415  -0.45001
 Alpha  occ. eigenvalues --   -0.44765  -0.44264  -0.43973  -0.43073  -0.42349
 Alpha  occ. eigenvalues --   -0.42142  -0.41815  -0.41526  -0.41227  -0.41144
 Alpha  occ. eigenvalues --   -0.40975  -0.40684  -0.40533  -0.40271  -0.40030
 Alpha  occ. eigenvalues --   -0.39853  -0.39654  -0.39371  -0.39232  -0.39106
 Alpha  occ. eigenvalues --   -0.39017  -0.38789  -0.38434  -0.38415  -0.38254
 Alpha  occ. eigenvalues --   -0.37925  -0.37709  -0.37682  -0.37637  -0.37504
 Alpha  occ. eigenvalues --   -0.37236  -0.36810  -0.36668  -0.36309  -0.36235
 Alpha  occ. eigenvalues --   -0.36079  -0.35905  -0.35786  -0.35699  -0.35631
 Alpha  occ. eigenvalues --   -0.35377  -0.35304  -0.34957  -0.34895  -0.34691
 Alpha  occ. eigenvalues --   -0.34596  -0.34457  -0.34404  -0.34273  -0.34116
 Alpha  occ. eigenvalues --   -0.33909  -0.33768  -0.33506  -0.33479  -0.33132
 Alpha  occ. eigenvalues --   -0.33085  -0.32867  -0.32744  -0.32619  -0.32516
 Alpha  occ. eigenvalues --   -0.32212  -0.32111  -0.31927  -0.31605  -0.31360
 Alpha  occ. eigenvalues --   -0.31104  -0.31068  -0.30858  -0.30558  -0.30511
 Alpha  occ. eigenvalues --   -0.30348  -0.30228  -0.29948  -0.29747  -0.29619
 Alpha  occ. eigenvalues --   -0.29429  -0.29168  -0.28954  -0.28882  -0.28726
 Alpha  occ. eigenvalues --   -0.28670  -0.28610  -0.28464  -0.28441  -0.28186
 Alpha  occ. eigenvalues --   -0.27424  -0.27409  -0.27364  -0.27021  -0.26945
 Alpha  occ. eigenvalues --   -0.26497  -0.26333  -0.26286  -0.26052  -0.25855
 Alpha  occ. eigenvalues --   -0.24743  -0.24400  -0.24250  -0.23864  -0.23741
 Alpha  occ. eigenvalues --   -0.23110  -0.22584  -0.22093  -0.21847  -0.21088
 Alpha  occ. eigenvalues --   -0.20343  -0.20140  -0.19118  -0.17799  -0.17089
 Alpha  occ. eigenvalues --   -0.15752
 Alpha virt. eigenvalues --   -0.11459  -0.07037  -0.06059  -0.04748  -0.03727
 Alpha virt. eigenvalues --   -0.02630  -0.02071  -0.01402  -0.01125   0.00148
 Alpha virt. eigenvalues --    0.01150   0.01583   0.01958   0.02291   0.02797

 Mulliken charges:
               1
     1  Mg   0.691644
     2  C   -0.009841
     3  C   -0.076244
     4  C   -0.009307
     5  C   -0.083333
     6  N   -0.190976
     7  C   -0.055471
     8  C   -0.006477
     9  C    0.084443
    10  C   -0.027506
    11  C    0.109079
    12  C    0.062475
    13  C    0.096058
    14  C    0.107506
    15  O   -0.186594
    16  O   -0.260650
    17  N   -0.315938
    18  C    0.204596
    19  C   -0.141141
    20  C    0.028495
    21  C    0.189690
    22  C    0.150219
    23  C   -0.067062
    24  O   -0.218497
    25  C    0.126794
    26  N   -0.195415
    27  C   -0.099862
    28  C    0.034008
    29  C    0.041897
    30  C    0.035230
    31  C    0.119177
    32  C    0.091260
    33  C    0.027514
    34  N   -0.223330
    35  C    0.118648
    36  C   -0.200505
    37  C    0.060874
    38  C    0.038130
    39  C    0.177105
    40  C    0.005814
    41  O   -0.151630
    42  C    0.076671
    43  C    0.104268
    44  O   -0.155591
    45  O   -0.279313
    46  C    0.225686
    47  C    0.363023
    48  C   -0.115737
    49  C   -0.187543
    50  C    0.133410
    51  C    0.140759
    52  C    0.129926
    53  C    0.066969
    54  C   -0.093673
    55  C    0.126059
    56  C    0.089890
    57  C    0.047481
    58  C    0.113313
    59  C   -0.082409
    60  C    0.119438
    61  C    0.115725
    62  C    0.097876
    63  C    0.103193
    64  C   -0.094050
    65  C    0.095460
    66  C    0.097926
    67  H   -0.076038
    68  H   -0.050300
    69  H   -0.066447
    70  H   -0.007364
    71  H   -0.020149
    72  H   -0.017125
    73  H   -0.001692
    74  H   -0.028309
    75  H   -0.030038
    76  H    0.017171
    77  H   -0.008185
    78  H   -0.011575
    79  H   -0.000792
    80  H    0.024287
    81  H   -0.003966
    82  H   -0.000595
    83  H   -0.015533
    84  H    0.013262
    85  H   -0.012688
    86  H   -0.032849
    87  H   -0.015587
    88  H    0.007083
    89  H    0.003045
    90  H   -0.011368
    91  H   -0.014958
    92  H   -0.011587
    93  H   -0.014540
    94  H    0.002142
    95  H   -0.001241
    96  H    0.013514
    97  H   -0.000240
    98  H    0.018076
    99  H    0.015043
   100  H    0.022017
   101  H    0.001139
   102  H    0.011611
   103  H   -0.005721
   104  H   -0.040695
   105  H   -0.005539
   106  H   -0.008056
   107  H   -0.005285
   108  H   -0.028035
   109  H   -0.031473
   110  H   -0.024204
   111  H   -0.033150
   112  H   -0.043106
   113  H   -0.015828
   114  H   -0.035940
   115  H   -0.023781
   116  H   -0.024221
   117  H   -0.014594
   118  H   -0.021000
   119  H   -0.026665
   120  H   -0.036048
   121  H   -0.034273
   122  H   -0.049697
   123  H   -0.017467
   124  H   -0.034857
   125  H   -0.018340
   126  H   -0.006756
   127  H   -0.026252
   128  H   -0.047245
   129  H   -0.054144
   130  H   -0.050950
   131  H   -0.041715
   132  H   -0.038523
   133  H   -0.043928
   134  H   -0.026666
   135  H   -0.009695
   136  H   -0.005843
   137  H   -0.022407
   138  H   -0.019736
   139  H   -0.030210
   140  H   -0.012808
 Sum of Mulliken charges =  -0.00000

 Dipole moment (field-independent basis, Debye):
    X=             -4.6121    Y=              2.6828    Z=              0.4571  Tot=              5.3552
 Quadrupole moment (field-independent basis, Debye-Ang):
   XX=           -379.3157   YY=           -436.9371   ZZ=           -403.4852
   XY=             -7.8762   XZ=             11.8301   YZ=             -9.5733

 Normal termination of Gaussian 16 at Sat Apr 30 07:13:03 2022.
