 Gaussian 16, Revision A.03,
 Gaussian 16:  ES64L-G16RevA.03 25-Dec-2016

 -----------------------------------
 #p cam-b3lyp/Def2SVP td=(nstates=5)
 -----------------------------------

 ------------------------------------------------------
 step_601_chromophore_7 TDDFT with cam-b3lyp functional
 ------------------------------------------------------
 Symbolic Z-matrix:
 Charge =  0 Multiplicity = 1

                         Standard orientation:
 ---------------------------------------------------------------------
 Center     Atomic      Atomic             Coordinates (Angstroms)
 Number     Number       Type             X           Y           Z
 ---------------------------------------------------------------------
      1         12           0        6.156229    0.422009   -0.124604
      2          6           0        3.612658   -2.067699   -0.214572
      3          6           0        3.728130    2.715870   -0.974502
      4          6           0        8.393337    2.791187    0.174673
      5          6           0        8.407085   -1.976731    0.756473
      6          7           0        3.936711    0.288675   -0.628606
      7          6           0        3.121553   -0.801647   -0.510605
      8          6           0        1.643141   -0.448612   -0.740997
      9          6           0        1.688142    1.087694   -1.008701
     10          6           0        3.177813    1.417686   -0.824224
     11          6           0        1.257351    1.487480   -2.401267
     12          6           0        0.735337   -0.803462    0.490086
     13          6           0       -0.720729   -0.424860    0.430539
     14          6           0       -1.772936   -1.557608    0.555533
     15          8           0       -1.479296   -2.745262    0.527952
     16          8           0       -3.042104   -1.095880    0.437444
     17          7           0        6.069022    2.457959   -0.357423
     18          6           0        5.031211    3.199323   -0.848113
     19          6           0        5.383206    4.534184   -1.042993
     20          6           0        6.746669    4.661801   -0.499160
     21          6           0        7.190597    3.264692   -0.243538
     22          6           0        4.344117    5.554016   -1.448290
     23          6           0        7.617194    5.892924   -0.401756
     24          8           0        8.766586    5.889342    0.152572
     25          6           0        7.074914    7.254703   -0.834596
     26          7           0        8.221347    0.396083    0.147122
     27          6           0        8.876994    1.524457    0.404148
     28          6           0       10.292569    1.248078    0.982909
     29          6           0       10.212768   -0.247769    1.288110
     30          6           0        8.864965   -0.650000    0.641669
     31          6           0       11.386121    1.614702   -0.093026
     32          6           0       10.342261   -0.640684    2.789505
     33          6           0       11.317106   -1.835631    3.137819
     34          7           0        6.102542   -1.632649    0.110980
     35          6           0        7.125841   -2.489693    0.404063
     36          6           0        6.617156   -3.846120    0.566322
     37          6           0        5.262476   -3.763213    0.285577
     38          6           0        5.014468   -2.361589    0.038844
     39          6           0        7.450566   -5.016084    0.977099
     40          6           0        3.998102   -4.544989    0.143608
     41          8           0        3.877101   -5.786926    0.046467
     42          6           0        2.874892   -3.451976   -0.092215
     43          6           0        1.995739   -3.750358   -1.269963
     44          8           0        2.295037   -3.543808   -2.410586
     45          8           0        0.784280   -4.292940   -0.834958
     46          6           0       -0.131029   -4.623342   -1.928960
     47          6           0       -4.027676   -2.055224   -0.000267
     48          6           0       -5.294847   -1.418488   -0.204258
     49          6           0       -6.523806   -1.971213   -0.031530
     50          6           0       -6.723077   -3.460295    0.131921
     51          6           0       -7.754613   -1.107654   -0.165157
     52          6           0       -8.388073   -0.999772   -1.542781
     53          6           0       -8.743375    0.407604   -1.991437
     54          6           0      -10.287229    0.503303   -2.518860
     55          6           0      -10.552855    1.576389   -3.511776
     56          6           0      -11.220251    0.661770   -1.292198
     57          6           0      -12.431936   -0.292605   -1.371342
     58          6           0      -13.727285    0.476655   -1.124618
     59          6           0      -14.096099    0.366829    0.452344
     60          6           0      -15.527848   -0.224561    0.682792
     61          6           0      -14.066097    1.755213    1.049126
     62          6           0      -13.581898    1.879223    2.513148
     63          6           0      -12.252287    1.416520    2.885305
     64          6           0      -11.148523    2.584386    2.887931
     65          6           0       -9.883303    2.042916    2.194863
     66          6           0      -10.942783    3.029662    4.354315
     67          1           0        2.931879    3.415931   -1.238178
     68          1           0        9.302707    3.390888    0.251447
     69          1           0        9.129438   -2.706616    1.126185
     70          1           0        1.243810   -1.131256   -1.490752
     71          1           0        1.057204    1.603893   -0.285513
     72          1           0        0.895990    0.718287   -3.083549
     73          1           0        2.003968    2.039908   -2.971346
     74          1           0        0.328350    2.055787   -2.449011
     75          1           0        1.159255   -0.399493    1.410079
     76          1           0        0.709825   -1.892646    0.521857
     77          1           0       -0.903889    0.265045   -0.393674
     78          1           0       -0.909782    0.280708    1.240451
     79          1           0        4.763514    6.133427   -2.270252
     80          1           0        4.193395    6.120659   -0.528885
     81          1           0        3.349344    5.343520   -1.841323
     82          1           0        7.621096    8.039084   -0.311225
     83          1           0        6.035074    7.415274   -0.549506
     84          1           0        7.115976    7.276544   -1.923735
     85          1           0       10.322364    1.870342    1.877129
     86          1           0       11.034014   -0.789217    0.819053
     87          1           0       12.058476    0.768839   -0.235928
     88          1           0       11.986299    2.486657    0.168643
     89          1           0       10.962205    1.814696   -1.076400
     90          1           0        9.386580   -0.952902    3.210532
     91          1           0       10.769946    0.194351    3.344717
     92          1           0       12.341677   -1.491075    3.280489
     93          1           0       11.420391   -2.431712    2.230633
     94          1           0       11.043508   -2.504824    3.952853
     95          1           0        8.214354   -5.177768    0.217373
     96          1           0        6.719398   -5.823755    1.009202
     97          1           0        8.002757   -4.887526    1.908606
     98          1           0        2.296385   -3.417111    0.830448
     99          1           0       -0.830790   -5.380305   -1.575597
    100          1           0        0.376445   -5.002964   -2.815688
    101          1           0       -0.633359   -3.667269   -2.075068
    102          1           0       -4.187537   -2.834699    0.744628
    103          1           0       -3.662662   -2.404012   -0.966230
    104          1           0       -5.331675   -0.329291   -0.218746
    105          1           0       -5.834860   -4.045433   -0.108499
    106          1           0       -7.589244   -3.795692   -0.438463
    107          1           0       -6.977733   -3.772663    1.144690
    108          1           0       -7.503831   -0.110124    0.195572
    109          1           0       -8.405449   -1.500038    0.617097
    110          1           0       -9.259367   -1.642790   -1.669304
    111          1           0       -7.707459   -1.354112   -2.316958
    112          1           0       -8.098661    0.621088   -2.843960
    113          1           0       -8.634900    1.226392   -1.279046
    114          1           0      -10.502137   -0.424884   -3.048511
    115          1           0      -10.327291    1.262745   -4.531709
    116          1           0       -9.858659    2.385121   -3.286623
    117          1           0      -11.581102    1.939169   -3.500992
    118          1           0      -11.569357    1.689707   -1.198698
    119          1           0      -10.749585    0.409865   -0.341517
    120          1           0      -12.348494   -1.059975   -0.602414
    121          1           0      -12.529041   -0.824505   -2.317364
    122          1           0      -14.476482   -0.141274   -1.619063
    123          1           0      -13.662627    1.484265   -1.535411
    124          1           0      -13.295152   -0.166154    0.964804
    125          1           0      -15.431682   -1.292706    0.875885
    126          1           0      -16.318605    0.000859   -0.033222
    127          1           0      -15.898790    0.240149    1.596794
    128          1           0      -15.055383    2.205150    0.965118
    129          1           0      -13.460626    2.383811    0.395958
    130          1           0      -14.301022    1.367071    3.152278
    131          1           0      -13.658494    2.912421    2.851239
    132          1           0      -11.913748    0.524394    2.358348
    133          1           0      -12.333373    1.065121    3.914325
    134          1           0      -11.473482    3.504734    2.402860
    135          1           0      -10.036637    2.199114    1.127462
    136          1           0       -9.749838    0.965045    2.293030
    137          1           0       -8.968548    2.573163    2.457984
    138          1           0      -10.919866    4.111833    4.477341
    139          1           0       -9.955480    2.691980    4.667334
    140          1           0      -11.639429    2.622648    5.087410
 ---------------------------------------------------------------------

 SCF Done:  E(RCAM-B3LYP) =  -3007.18575514     A.U. after   17 cycles

 Excitation energies and oscillator strengths:

 Excited State   1:      Singlet-A      1.7135 eV  723.55 nm  f=0.3889  <S**2>=0.000
     245 -> 248        0.17504
     246 -> 247        0.68458
     245 <- 248        0.10298
 This state for optimization and/or second-order correction.
 Total Energy, E(TD-HF/TD-DFT) =  -3007.12278362
 Copying the excited state density for this state as the 1-particle RhoCI density.

 Excited State   2:      Singlet-A      2.2159 eV  559.52 nm  f=0.1271  <S**2>=0.000
     245 -> 247        0.64242
     246 -> 248       -0.27523

 Excited State   3:      Singlet-A      3.3637 eV  368.59 nm  f=0.0050  <S**2>=0.000
     241 -> 247        0.13257
     242 -> 247        0.46633
     242 -> 248        0.22363
     242 -> 249        0.22022
     242 -> 250       -0.22616
     244 -> 247       -0.23156

 Excited State   4:      Singlet-A      3.4002 eV  364.63 nm  f=0.0250  <S**2>=0.000
     242 -> 247        0.21407
     244 -> 247        0.59707
     246 -> 248        0.24164

 Excited State   5:      Singlet-A      3.5088 eV  353.36 nm  f=0.3592  <S**2>=0.000
     239 -> 247        0.18887
     239 -> 249       -0.14432
     240 -> 247        0.16961
     240 -> 249       -0.11111
     241 -> 247        0.25454
     244 -> 247       -0.17880
     245 -> 247        0.20402
     246 -> 248        0.47265

 The electronic state is 1-A.
 Alpha  occ. eigenvalues --  -46.88376 -19.25594 -19.23798 -19.20486 -19.19860
 Alpha  occ. eigenvalues --  -19.19653 -19.17961 -14.42035 -14.41803 -14.39475
 Alpha  occ. eigenvalues --  -14.39161 -10.40256 -10.38831 -10.36130 -10.34870
 Alpha  occ. eigenvalues --  -10.32117 -10.31021 -10.30834 -10.30661 -10.30464
 Alpha  occ. eigenvalues --  -10.30171 -10.30153 -10.29472 -10.29113 -10.29093
 Alpha  occ. eigenvalues --  -10.28768 -10.28645 -10.28425 -10.28037 -10.28034
 Alpha  occ. eigenvalues --  -10.28014 -10.27805 -10.27805 -10.27761 -10.27473
 Alpha  occ. eigenvalues --  -10.27328 -10.27256 -10.26917 -10.26607 -10.26573
 Alpha  occ. eigenvalues --  -10.26431 -10.26311 -10.26184 -10.26022 -10.25904
 Alpha  occ. eigenvalues --  -10.25801 -10.25790 -10.25764 -10.25762 -10.25703
 Alpha  occ. eigenvalues --  -10.25682 -10.25632 -10.25540 -10.25414 -10.25330
 Alpha  occ. eigenvalues --  -10.25207 -10.24683 -10.24667 -10.24632 -10.24625
 Alpha  occ. eigenvalues --  -10.24606 -10.24396 -10.24372 -10.24335 -10.24285
 Alpha  occ. eigenvalues --  -10.24160  -3.16988  -1.91898  -1.91441  -1.91301
 Alpha  occ. eigenvalues --   -1.17692  -1.15687  -1.08674  -1.08469  -1.07842
 Alpha  occ. eigenvalues --   -1.06363  -1.05596  -1.04515  -1.03222  -1.02269
 Alpha  occ. eigenvalues --   -0.91435  -0.91334  -0.90270  -0.89871  -0.89242
 Alpha  occ. eigenvalues --   -0.89154  -0.88687  -0.87566  -0.87419  -0.87141
 Alpha  occ. eigenvalues --   -0.86384  -0.85960  -0.85008  -0.83621  -0.83245
 Alpha  occ. eigenvalues --   -0.82926  -0.81942  -0.81478  -0.80648  -0.80445
 Alpha  occ. eigenvalues --   -0.79968  -0.78278  -0.77937  -0.77058  -0.76654
 Alpha  occ. eigenvalues --   -0.75908  -0.75896  -0.75339  -0.74747  -0.74443
 Alpha  occ. eigenvalues --   -0.73537  -0.72839  -0.71765  -0.70395  -0.69265
 Alpha  occ. eigenvalues --   -0.68632  -0.68338  -0.67461  -0.66942  -0.66127
 Alpha  occ. eigenvalues --   -0.65507  -0.64734  -0.64716  -0.64504  -0.64181
 Alpha  occ. eigenvalues --   -0.63769  -0.63705  -0.62062  -0.61287  -0.60691
 Alpha  occ. eigenvalues --   -0.60269  -0.59673  -0.59263  -0.58707  -0.58371
 Alpha  occ. eigenvalues --   -0.58212  -0.57639  -0.57485  -0.56302  -0.55659
 Alpha  occ. eigenvalues --   -0.55172  -0.54977  -0.54355  -0.54281  -0.54017
 Alpha  occ. eigenvalues --   -0.53842  -0.53382  -0.53328  -0.52984  -0.52941
 Alpha  occ. eigenvalues --   -0.52461  -0.52380  -0.52113  -0.51863  -0.51680
 Alpha  occ. eigenvalues --   -0.51551  -0.51320  -0.51100  -0.50806  -0.50571
 Alpha  occ. eigenvalues --   -0.50484  -0.50122  -0.50098  -0.49885  -0.49761
 Alpha  occ. eigenvalues --   -0.49424  -0.49283  -0.49054  -0.48754  -0.48498
 Alpha  occ. eigenvalues --   -0.48411  -0.48217  -0.48022  -0.47753  -0.47652
 Alpha  occ. eigenvalues --   -0.47542  -0.47387  -0.46916  -0.46732  -0.46667
 Alpha  occ. eigenvalues --   -0.46486  -0.46331  -0.46200  -0.46025  -0.45977
 Alpha  occ. eigenvalues --   -0.45771  -0.45506  -0.45480  -0.45154  -0.45115
 Alpha  occ. eigenvalues --   -0.44806  -0.44686  -0.44448  -0.44315  -0.44036
 Alpha  occ. eigenvalues --   -0.43961  -0.43819  -0.43601  -0.43181  -0.42857
 Alpha  occ. eigenvalues --   -0.42651  -0.42490  -0.42305  -0.42108  -0.41868
 Alpha  occ. eigenvalues --   -0.41686  -0.41599  -0.41439  -0.41261  -0.40878
 Alpha  occ. eigenvalues --   -0.40712  -0.40598  -0.40380  -0.40206  -0.39842
 Alpha  occ. eigenvalues --   -0.39839  -0.39671  -0.39413  -0.39394  -0.39073
 Alpha  occ. eigenvalues --   -0.38398  -0.38236  -0.38216  -0.37885  -0.37742
 Alpha  occ. eigenvalues --   -0.37721  -0.37682  -0.37065  -0.36883  -0.36716
 Alpha  occ. eigenvalues --   -0.35898  -0.35199  -0.34866  -0.34838  -0.34617
 Alpha  occ. eigenvalues --   -0.34391  -0.33392  -0.33128  -0.31331  -0.31084
 Alpha  occ. eigenvalues --   -0.30478  -0.30207  -0.29863  -0.29435  -0.23825
 Alpha  occ. eigenvalues --   -0.21038
 Alpha virt. eigenvalues --   -0.08557  -0.01687   0.00267   0.02071   0.03650
 Alpha virt. eigenvalues --    0.04291   0.04805   0.05289   0.05726   0.06655
 Alpha virt. eigenvalues --    0.07954   0.08106   0.08556   0.08927   0.08994

 Mulliken charges:
               1
     1  Mg   0.827289
     2  C   -0.032485
     3  C   -0.095068
     4  C   -0.027534
     5  C   -0.090112
     6  N   -0.260214
     7  C   -0.013273
     8  C   -0.049386
     9  C    0.022684
    10  C   -0.004456
    11  C    0.045919
    12  C    0.016560
    13  C    0.024137
    14  C    0.189317
    15  O   -0.227287
    16  O   -0.325183
    17  N   -0.404745
    18  C    0.215522
    19  C   -0.148194
    20  C   -0.030434
    21  C    0.206758
    22  C    0.087685
    23  C    0.006959
    24  O   -0.258392
    25  C    0.048881
    26  N   -0.271034
    27  C   -0.074684
    28  C   -0.024618
    29  C   -0.014262
    30  C    0.055475
    31  C    0.061299
    32  C    0.032274
    33  C   -0.030031
    34  N   -0.314274
    35  C    0.121455
    36  C   -0.192709
    37  C   -0.019723
    38  C    0.074283
    39  C    0.122715
    40  C    0.109881
    41  O   -0.188681
    42  C    0.000835
    43  C    0.187441
    44  O   -0.191090
    45  O   -0.341520
    46  C    0.186462
    47  C    0.323284
    48  C   -0.131076
    49  C   -0.206487
    50  C    0.068623
    51  C    0.081392
    52  C    0.071686
    53  C    0.016430
    54  C   -0.146387
    55  C    0.067302
    56  C    0.041703
    57  C   -0.003898
    58  C    0.058463
    59  C   -0.136687
    60  C    0.061265
    61  C    0.061501
    62  C    0.043451
    63  C    0.045966
    64  C   -0.150919
    65  C    0.041117
    66  C    0.038614
    67  H   -0.040647
    68  H   -0.011314
    69  H   -0.031161
    70  H    0.024188
    71  H    0.014392
    72  H    0.010634
    73  H    0.025507
    74  H   -0.002641
    75  H    0.002370
    76  H    0.043784
    77  H    0.023574
    78  H    0.023048
    79  H    0.024414
    80  H    0.048975
    81  H    0.025803
    82  H    0.033789
    83  H    0.013778
    84  H    0.040194
    85  H    0.023029
    86  H    0.002876
    87  H    0.009001
    88  H    0.031002
    89  H    0.028505
    90  H    0.018464
    91  H    0.013551
    92  H    0.012218
    93  H    0.004628
    94  H    0.026678
    95  H    0.025059
    96  H    0.040475
    97  H    0.024883
    98  H    0.061442
    99  H    0.038477
   100  H    0.046523
   101  H    0.020485
   102  H    0.039024
   103  H    0.022842
   104  H   -0.005057
   105  H    0.018664
   106  H    0.016448
   107  H    0.020927
   108  H    0.000891
   109  H   -0.003198
   110  H    0.003020
   111  H   -0.001521
   112  H   -0.012013
   113  H    0.008647
   114  H   -0.005160
   115  H    0.001785
   116  H   -0.000354
   117  H    0.008602
   118  H    0.003486
   119  H   -0.004300
   120  H   -0.007709
   121  H   -0.005179
   122  H   -0.017490
   123  H    0.008171
   124  H   -0.006725
   125  H    0.006497
   126  H    0.017586
   127  H   -0.002813
   128  H   -0.016000
   129  H   -0.027095
   130  H   -0.021571
   131  H   -0.012553
   132  H   -0.012613
   133  H   -0.012179
   134  H    0.003999
   135  H    0.009771
   136  H    0.014041
   137  H    0.003218
   138  H    0.004743
   139  H   -0.005109
   140  H    0.010514
 Sum of Mulliken charges =  -0.00000

 Dipole moment (field-independent basis, Debye):
    X=             -4.6487    Y=              3.2031    Z=              0.4140  Tot=              5.6605
 Quadrupole moment (field-independent basis, Debye-Ang):
   XX=           -378.0824   YY=           -432.7203   ZZ=           -403.2113
   XY=             -6.1320   XZ=             12.3533   YZ=            -10.9233

 Normal termination of Gaussian 16 at Sat Apr 30 06:18:21 2022.
