 Gaussian 16, Revision A.03,
 Gaussian 16:  ES64L-G16RevA.03 25-Dec-2016

 ---------------------------------
 #p PBE1PBE/Def2SVP td=(nstates=5)
 ---------------------------------

 ----------------------------------------------------
 step_601_chromophore_7 TDDFT with PBE1PBE functional
 ----------------------------------------------------
 Symbolic Z-matrix:
 Charge =  0 Multiplicity = 1

                         Standard orientation:
 ---------------------------------------------------------------------
 Center     Atomic      Atomic             Coordinates (Angstroms)
 Number     Number       Type             X           Y           Z
 ---------------------------------------------------------------------
      1         12           0        6.156229    0.422009   -0.124604
      2          6           0        3.612658   -2.067699   -0.214572
      3          6           0        3.728130    2.715870   -0.974502
      4          6           0        8.393337    2.791187    0.174673
      5          6           0        8.407085   -1.976731    0.756473
      6          7           0        3.936711    0.288675   -0.628606
      7          6           0        3.121553   -0.801647   -0.510605
      8          6           0        1.643141   -0.448612   -0.740997
      9          6           0        1.688142    1.087694   -1.008701
     10          6           0        3.177813    1.417686   -0.824224
     11          6           0        1.257351    1.487480   -2.401267
     12          6           0        0.735337   -0.803462    0.490086
     13          6           0       -0.720729   -0.424860    0.430539
     14          6           0       -1.772936   -1.557608    0.555533
     15          8           0       -1.479296   -2.745262    0.527952
     16          8           0       -3.042104   -1.095880    0.437444
     17          7           0        6.069022    2.457959   -0.357423
     18          6           0        5.031211    3.199323   -0.848113
     19          6           0        5.383206    4.534184   -1.042993
     20          6           0        6.746669    4.661801   -0.499160
     21          6           0        7.190597    3.264692   -0.243538
     22          6           0        4.344117    5.554016   -1.448290
     23          6           0        7.617194    5.892924   -0.401756
     24          8           0        8.766586    5.889342    0.152572
     25          6           0        7.074914    7.254703   -0.834596
     26          7           0        8.221347    0.396083    0.147122
     27          6           0        8.876994    1.524457    0.404148
     28          6           0       10.292569    1.248078    0.982909
     29          6           0       10.212768   -0.247769    1.288110
     30          6           0        8.864965   -0.650000    0.641669
     31          6           0       11.386121    1.614702   -0.093026
     32          6           0       10.342261   -0.640684    2.789505
     33          6           0       11.317106   -1.835631    3.137819
     34          7           0        6.102542   -1.632649    0.110980
     35          6           0        7.125841   -2.489693    0.404063
     36          6           0        6.617156   -3.846120    0.566322
     37          6           0        5.262476   -3.763213    0.285577
     38          6           0        5.014468   -2.361589    0.038844
     39          6           0        7.450566   -5.016084    0.977099
     40          6           0        3.998102   -4.544989    0.143608
     41          8           0        3.877101   -5.786926    0.046467
     42          6           0        2.874892   -3.451976   -0.092215
     43          6           0        1.995739   -3.750358   -1.269963
     44          8           0        2.295037   -3.543808   -2.410586
     45          8           0        0.784280   -4.292940   -0.834958
     46          6           0       -0.131029   -4.623342   -1.928960
     47          6           0       -4.027676   -2.055224   -0.000267
     48          6           0       -5.294847   -1.418488   -0.204258
     49          6           0       -6.523806   -1.971213   -0.031530
     50          6           0       -6.723077   -3.460295    0.131921
     51          6           0       -7.754613   -1.107654   -0.165157
     52          6           0       -8.388073   -0.999772   -1.542781
     53          6           0       -8.743375    0.407604   -1.991437
     54          6           0      -10.287229    0.503303   -2.518860
     55          6           0      -10.552855    1.576389   -3.511776
     56          6           0      -11.220251    0.661770   -1.292198
     57          6           0      -12.431936   -0.292605   -1.371342
     58          6           0      -13.727285    0.476655   -1.124618
     59          6           0      -14.096099    0.366829    0.452344
     60          6           0      -15.527848   -0.224561    0.682792
     61          6           0      -14.066097    1.755213    1.049126
     62          6           0      -13.581898    1.879223    2.513148
     63          6           0      -12.252287    1.416520    2.885305
     64          6           0      -11.148523    2.584386    2.887931
     65          6           0       -9.883303    2.042916    2.194863
     66          6           0      -10.942783    3.029662    4.354315
     67          1           0        2.931879    3.415931   -1.238178
     68          1           0        9.302707    3.390888    0.251447
     69          1           0        9.129438   -2.706616    1.126185
     70          1           0        1.243810   -1.131256   -1.490752
     71          1           0        1.057204    1.603893   -0.285513
     72          1           0        0.895990    0.718287   -3.083549
     73          1           0        2.003968    2.039908   -2.971346
     74          1           0        0.328350    2.055787   -2.449011
     75          1           0        1.159255   -0.399493    1.410079
     76          1           0        0.709825   -1.892646    0.521857
     77          1           0       -0.903889    0.265045   -0.393674
     78          1           0       -0.909782    0.280708    1.240451
     79          1           0        4.763514    6.133427   -2.270252
     80          1           0        4.193395    6.120659   -0.528885
     81          1           0        3.349344    5.343520   -1.841323
     82          1           0        7.621096    8.039084   -0.311225
     83          1           0        6.035074    7.415274   -0.549506
     84          1           0        7.115976    7.276544   -1.923735
     85          1           0       10.322364    1.870342    1.877129
     86          1           0       11.034014   -0.789217    0.819053
     87          1           0       12.058476    0.768839   -0.235928
     88          1           0       11.986299    2.486657    0.168643
     89          1           0       10.962205    1.814696   -1.076400
     90          1           0        9.386580   -0.952902    3.210532
     91          1           0       10.769946    0.194351    3.344717
     92          1           0       12.341677   -1.491075    3.280489
     93          1           0       11.420391   -2.431712    2.230633
     94          1           0       11.043508   -2.504824    3.952853
     95          1           0        8.214354   -5.177768    0.217373
     96          1           0        6.719398   -5.823755    1.009202
     97          1           0        8.002757   -4.887526    1.908606
     98          1           0        2.296385   -3.417111    0.830448
     99          1           0       -0.830790   -5.380305   -1.575597
    100          1           0        0.376445   -5.002964   -2.815688
    101          1           0       -0.633359   -3.667269   -2.075068
    102          1           0       -4.187537   -2.834699    0.744628
    103          1           0       -3.662662   -2.404012   -0.966230
    104          1           0       -5.331675   -0.329291   -0.218746
    105          1           0       -5.834860   -4.045433   -0.108499
    106          1           0       -7.589244   -3.795692   -0.438463
    107          1           0       -6.977733   -3.772663    1.144690
    108          1           0       -7.503831   -0.110124    0.195572
    109          1           0       -8.405449   -1.500038    0.617097
    110          1           0       -9.259367   -1.642790   -1.669304
    111          1           0       -7.707459   -1.354112   -2.316958
    112          1           0       -8.098661    0.621088   -2.843960
    113          1           0       -8.634900    1.226392   -1.279046
    114          1           0      -10.502137   -0.424884   -3.048511
    115          1           0      -10.327291    1.262745   -4.531709
    116          1           0       -9.858659    2.385121   -3.286623
    117          1           0      -11.581102    1.939169   -3.500992
    118          1           0      -11.569357    1.689707   -1.198698
    119          1           0      -10.749585    0.409865   -0.341517
    120          1           0      -12.348494   -1.059975   -0.602414
    121          1           0      -12.529041   -0.824505   -2.317364
    122          1           0      -14.476482   -0.141274   -1.619063
    123          1           0      -13.662627    1.484265   -1.535411
    124          1           0      -13.295152   -0.166154    0.964804
    125          1           0      -15.431682   -1.292706    0.875885
    126          1           0      -16.318605    0.000859   -0.033222
    127          1           0      -15.898790    0.240149    1.596794
    128          1           0      -15.055383    2.205150    0.965118
    129          1           0      -13.460626    2.383811    0.395958
    130          1           0      -14.301022    1.367071    3.152278
    131          1           0      -13.658494    2.912421    2.851239
    132          1           0      -11.913748    0.524394    2.358348
    133          1           0      -12.333373    1.065121    3.914325
    134          1           0      -11.473482    3.504734    2.402860
    135          1           0      -10.036637    2.199114    1.127462
    136          1           0       -9.749838    0.965045    2.293030
    137          1           0       -8.968548    2.573163    2.457984
    138          1           0      -10.919866    4.111833    4.477341
    139          1           0       -9.955480    2.691980    4.667334
    140          1           0      -11.639429    2.622648    5.087410
 ---------------------------------------------------------------------

 SCF Done:  E(RPBE1PBE) =  -3005.37478376     A.U. after   15 cycles

 Excitation energies and oscillator strengths:

 Excited State   1:      Singlet-A      1.8669 eV  664.11 nm  f=0.3749  <S**2>=0.000
     245 -> 248        0.16179
     246 -> 247        0.69170
     246 <- 247       -0.10620
 This state for optimization and/or second-order correction.
 Total Energy, E(TD-HF/TD-DFT) =  -3005.30617606
 Copying the excited state density for this state as the 1-particle RhoCI density.

 Excited State   2:      Singlet-A      2.2170 eV  559.23 nm  f=0.1263  <S**2>=0.000
     245 -> 247        0.65474
     246 -> 248       -0.23641

 Excited State   3:      Singlet-A      2.8697 eV  432.04 nm  f=0.0000  <S**2>=0.000
     244 -> 247        0.65476
     244 -> 248        0.16148
     244 -> 249        0.11246
     244 -> 250       -0.12399

 Excited State   4:      Singlet-A      3.0707 eV  403.77 nm  f=0.0063  <S**2>=0.000
     241 -> 247       -0.20651
     243 -> 247        0.65539

 Excited State   5:      Singlet-A      3.1370 eV  395.24 nm  f=0.0045  <S**2>=0.000
     240 -> 247        0.33280
     240 -> 249       -0.11009
     241 -> 247        0.51209
     241 -> 249       -0.13969
     243 -> 247        0.19549
     246 -> 248        0.17538

 The electronic state is 1-A.
 Alpha  occ. eigenvalues --  -46.91786 -19.26276 -19.24479 -19.20768 -19.20055
 Alpha  occ. eigenvalues --  -19.19885 -19.18198 -14.41586 -14.41264 -14.39106
 Alpha  occ. eigenvalues --  -14.38853 -10.37289 -10.35826 -10.33310 -10.32000
 Alpha  occ. eigenvalues --  -10.29478 -10.28771 -10.28585 -10.28421 -10.27884
 Alpha  occ. eigenvalues --  -10.27851 -10.27697 -10.27239 -10.26824 -10.26747
 Alpha  occ. eigenvalues --  -10.26408 -10.26285 -10.26211 -10.25916 -10.25862
 Alpha  occ. eigenvalues --  -10.25607 -10.25568 -10.25517 -10.25478 -10.25327
 Alpha  occ. eigenvalues --  -10.24987 -10.24687 -10.24547 -10.24276 -10.24255
 Alpha  occ. eigenvalues --  -10.24064 -10.23875 -10.23692 -10.23547 -10.23485
 Alpha  occ. eigenvalues --  -10.23443 -10.23397 -10.23393 -10.23270 -10.23228
 Alpha  occ. eigenvalues --  -10.23174 -10.23067 -10.23005 -10.23001 -10.22853
 Alpha  occ. eigenvalues --  -10.22825 -10.22231 -10.22186 -10.22166 -10.22068
 Alpha  occ. eigenvalues --  -10.22068 -10.21920 -10.21830 -10.21759 -10.21694
 Alpha  occ. eigenvalues --  -10.21677  -3.13977  -1.86830  -1.86350  -1.86214
 Alpha  occ. eigenvalues --   -1.12525  -1.10435  -1.03537  -1.03194  -1.02693
 Alpha  occ. eigenvalues --   -1.01044  -1.00251  -0.99238  -0.97852  -0.96947
 Alpha  occ. eigenvalues --   -0.85753  -0.85492  -0.84353  -0.84086  -0.83563
 Alpha  occ. eigenvalues --   -0.83266  -0.83007  -0.81879  -0.81560  -0.81467
 Alpha  occ. eigenvalues --   -0.80660  -0.80200  -0.79243  -0.77851  -0.77540
 Alpha  occ. eigenvalues --   -0.77179  -0.76173  -0.75698  -0.74814  -0.74712
 Alpha  occ. eigenvalues --   -0.74255  -0.72562  -0.72221  -0.71379  -0.70816
 Alpha  occ. eigenvalues --   -0.70241  -0.69984  -0.69684  -0.68877  -0.68606
 Alpha  occ. eigenvalues --   -0.67889  -0.67281  -0.66191  -0.64739  -0.63652
 Alpha  occ. eigenvalues --   -0.63046  -0.62581  -0.61887  -0.61250  -0.60544
 Alpha  occ. eigenvalues --   -0.59940  -0.59302  -0.58939  -0.58784  -0.58629
 Alpha  occ. eigenvalues --   -0.58174  -0.57901  -0.56269  -0.55855  -0.55085
 Alpha  occ. eigenvalues --   -0.54811  -0.54225  -0.53868  -0.53376  -0.52821
 Alpha  occ. eigenvalues --   -0.52743  -0.52067  -0.51918  -0.50880  -0.50115
 Alpha  occ. eigenvalues --   -0.49726  -0.49604  -0.48973  -0.48793  -0.48433
 Alpha  occ. eigenvalues --   -0.48227  -0.47963  -0.47821  -0.47617  -0.47454
 Alpha  occ. eigenvalues --   -0.46925  -0.46779  -0.46676  -0.46420  -0.46258
 Alpha  occ. eigenvalues --   -0.46053  -0.45820  -0.45659  -0.45428  -0.45146
 Alpha  occ. eigenvalues --   -0.45023  -0.44746  -0.44578  -0.44454  -0.44317
 Alpha  occ. eigenvalues --   -0.43992  -0.43889  -0.43717  -0.43400  -0.43162
 Alpha  occ. eigenvalues --   -0.43051  -0.42758  -0.42689  -0.42417  -0.42257
 Alpha  occ. eigenvalues --   -0.42188  -0.42074  -0.41580  -0.41377  -0.41284
 Alpha  occ. eigenvalues --   -0.41154  -0.40986  -0.40892  -0.40722  -0.40539
 Alpha  occ. eigenvalues --   -0.40527  -0.40186  -0.40168  -0.39917  -0.39752
 Alpha  occ. eigenvalues --   -0.39577  -0.39421  -0.39255  -0.39159  -0.38770
 Alpha  occ. eigenvalues --   -0.38684  -0.38590  -0.38329  -0.38017  -0.37706
 Alpha  occ. eigenvalues --   -0.37568  -0.37232  -0.37133  -0.36971  -0.36641
 Alpha  occ. eigenvalues --   -0.36422  -0.36357  -0.36225  -0.36138  -0.35675
 Alpha  occ. eigenvalues --   -0.35512  -0.35447  -0.35164  -0.35138  -0.34762
 Alpha  occ. eigenvalues --   -0.34685  -0.34411  -0.34328  -0.34131  -0.33895
 Alpha  occ. eigenvalues --   -0.33376  -0.33098  -0.32971  -0.32821  -0.32692
 Alpha  occ. eigenvalues --   -0.32628  -0.32491  -0.31939  -0.31845  -0.31811
 Alpha  occ. eigenvalues --   -0.30794  -0.30105  -0.29971  -0.29754  -0.29545
 Alpha  occ. eigenvalues --   -0.29303  -0.28640  -0.28385  -0.26872  -0.26236
 Alpha  occ. eigenvalues --   -0.25945  -0.25188  -0.25088  -0.24933  -0.20785
 Alpha  occ. eigenvalues --   -0.18692
 Alpha virt. eigenvalues --   -0.11045  -0.05277  -0.03891  -0.02281  -0.00377
 Alpha virt. eigenvalues --    0.00350   0.00888   0.01089   0.01437   0.02889
 Alpha virt. eigenvalues --    0.03976   0.04700   0.04777   0.05118   0.05745

 Mulliken charges:
               1
     1  Mg   0.980888
     2  C   -0.033148
     3  C   -0.088645
     4  C   -0.024419
     5  C   -0.085947
     6  N   -0.364273
     7  C    0.057975
     8  C   -0.116769
     9  C   -0.062996
    10  C    0.036571
    11  C   -0.004985
    12  C   -0.038412
    13  C   -0.047308
    14  C    0.252913
    15  O   -0.258994
    16  O   -0.358693
    17  N   -0.520922
    18  C    0.239268
    19  C   -0.177433
    20  C   -0.069048
    21  C    0.232658
    22  C    0.025293
    23  C    0.052258
    24  O   -0.292459
    25  C   -0.022620
    26  N   -0.382186
    27  C   -0.035656
    28  C   -0.108682
    29  C   -0.086842
    30  C    0.094141
    31  C    0.006779
    32  C   -0.027288
    33  C   -0.100908
    34  N   -0.446794
    35  C    0.146970
    36  C   -0.213916
    37  C   -0.064335
    38  C    0.124954
    39  C    0.065634
    40  C    0.205120
    41  O   -0.232776
    42  C   -0.102961
    43  C    0.272366
    44  O   -0.226664
    45  O   -0.372669
    46  C    0.129883
    47  C    0.279550
    48  C   -0.135488
    49  C   -0.252008
    50  C    0.006874
    51  C    0.013930
    52  C    0.012270
    53  C   -0.041487
    54  C   -0.231415
    55  C    0.006394
    56  C   -0.013619
    57  C   -0.064842
    58  C   -0.000590
    59  C   -0.218711
    60  C   -0.000181
    61  C    0.004284
    62  C   -0.021749
    63  C   -0.007396
    64  C   -0.241633
    65  C   -0.026073
    66  C   -0.019071
    67  H   -0.006022
    68  H    0.021378
    69  H    0.002810
    70  H    0.063215
    71  H    0.050937
    72  H    0.037368
    73  H    0.052678
    74  H    0.024483
    75  H    0.035329
    76  H    0.083257
    77  H    0.055950
    78  H    0.055356
    79  H    0.052794
    80  H    0.076452
    81  H    0.050759
    82  H    0.060285
    83  H    0.040639
    84  H    0.066818
    85  H    0.058893
    86  H    0.040523
    87  H    0.036669
    88  H    0.057823
    89  H    0.055882
    90  H    0.051512
    91  H    0.046863
    92  H    0.040634
    93  H    0.030943
    94  H    0.053896
    95  H    0.053352
    96  H    0.069061
    97  H    0.051540
    98  H    0.097802
    99  H    0.060256
   100  H    0.067781
   101  H    0.044818
   102  H    0.064899
   103  H    0.051174
   104  H    0.025065
   105  H    0.044973
   106  H    0.044690
   107  H    0.048908
   108  H    0.033163
   109  H    0.029902
   110  H    0.034756
   111  H    0.031911
   112  H    0.021819
   113  H    0.040293
   114  H    0.031817
   115  H    0.030105
   116  H    0.027963
   117  H    0.036861
   118  H    0.034979
   119  H    0.033143
   120  H    0.025034
   121  H    0.026296
   122  H    0.017919
   123  H    0.038443
   124  H    0.031772
   125  H    0.035042
   126  H    0.043900
   127  H    0.025901
   128  H    0.017870
   129  H    0.007581
   130  H    0.011408
   131  H    0.021234
   132  H    0.017474
   133  H    0.021317
   134  H    0.039587
   135  H    0.042068
   136  H    0.041024
   137  H    0.031218
   138  H    0.032293
   139  H    0.022967
   140  H    0.036533
 Sum of Mulliken charges =  -0.00000

 Dipole moment (field-independent basis, Debye):
    X=             -4.6416    Y=              3.1385    Z=              0.4478  Tot=              5.6210
 Quadrupole moment (field-independent basis, Debye-Ang):
   XX=           -371.7147   YY=           -430.1930   ZZ=           -400.7033
   XY=             -7.2320   XZ=             13.3493   YZ=            -11.0961

 Normal termination of Gaussian 16 at Sat Apr 30 06:36:03 2022.
