 Gaussian 16, Revision A.03,
 Gaussian 16:  ES64L-G16RevA.03 25-Dec-2016

 --------------------------------
 #p wB97XD/Def2SVP td=(nstates=5)
 --------------------------------

 ---------------------------------------------------
 step_601_chromophore_7 TDDFT with wB97XD functional
 ---------------------------------------------------
 Symbolic Z-matrix:
 Charge =  0 Multiplicity = 1

                         Standard orientation:
 ---------------------------------------------------------------------
 Center     Atomic      Atomic             Coordinates (Angstroms)
 Number     Number       Type             X           Y           Z
 ---------------------------------------------------------------------
      1         12           0        6.156229    0.422009   -0.124604
      2          6           0        3.612658   -2.067699   -0.214572
      3          6           0        3.728130    2.715870   -0.974502
      4          6           0        8.393337    2.791187    0.174673
      5          6           0        8.407085   -1.976731    0.756473
      6          7           0        3.936711    0.288675   -0.628606
      7          6           0        3.121553   -0.801647   -0.510605
      8          6           0        1.643141   -0.448612   -0.740997
      9          6           0        1.688142    1.087694   -1.008701
     10          6           0        3.177813    1.417686   -0.824224
     11          6           0        1.257351    1.487480   -2.401267
     12          6           0        0.735337   -0.803462    0.490086
     13          6           0       -0.720729   -0.424860    0.430539
     14          6           0       -1.772936   -1.557608    0.555533
     15          8           0       -1.479296   -2.745262    0.527952
     16          8           0       -3.042104   -1.095880    0.437444
     17          7           0        6.069022    2.457959   -0.357423
     18          6           0        5.031211    3.199323   -0.848113
     19          6           0        5.383206    4.534184   -1.042993
     20          6           0        6.746669    4.661801   -0.499160
     21          6           0        7.190597    3.264692   -0.243538
     22          6           0        4.344117    5.554016   -1.448290
     23          6           0        7.617194    5.892924   -0.401756
     24          8           0        8.766586    5.889342    0.152572
     25          6           0        7.074914    7.254703   -0.834596
     26          7           0        8.221347    0.396083    0.147122
     27          6           0        8.876994    1.524457    0.404148
     28          6           0       10.292569    1.248078    0.982909
     29          6           0       10.212768   -0.247769    1.288110
     30          6           0        8.864965   -0.650000    0.641669
     31          6           0       11.386121    1.614702   -0.093026
     32          6           0       10.342261   -0.640684    2.789505
     33          6           0       11.317106   -1.835631    3.137819
     34          7           0        6.102542   -1.632649    0.110980
     35          6           0        7.125841   -2.489693    0.404063
     36          6           0        6.617156   -3.846120    0.566322
     37          6           0        5.262476   -3.763213    0.285577
     38          6           0        5.014468   -2.361589    0.038844
     39          6           0        7.450566   -5.016084    0.977099
     40          6           0        3.998102   -4.544989    0.143608
     41          8           0        3.877101   -5.786926    0.046467
     42          6           0        2.874892   -3.451976   -0.092215
     43          6           0        1.995739   -3.750358   -1.269963
     44          8           0        2.295037   -3.543808   -2.410586
     45          8           0        0.784280   -4.292940   -0.834958
     46          6           0       -0.131029   -4.623342   -1.928960
     47          6           0       -4.027676   -2.055224   -0.000267
     48          6           0       -5.294847   -1.418488   -0.204258
     49          6           0       -6.523806   -1.971213   -0.031530
     50          6           0       -6.723077   -3.460295    0.131921
     51          6           0       -7.754613   -1.107654   -0.165157
     52          6           0       -8.388073   -0.999772   -1.542781
     53          6           0       -8.743375    0.407604   -1.991437
     54          6           0      -10.287229    0.503303   -2.518860
     55          6           0      -10.552855    1.576389   -3.511776
     56          6           0      -11.220251    0.661770   -1.292198
     57          6           0      -12.431936   -0.292605   -1.371342
     58          6           0      -13.727285    0.476655   -1.124618
     59          6           0      -14.096099    0.366829    0.452344
     60          6           0      -15.527848   -0.224561    0.682792
     61          6           0      -14.066097    1.755213    1.049126
     62          6           0      -13.581898    1.879223    2.513148
     63          6           0      -12.252287    1.416520    2.885305
     64          6           0      -11.148523    2.584386    2.887931
     65          6           0       -9.883303    2.042916    2.194863
     66          6           0      -10.942783    3.029662    4.354315
     67          1           0        2.931879    3.415931   -1.238178
     68          1           0        9.302707    3.390888    0.251447
     69          1           0        9.129438   -2.706616    1.126185
     70          1           0        1.243810   -1.131256   -1.490752
     71          1           0        1.057204    1.603893   -0.285513
     72          1           0        0.895990    0.718287   -3.083549
     73          1           0        2.003968    2.039908   -2.971346
     74          1           0        0.328350    2.055787   -2.449011
     75          1           0        1.159255   -0.399493    1.410079
     76          1           0        0.709825   -1.892646    0.521857
     77          1           0       -0.903889    0.265045   -0.393674
     78          1           0       -0.909782    0.280708    1.240451
     79          1           0        4.763514    6.133427   -2.270252
     80          1           0        4.193395    6.120659   -0.528885
     81          1           0        3.349344    5.343520   -1.841323
     82          1           0        7.621096    8.039084   -0.311225
     83          1           0        6.035074    7.415274   -0.549506
     84          1           0        7.115976    7.276544   -1.923735
     85          1           0       10.322364    1.870342    1.877129
     86          1           0       11.034014   -0.789217    0.819053
     87          1           0       12.058476    0.768839   -0.235928
     88          1           0       11.986299    2.486657    0.168643
     89          1           0       10.962205    1.814696   -1.076400
     90          1           0        9.386580   -0.952902    3.210532
     91          1           0       10.769946    0.194351    3.344717
     92          1           0       12.341677   -1.491075    3.280489
     93          1           0       11.420391   -2.431712    2.230633
     94          1           0       11.043508   -2.504824    3.952853
     95          1           0        8.214354   -5.177768    0.217373
     96          1           0        6.719398   -5.823755    1.009202
     97          1           0        8.002757   -4.887526    1.908606
     98          1           0        2.296385   -3.417111    0.830448
     99          1           0       -0.830790   -5.380305   -1.575597
    100          1           0        0.376445   -5.002964   -2.815688
    101          1           0       -0.633359   -3.667269   -2.075068
    102          1           0       -4.187537   -2.834699    0.744628
    103          1           0       -3.662662   -2.404012   -0.966230
    104          1           0       -5.331675   -0.329291   -0.218746
    105          1           0       -5.834860   -4.045433   -0.108499
    106          1           0       -7.589244   -3.795692   -0.438463
    107          1           0       -6.977733   -3.772663    1.144690
    108          1           0       -7.503831   -0.110124    0.195572
    109          1           0       -8.405449   -1.500038    0.617097
    110          1           0       -9.259367   -1.642790   -1.669304
    111          1           0       -7.707459   -1.354112   -2.316958
    112          1           0       -8.098661    0.621088   -2.843960
    113          1           0       -8.634900    1.226392   -1.279046
    114          1           0      -10.502137   -0.424884   -3.048511
    115          1           0      -10.327291    1.262745   -4.531709
    116          1           0       -9.858659    2.385121   -3.286623
    117          1           0      -11.581102    1.939169   -3.500992
    118          1           0      -11.569357    1.689707   -1.198698
    119          1           0      -10.749585    0.409865   -0.341517
    120          1           0      -12.348494   -1.059975   -0.602414
    121          1           0      -12.529041   -0.824505   -2.317364
    122          1           0      -14.476482   -0.141274   -1.619063
    123          1           0      -13.662627    1.484265   -1.535411
    124          1           0      -13.295152   -0.166154    0.964804
    125          1           0      -15.431682   -1.292706    0.875885
    126          1           0      -16.318605    0.000859   -0.033222
    127          1           0      -15.898790    0.240149    1.596794
    128          1           0      -15.055383    2.205150    0.965118
    129          1           0      -13.460626    2.383811    0.395958
    130          1           0      -14.301022    1.367071    3.152278
    131          1           0      -13.658494    2.912421    2.851239
    132          1           0      -11.913748    0.524394    2.358348
    133          1           0      -12.333373    1.065121    3.914325
    134          1           0      -11.473482    3.504734    2.402860
    135          1           0      -10.036637    2.199114    1.127462
    136          1           0       -9.749838    0.965045    2.293030
    137          1           0       -8.968548    2.573163    2.457984
    138          1           0      -10.919866    4.111833    4.477341
    139          1           0       -9.955480    2.691980    4.667334
    140          1           0      -11.639429    2.622648    5.087410
 ---------------------------------------------------------------------

 SCF Done:  E(RwB97XD) =  -3007.88522645     A.U. after   17 cycles

 Excitation energies and oscillator strengths:

 Excited State   1:      Singlet-A      1.6551 eV  749.10 nm  f=0.3875  <S**2>=0.000
     245 -> 248        0.18149
     246 -> 247        0.68230
     245 <- 248        0.11276
 This state for optimization and/or second-order correction.
 Total Energy, E(TD-HF/TD-DFT) =  -3007.82440216
 Copying the excited state density for this state as the 1-particle RhoCI density.

 Excited State   2:      Singlet-A      2.1596 eV  574.11 nm  f=0.1232  <S**2>=0.000
     245 -> 247        0.64038
     246 -> 248       -0.27893

 Excited State   3:      Singlet-A      3.3804 eV  366.78 nm  f=0.0070  <S**2>=0.000
     242 -> 247        0.45724
     242 -> 248        0.23432
     242 -> 249        0.24649
     242 -> 250       -0.25098
     244 -> 247       -0.24739
     246 -> 248       -0.11128

 Excited State   4:      Singlet-A      3.4207 eV  362.45 nm  f=0.0374  <S**2>=0.000
     242 -> 247        0.22732
     244 -> 247        0.57231
     246 -> 248        0.26377

 Excited State   5:      Singlet-A      3.5355 eV  350.68 nm  f=0.3533  <S**2>=0.000
     240 -> 247        0.20803
     240 -> 249       -0.16692
     240 -> 250       -0.10996
     241 -> 247        0.29759
     244 -> 247       -0.19117
     245 -> 247        0.19993
     246 -> 248        0.44838

 The electronic state is 1-A.
 Alpha  occ. eigenvalues --  -46.94731 -19.30847 -19.29041 -19.25412 -19.24791
 Alpha  occ. eigenvalues --  -19.24742 -19.23032 -14.46644 -14.46372 -14.44064
 Alpha  occ. eigenvalues --  -14.43789 -10.44063 -10.42686 -10.40203 -10.38875
 Alpha  occ. eigenvalues --  -10.35987 -10.35064 -10.34872 -10.34655 -10.34210
 Alpha  occ. eigenvalues --  -10.34208 -10.34144 -10.33509 -10.33132 -10.33108
 Alpha  occ. eigenvalues --  -10.32837 -10.32805 -10.32475 -10.32190 -10.32115
 Alpha  occ. eigenvalues --  -10.31942 -10.31941 -10.31940 -10.31802 -10.31516
 Alpha  occ. eigenvalues --  -10.31333 -10.31212 -10.30973 -10.30635 -10.30551
 Alpha  occ. eigenvalues --  -10.30431 -10.30145 -10.30143 -10.29885 -10.29834
 Alpha  occ. eigenvalues --  -10.29761 -10.29713 -10.29691 -10.29678 -10.29660
 Alpha  occ. eigenvalues --  -10.29634 -10.29538 -10.29461 -10.29363 -10.29243
 Alpha  occ. eigenvalues --  -10.29229 -10.28573 -10.28569 -10.28518 -10.28504
 Alpha  occ. eigenvalues --  -10.28504 -10.28285 -10.28224 -10.28205 -10.28093
 Alpha  occ. eigenvalues --  -10.28075  -3.20763  -1.94367  -1.93889  -1.93751
 Alpha  occ. eigenvalues --   -1.19890  -1.17844  -1.10867  -1.10732  -1.10060
 Alpha  occ. eigenvalues --   -1.08586  -1.07599  -1.06561  -1.05239  -1.04321
 Alpha  occ. eigenvalues --   -0.93397  -0.93162  -0.92024  -0.91718  -0.91172
 Alpha  occ. eigenvalues --   -0.90930  -0.90559  -0.89477  -0.89217  -0.89094
 Alpha  occ. eigenvalues --   -0.88316  -0.87853  -0.86887  -0.85490  -0.85160
 Alpha  occ. eigenvalues --   -0.84797  -0.83829  -0.83387  -0.82486  -0.82365
 Alpha  occ. eigenvalues --   -0.81930  -0.80197  -0.79899  -0.78973  -0.78493
 Alpha  occ. eigenvalues --   -0.77853  -0.77682  -0.77270  -0.76558  -0.76273
 Alpha  occ. eigenvalues --   -0.75475  -0.74827  -0.73730  -0.72333  -0.71183
 Alpha  occ. eigenvalues --   -0.70616  -0.70218  -0.69441  -0.68857  -0.68031
 Alpha  occ. eigenvalues --   -0.67468  -0.66744  -0.66577  -0.66308  -0.66187
 Alpha  occ. eigenvalues --   -0.65659  -0.65586  -0.63889  -0.63296  -0.62602
 Alpha  occ. eigenvalues --   -0.62264  -0.61656  -0.61265  -0.60699  -0.60266
 Alpha  occ. eigenvalues --   -0.60177  -0.59586  -0.59391  -0.58300  -0.57582
 Alpha  occ. eigenvalues --   -0.57103  -0.56991  -0.56309  -0.56197  -0.55892
 Alpha  occ. eigenvalues --   -0.55696  -0.55331  -0.55228  -0.54905  -0.54858
 Alpha  occ. eigenvalues --   -0.54353  -0.54309  -0.54048  -0.53774  -0.53582
 Alpha  occ. eigenvalues --   -0.53425  -0.53185  -0.53059  -0.52712  -0.52494
 Alpha  occ. eigenvalues --   -0.52360  -0.52049  -0.52038  -0.51767  -0.51643
 Alpha  occ. eigenvalues --   -0.51334  -0.51220  -0.51007  -0.50699  -0.50464
 Alpha  occ. eigenvalues --   -0.50334  -0.50061  -0.49943  -0.49697  -0.49530
 Alpha  occ. eigenvalues --   -0.49449  -0.49306  -0.48853  -0.48656  -0.48551
 Alpha  occ. eigenvalues --   -0.48450  -0.48201  -0.48101  -0.47927  -0.47799
 Alpha  occ. eigenvalues --   -0.47700  -0.47423  -0.47370  -0.47086  -0.46976
 Alpha  occ. eigenvalues --   -0.46753  -0.46626  -0.46424  -0.46241  -0.45898
 Alpha  occ. eigenvalues --   -0.45883  -0.45754  -0.45465  -0.45106  -0.44771
 Alpha  occ. eigenvalues --   -0.44607  -0.44364  -0.44213  -0.44096  -0.43782
 Alpha  occ. eigenvalues --   -0.43544  -0.43511  -0.43340  -0.43139  -0.42746
 Alpha  occ. eigenvalues --   -0.42555  -0.42521  -0.42419  -0.42090  -0.41775
 Alpha  occ. eigenvalues --   -0.41727  -0.41514  -0.41325  -0.41218  -0.40911
 Alpha  occ. eigenvalues --   -0.40337  -0.40094  -0.40048  -0.39879  -0.39629
 Alpha  occ. eigenvalues --   -0.39616  -0.39568  -0.38888  -0.38870  -0.38789
 Alpha  occ. eigenvalues --   -0.37890  -0.37029  -0.36823  -0.36697  -0.36577
 Alpha  occ. eigenvalues --   -0.36360  -0.35384  -0.35244  -0.33477  -0.33180
 Alpha  occ. eigenvalues --   -0.32644  -0.32162  -0.31907  -0.31627  -0.25751
 Alpha  occ. eigenvalues --   -0.22853
 Alpha virt. eigenvalues --   -0.06921   0.00238   0.02288   0.04162   0.06525
 Alpha virt. eigenvalues --    0.06720   0.07017   0.07744   0.08079   0.09253
 Alpha virt. eigenvalues --    0.10652   0.11396   0.11566   0.11869   0.12403

 Mulliken charges:
               1
     1  Mg   0.970642
     2  C   -0.040479
     3  C   -0.104600
     4  C   -0.040532
     5  C   -0.097449
     6  N   -0.329900
     7  C    0.026879
     8  C   -0.091042
     9  C   -0.036358
    10  C    0.025391
    11  C    0.001906
    12  C   -0.011877
    13  C   -0.036824
    14  C    0.244786
    15  O   -0.255626
    16  O   -0.356934
    17  N   -0.489227
    18  C    0.230830
    19  C   -0.165203
    20  C   -0.067130
    21  C    0.226181
    22  C    0.037617
    23  C    0.048690
    24  O   -0.286778
    25  C   -0.010971
    26  N   -0.346995
    27  C   -0.048199
    28  C   -0.081798
    29  C   -0.059690
    30  C    0.079823
    31  C    0.015159
    32  C   -0.015159
    33  C   -0.083598
    34  N   -0.406766
    35  C    0.134997
    36  C   -0.205753
    37  C   -0.062393
    38  C    0.108993
    39  C    0.075450
    40  C    0.185185
    41  O   -0.222655
    42  C   -0.065867
    43  C    0.249433
    44  O   -0.220691
    45  O   -0.370139
    46  C    0.145454
    47  C    0.293127
    48  C   -0.147324
    49  C   -0.234742
    50  C    0.016862
    51  C    0.036159
    52  C    0.025419
    53  C   -0.024653
    54  C   -0.198769
    55  C    0.017146
    56  C    0.009394
    57  C   -0.046618
    58  C    0.017555
    59  C   -0.190217
    60  C    0.012809
    61  C    0.023380
    62  C   -0.003645
    63  C    0.009149
    64  C   -0.214038
    65  C   -0.006319
    66  C   -0.008796
    67  H   -0.017076
    68  H    0.015609
    69  H   -0.005715
    70  H    0.049550
    71  H    0.041102
    72  H    0.032683
    73  H    0.046184
    74  H    0.019093
    75  H    0.028843
    76  H    0.058250
    77  H    0.048232
    78  H    0.049978
    79  H    0.046803
    80  H    0.070600
    81  H    0.048773
    82  H    0.059404
    83  H    0.034547
    84  H    0.062667
    85  H    0.049754
    86  H    0.026537
    87  H    0.030772
    88  H    0.053037
    89  H    0.049704
    90  H    0.042680
    91  H    0.038705
    92  H    0.034721
    93  H    0.022255
    94  H    0.049540
    95  H    0.048310
    96  H    0.065146
    97  H    0.047147
    98  H    0.092156
    99  H    0.057499
   100  H    0.063934
   101  H    0.038876
   102  H    0.059119
   103  H    0.046035
   104  H    0.021922
   105  H    0.039863
   106  H    0.039154
   107  H    0.044038
   108  H    0.022883
   109  H    0.021980
   110  H    0.025305
   111  H    0.023770
   112  H    0.014378
   113  H    0.029507
   114  H    0.018044
   115  H    0.025196
   116  H    0.021236
   117  H    0.030249
   118  H    0.021330
   119  H    0.012508
   120  H    0.016055
   121  H    0.018513
   122  H    0.009179
   123  H    0.028565
   124  H    0.012556
   125  H    0.029920
   126  H    0.039004
   127  H    0.017062
   128  H    0.009381
   129  H   -0.005765
   130  H    0.003021
   131  H    0.012156
   132  H    0.005988
   133  H    0.012234
   134  H    0.029572
   135  H    0.028808
   136  H    0.033943
   137  H    0.026438
   138  H    0.027360
   139  H    0.016390
   140  H    0.030140
 Sum of Mulliken charges =  -0.00000

 Dipole moment (field-independent basis, Debye):
    X=             -4.7013    Y=              3.2647    Z=              0.4061  Tot=              5.7381
 Quadrupole moment (field-independent basis, Debye-Ang):
   XX=           -372.8719   YY=           -428.1932   ZZ=           -400.2969
   XY=             -6.0769   XZ=             13.0605   YZ=            -11.3658

 Normal termination of Gaussian 16 at Sat Apr 30 07:01:14 2022.
