 Gaussian 16, Revision A.03,
 Gaussian 16:  ES64L-G16RevA.03 25-Dec-2016

 --------------------
 #p ZINDO=(nstates=5)
 --------------------

 ----------------------------
 step_601_chromophore_7 ZINDO
 ----------------------------
 Symbolic Z-matrix:
 Charge =  0 Multiplicity = 1

                         Standard orientation:
 ---------------------------------------------------------------------
 Center     Atomic      Atomic             Coordinates (Angstroms)
 Number     Number       Type             X           Y           Z
 ---------------------------------------------------------------------
      1         12           0        6.156229    0.422009   -0.124604
      2          6           0        3.612658   -2.067699   -0.214572
      3          6           0        3.728130    2.715870   -0.974502
      4          6           0        8.393337    2.791187    0.174673
      5          6           0        8.407085   -1.976731    0.756473
      6          7           0        3.936711    0.288675   -0.628606
      7          6           0        3.121553   -0.801647   -0.510605
      8          6           0        1.643141   -0.448612   -0.740997
      9          6           0        1.688142    1.087694   -1.008701
     10          6           0        3.177813    1.417686   -0.824224
     11          6           0        1.257351    1.487480   -2.401267
     12          6           0        0.735337   -0.803462    0.490086
     13          6           0       -0.720729   -0.424860    0.430539
     14          6           0       -1.772936   -1.557608    0.555533
     15          8           0       -1.479296   -2.745262    0.527952
     16          8           0       -3.042104   -1.095880    0.437444
     17          7           0        6.069022    2.457959   -0.357423
     18          6           0        5.031211    3.199323   -0.848113
     19          6           0        5.383206    4.534184   -1.042993
     20          6           0        6.746669    4.661801   -0.499160
     21          6           0        7.190597    3.264692   -0.243538
     22          6           0        4.344117    5.554016   -1.448290
     23          6           0        7.617194    5.892924   -0.401756
     24          8           0        8.766586    5.889342    0.152572
     25          6           0        7.074914    7.254703   -0.834596
     26          7           0        8.221347    0.396083    0.147122
     27          6           0        8.876994    1.524457    0.404148
     28          6           0       10.292569    1.248078    0.982909
     29          6           0       10.212768   -0.247769    1.288110
     30          6           0        8.864965   -0.650000    0.641669
     31          6           0       11.386121    1.614702   -0.093026
     32          6           0       10.342261   -0.640684    2.789505
     33          6           0       11.317106   -1.835631    3.137819
     34          7           0        6.102542   -1.632649    0.110980
     35          6           0        7.125841   -2.489693    0.404063
     36          6           0        6.617156   -3.846120    0.566322
     37          6           0        5.262476   -3.763213    0.285577
     38          6           0        5.014468   -2.361589    0.038844
     39          6           0        7.450566   -5.016084    0.977099
     40          6           0        3.998102   -4.544989    0.143608
     41          8           0        3.877101   -5.786926    0.046467
     42          6           0        2.874892   -3.451976   -0.092215
     43          6           0        1.995739   -3.750358   -1.269963
     44          8           0        2.295037   -3.543808   -2.410586
     45          8           0        0.784280   -4.292940   -0.834958
     46          6           0       -0.131029   -4.623342   -1.928960
     47          6           0       -4.027676   -2.055224   -0.000267
     48          6           0       -5.294847   -1.418488   -0.204258
     49          6           0       -6.523806   -1.971213   -0.031530
     50          6           0       -6.723077   -3.460295    0.131921
     51          6           0       -7.754613   -1.107654   -0.165157
     52          6           0       -8.388073   -0.999772   -1.542781
     53          6           0       -8.743375    0.407604   -1.991437
     54          6           0      -10.287229    0.503303   -2.518860
     55          6           0      -10.552855    1.576389   -3.511776
     56          6           0      -11.220251    0.661770   -1.292198
     57          6           0      -12.431936   -0.292605   -1.371342
     58          6           0      -13.727285    0.476655   -1.124618
     59          6           0      -14.096099    0.366829    0.452344
     60          6           0      -15.527848   -0.224561    0.682792
     61          6           0      -14.066097    1.755213    1.049126
     62          6           0      -13.581898    1.879223    2.513148
     63          6           0      -12.252287    1.416520    2.885305
     64          6           0      -11.148523    2.584386    2.887931
     65          6           0       -9.883303    2.042916    2.194863
     66          6           0      -10.942783    3.029662    4.354315
     67          1           0        2.931879    3.415931   -1.238178
     68          1           0        9.302707    3.390888    0.251447
     69          1           0        9.129438   -2.706616    1.126185
     70          1           0        1.243810   -1.131256   -1.490752
     71          1           0        1.057204    1.603893   -0.285513
     72          1           0        0.895990    0.718287   -3.083549
     73          1           0        2.003968    2.039908   -2.971346
     74          1           0        0.328350    2.055787   -2.449011
     75          1           0        1.159255   -0.399493    1.410079
     76          1           0        0.709825   -1.892646    0.521857
     77          1           0       -0.903889    0.265045   -0.393674
     78          1           0       -0.909782    0.280708    1.240451
     79          1           0        4.763514    6.133427   -2.270252
     80          1           0        4.193395    6.120659   -0.528885
     81          1           0        3.349344    5.343520   -1.841323
     82          1           0        7.621096    8.039084   -0.311225
     83          1           0        6.035074    7.415274   -0.549506
     84          1           0        7.115976    7.276544   -1.923735
     85          1           0       10.322364    1.870342    1.877129
     86          1           0       11.034014   -0.789217    0.819053
     87          1           0       12.058476    0.768839   -0.235928
     88          1           0       11.986299    2.486657    0.168643
     89          1           0       10.962205    1.814696   -1.076400
     90          1           0        9.386580   -0.952902    3.210532
     91          1           0       10.769946    0.194351    3.344717
     92          1           0       12.341677   -1.491075    3.280489
     93          1           0       11.420391   -2.431712    2.230633
     94          1           0       11.043508   -2.504824    3.952853
     95          1           0        8.214354   -5.177768    0.217373
     96          1           0        6.719398   -5.823755    1.009202
     97          1           0        8.002757   -4.887526    1.908606
     98          1           0        2.296385   -3.417111    0.830448
     99          1           0       -0.830790   -5.380305   -1.575597
    100          1           0        0.376445   -5.002964   -2.815688
    101          1           0       -0.633359   -3.667269   -2.075068
    102          1           0       -4.187537   -2.834699    0.744628
    103          1           0       -3.662662   -2.404012   -0.966230
    104          1           0       -5.331675   -0.329291   -0.218746
    105          1           0       -5.834860   -4.045433   -0.108499
    106          1           0       -7.589244   -3.795692   -0.438463
    107          1           0       -6.977733   -3.772663    1.144690
    108          1           0       -7.503831   -0.110124    0.195572
    109          1           0       -8.405449   -1.500038    0.617097
    110          1           0       -9.259367   -1.642790   -1.669304
    111          1           0       -7.707459   -1.354112   -2.316958
    112          1           0       -8.098661    0.621088   -2.843960
    113          1           0       -8.634900    1.226392   -1.279046
    114          1           0      -10.502137   -0.424884   -3.048511
    115          1           0      -10.327291    1.262745   -4.531709
    116          1           0       -9.858659    2.385121   -3.286623
    117          1           0      -11.581102    1.939169   -3.500992
    118          1           0      -11.569357    1.689707   -1.198698
    119          1           0      -10.749585    0.409865   -0.341517
    120          1           0      -12.348494   -1.059975   -0.602414
    121          1           0      -12.529041   -0.824505   -2.317364
    122          1           0      -14.476482   -0.141274   -1.619063
    123          1           0      -13.662627    1.484265   -1.535411
    124          1           0      -13.295152   -0.166154    0.964804
    125          1           0      -15.431682   -1.292706    0.875885
    126          1           0      -16.318605    0.000859   -0.033222
    127          1           0      -15.898790    0.240149    1.596794
    128          1           0      -15.055383    2.205150    0.965118
    129          1           0      -13.460626    2.383811    0.395958
    130          1           0      -14.301022    1.367071    3.152278
    131          1           0      -13.658494    2.912421    2.851239
    132          1           0      -11.913748    0.524394    2.358348
    133          1           0      -12.333373    1.065121    3.914325
    134          1           0      -11.473482    3.504734    2.402860
    135          1           0      -10.036637    2.199114    1.127462
    136          1           0       -9.749838    0.965045    2.293030
    137          1           0       -8.968548    2.573163    2.457984
    138          1           0      -10.919866    4.111833    4.477341
    139          1           0       -9.955480    2.691980    4.667334
    140          1           0      -11.639429    2.622648    5.087410
 ---------------------------------------------------------------------

 SCF Done:  E(RZINDO/S) =  -474.476982048     A.U. after   20 cycles

 Excitation energies and oscillator strengths:

 Excited State   1:      Singlet-A      1.2321 eV 1006.29 nm  f=0.6113  <S**2>=0.000
     175 ->178         0.19365
     176 ->177         0.66091
 This state for optimization and/or second-order correction.
 Total Energy, E(CIS/TDA) =  -474.431703288
 Copying the excited state density for this state as the 1-particle RhoCI density.

 Excited State   2:      Singlet-A      1.9049 eV  650.86 nm  f=0.0552  <S**2>=0.000
     175 ->177         0.55498
     176 ->178        -0.41100

 Excited State   3:      Singlet-A      2.9136 eV  425.53 nm  f=0.0865  <S**2>=0.000
     169 ->177         0.26712
     169 ->178        -0.17958
     169 ->179        -0.25213
     169 ->180         0.27198
     169 ->186        -0.17450
     169 ->187        -0.14386
     175 ->177        -0.12230
     176 ->178        -0.20843
     176 ->179        -0.24036

 Excited State   4:      Singlet-A      2.9685 eV  417.67 nm  f=0.4400  <S**2>=0.000
     169 ->177         0.16319
     169 ->178        -0.11480
     169 ->179        -0.16220
     169 ->180         0.18275
     169 ->186        -0.11173
     175 ->177         0.24272
     176 ->178         0.39102
     176 ->179         0.34363

 Excited State   5:      Singlet-A      3.0109 eV  411.79 nm  f=0.1571  <S**2>=0.000
     168 ->177         0.23255
     168 ->179         0.32975
     168 ->180         0.24178
     168 ->186         0.12950
     170 ->179        -0.10871
     175 ->177         0.14387
     176 ->178         0.17022
     176 ->179        -0.31428

 The electronic state is 1-A.
 Alpha  occ. eigenvalues --   -1.85210  -1.82827  -1.80203  -1.75198  -1.71859
 Alpha  occ. eigenvalues --   -1.71025  -1.66997  -1.61222  -1.55968  -1.55811
 Alpha  occ. eigenvalues --   -1.54311  -1.52846  -1.50139  -1.47886  -1.47419
 Alpha  occ. eigenvalues --   -1.44629  -1.43084  -1.40817  -1.39749  -1.39529
 Alpha  occ. eigenvalues --   -1.35677  -1.34514  -1.34057  -1.31271  -1.28502
 Alpha  occ. eigenvalues --   -1.28108  -1.25519  -1.22827  -1.20857  -1.17977
 Alpha  occ. eigenvalues --   -1.17387  -1.17081  -1.15656  -1.14536  -1.12795
 Alpha  occ. eigenvalues --   -1.12285  -1.11519  -1.09980  -1.05472  -1.03431
 Alpha  occ. eigenvalues --   -1.02560  -1.01913  -0.99368  -0.98068  -0.97014
 Alpha  occ. eigenvalues --   -0.96088  -0.94935  -0.93696  -0.93151  -0.92012
 Alpha  occ. eigenvalues --   -0.91563  -0.90641  -0.89495  -0.88726  -0.86273
 Alpha  occ. eigenvalues --   -0.86004  -0.84383  -0.83086  -0.82478  -0.80935
 Alpha  occ. eigenvalues --   -0.79940  -0.78993  -0.77566  -0.77028  -0.76547
 Alpha  occ. eigenvalues --   -0.75908  -0.75701  -0.74368  -0.74038  -0.73830
 Alpha  occ. eigenvalues --   -0.73222  -0.72822  -0.72060  -0.70849  -0.70645
 Alpha  occ. eigenvalues --   -0.70198  -0.69076  -0.68450  -0.68088  -0.67890
 Alpha  occ. eigenvalues --   -0.67484  -0.67222  -0.66860  -0.66301  -0.66029
 Alpha  occ. eigenvalues --   -0.65673  -0.65489  -0.64883  -0.63599  -0.63374
 Alpha  occ. eigenvalues --   -0.62970  -0.62576  -0.62357  -0.62279  -0.61955
 Alpha  occ. eigenvalues --   -0.61701  -0.60857  -0.60463  -0.60305  -0.59585
 Alpha  occ. eigenvalues --   -0.59473  -0.59403  -0.59136  -0.58588  -0.58130
 Alpha  occ. eigenvalues --   -0.58048  -0.57374  -0.57251  -0.56873  -0.56381
 Alpha  occ. eigenvalues --   -0.56044  -0.55840  -0.55563  -0.55107  -0.54787
 Alpha  occ. eigenvalues --   -0.54678  -0.54309  -0.53436  -0.53294  -0.52814
 Alpha  occ. eigenvalues --   -0.52216  -0.52064  -0.51810  -0.51509  -0.51398
 Alpha  occ. eigenvalues --   -0.51144  -0.50902  -0.50267  -0.50101  -0.49916
 Alpha  occ. eigenvalues --   -0.49633  -0.49465  -0.49009  -0.48823  -0.48623
 Alpha  occ. eigenvalues --   -0.48278  -0.47823  -0.47777  -0.47659  -0.47633
 Alpha  occ. eigenvalues --   -0.47364  -0.47285  -0.47229  -0.46829  -0.46699
 Alpha  occ. eigenvalues --   -0.46271  -0.46194  -0.45997  -0.45665  -0.45363
 Alpha  occ. eigenvalues --   -0.45207  -0.44896  -0.44614  -0.44160  -0.44045
 Alpha  occ. eigenvalues --   -0.43482  -0.42815  -0.42722  -0.42557  -0.42284
 Alpha  occ. eigenvalues --   -0.42192  -0.41412  -0.41157  -0.39273  -0.39040
 Alpha  occ. eigenvalues --   -0.38323  -0.37438  -0.35688  -0.35209  -0.34836
 Alpha  occ. eigenvalues --   -0.33412  -0.32564  -0.32169  -0.31825  -0.26460
 Alpha  occ. eigenvalues --   -0.21695
 Alpha virt. eigenvalues --   -0.08521  -0.01996  -0.00690   0.01013   0.01101
 Alpha virt. eigenvalues --    0.03039   0.03143   0.03417   0.04290   0.04718
 Alpha virt. eigenvalues --    0.06151   0.06513   0.07395   0.07416   0.08025

 Mulliken charges:
               1
     1  Mg   0.427760
     2  C   -0.064379
     3  C   -0.087031
     4  C   -0.051333
     5  C   -0.067246
     6  N   -0.295089
     7  C    0.133494
     8  C   -0.000384
     9  C    0.020843
    10  C    0.125078
    11  C   -0.054229
    12  C   -0.031841
    13  C    0.003506
    14  C    0.465173
    15  O   -0.511690
    16  O   -0.270654
    17  N   -0.337008
    18  C    0.121271
    19  C    0.009568
    20  C   -0.057721
    21  C    0.140890
    22  C   -0.043033
    23  C    0.317729
    24  O   -0.551743
    25  C   -0.030475
    26  N   -0.241828
    27  C    0.134038
    28  C    0.004787
    29  C    0.004686
    30  C    0.121706
    31  C   -0.049120
    32  C   -0.031707
    33  C   -0.066542
    34  N   -0.298452
    35  C    0.081192
    36  C    0.041962
    37  C   -0.056281
    38  C    0.125053
    39  C   -0.039593
    40  C    0.334470
    41  O   -0.510131
    42  C    0.058948
    43  C    0.492217
    44  O   -0.507763
    45  O   -0.268949
    46  C    0.075629
    47  C    0.120277
    48  C   -0.091854
    49  C   -0.014226
    50  C   -0.044014
    51  C   -0.014442
    52  C   -0.018959
    53  C   -0.039363
    54  C   -0.016042
    55  C   -0.050402
    56  C   -0.034289
    57  C   -0.040340
    58  C   -0.045820
    59  C   -0.017324
    60  C   -0.057523
    61  C   -0.031183
    62  C   -0.025142
    63  C   -0.028041
    64  C   -0.011808
    65  C   -0.055688
    66  C   -0.060116
    67  H    0.017619
    68  H    0.037972
    69  H    0.027213
    70  H    0.048523
    71  H    0.032463
    72  H    0.020368
    73  H    0.025843
    74  H    0.009354
    75  H    0.022675
    76  H    0.032890
    77  H    0.042055
    78  H    0.029333
    79  H    0.021313
    80  H    0.031633
    81  H    0.032533
    82  H    0.041171
    83  H    0.026647
    84  H    0.042571
    85  H    0.039643
    86  H    0.031446
    87  H    0.017663
    88  H    0.026395
    89  H    0.026692
    90  H    0.025314
    91  H    0.020454
    92  H    0.016699
    93  H    0.010908
    94  H    0.028646
    95  H    0.032221
    96  H    0.036993
    97  H    0.032843
    98  H    0.055836
    99  H    0.034804
   100  H    0.051306
   101  H    0.038800
   102  H    0.057544
   103  H    0.050702
   104  H    0.026117
   105  H    0.023840
   106  H    0.022500
   107  H    0.027455
   108  H    0.017945
   109  H    0.018662
   110  H    0.021813
   111  H    0.017137
   112  H    0.011783
   113  H    0.026604
   114  H    0.018959
   115  H    0.011442
   116  H    0.014533
   117  H    0.020339
   118  H    0.023138
   119  H    0.014986
   120  H    0.016519
   121  H    0.016060
   122  H    0.009932
   123  H    0.035837
   124  H    0.034155
   125  H    0.016062
   126  H    0.030351
   127  H    0.010735
   128  H    0.011453
   129  H    0.008392
   130  H    0.008020
   131  H    0.011462
   132  H    0.020847
   133  H    0.011455
   134  H    0.026901
   135  H    0.009702
   136  H    0.022845
   137  H    0.017889
   138  H    0.014291
   139  H    0.011055
   140  H    0.022221
 Sum of Mulliken charges =  -0.00000

 Dipole moment (field-independent basis, Debye):
    X=             -5.0991    Y=              4.9809    Z=              1.4061  Tot=              7.2655
 N-N= 4.266875155590D+03 E-N= 0.000000000000D+00  KE=-9.208210353741D+03
 Leave Link  601 at Sat Apr 30 07:13:10 2022, MaxMem=  6710886400 cpu:               0.7 elap:               0.0
 (Enter /sw/apps/gaussian-16.0/g16/l9999.exe)
 1\1\GINC-BP1-COMPUTE159\SP\RZINDO CIS\STO-3G\C55H74Mg1N4O6\OF15641\30-
 Apr-2022\0\\#p ZINDO=(nstates=5)\\step_601_chromophore_7 ZINDO\\0,1\Mg
 ,0,26.043,-0.9,29.285\C,0,28.002,-0.891,32.258\C,0,23.263,-0.585,31.29
 8\C,0,24.207,-0.661,26.587\C,0,28.904,-1.164,27.457\N,0,25.698,-0.845,
 31.538\C,0,26.643,-0.768,32.522\C,0,26.02,-0.535,33.908\C,0,24.493,-0.
 461,33.597\C,0,24.455,-0.59,32.066\C,0,23.68,-1.577,34.212\C,0,26.543,
 0.776,34.596\C,0,25.944,1.17,35.92\C,0,26.895,1.304,37.138\O,0,28.064,

 Normal termination of Gaussian 16 at Sat Apr 30 07:13:10 2022.
