 Gaussian 16, Revision A.03,
 Gaussian 16:  ES64L-G16RevA.03 25-Dec-2016

 ------------------------------
 #p blyp/Def2SVP td=(nstates=5)
 ------------------------------

 -------------------------------------------------
 step_801_chromophore_8 TDDFT with blyp functional
 -------------------------------------------------
 Symbolic Z-matrix:
 Charge =  0 Multiplicity = 1

                         Standard orientation:
 ---------------------------------------------------------------------
 Center     Atomic      Atomic             Coordinates (Angstroms)
 Number     Number       Type             X           Y           Z
 ---------------------------------------------------------------------
      1         12           0        5.380180    0.978078    0.079860
      2          6           0        4.063323   -2.268507    0.538926
      3          6           0        5.011639    0.511911   -3.297411
      4          6           0        5.683137    4.286301   -0.273593
      5          6           0        5.064835    1.459225    3.559849
      6          7           0        4.462834   -0.618303   -1.183211
      7          6           0        4.133619   -1.952891   -0.811740
      8          6           0        3.869791   -2.866191   -2.048000
      9          6           0        4.468527   -1.956386   -3.185500
     10          6           0        4.597990   -0.532819   -2.536949
     11          6           0        5.627531   -2.635891   -3.975381
     12          6           0        2.292863   -2.979377   -2.154090
     13          6           0        1.632876   -4.319038   -2.373440
     14          6           0        0.639695   -4.778075   -1.332224
     15          8           0        0.909924   -5.366130   -0.264553
     16          8           0       -0.626085   -4.252596   -1.672040
     17          7           0        5.411050    2.232508   -1.598308
     18          6           0        5.256980    1.864180   -2.851309
     19          6           0        5.371195    3.079524   -3.726675
     20          6           0        5.434410    4.233662   -2.886979
     21          6           0        5.518916    3.663371   -1.506873
     22          6           0        5.497735    3.002335   -5.210752
     23          6           0        5.439861    5.706388   -3.339915
     24          8           0        5.427761    6.046927   -4.518018
     25          6           0        5.505072    6.763093   -2.217743
     26          7           0        5.635625    2.675439    1.493761
     27          6           0        5.643952    3.901421    1.037884
     28          6           0        5.838750    4.870437    2.241516
     29          6           0        5.260579    4.019157    3.408443
     30          6           0        5.313567    2.613653    2.806745
     31          6           0        7.219638    5.468447    2.559876
     32          6           0        3.850506    4.429493    3.974726
     33          6           0        3.673574    5.868875    4.577996
     34          7           0        4.771681   -0.174646    1.707965
     35          6           0        4.708171    0.125278    3.046089
     36          6           0        4.230406   -1.041715    3.798428
     37          6           0        4.039175   -2.017541    2.814065
     38          6           0        4.324827   -1.415571    1.564578
     39          6           0        4.021257   -1.117219    5.245607
     40          6           0        3.701454   -3.400196    2.619615
     41          8           0        3.437759   -4.275788    3.390079
     42          6           0        3.767225   -3.664373    1.121985
     43          6           0        4.731488   -4.798903    0.936401
     44          8           0        5.913616   -4.852233    1.289534
     45          8           0        3.973136   -5.884684    0.482722
     46          6           0        4.740791   -7.099095    0.293343
     47          6           0       -1.536928   -4.423403   -0.574307
     48          6           0       -2.937083   -4.004561   -0.879991
     49          6           0       -3.943314   -3.659890   -0.009764
     50          6           0       -3.826158   -3.849480    1.526564
     51          6           0       -5.280673   -3.061605   -0.595208
     52          6           0       -5.145874   -1.536154   -0.749425
     53          6           0       -5.971939   -0.595426    0.223590
     54          6           0       -7.105162    0.189408   -0.536455
     55          6           0       -6.409761    1.375935   -1.496872
     56          6           0       -8.087128    0.651157    0.446528
     57          6           0       -9.210501    1.513000   -0.239756
     58          6           0      -10.382981    0.685818   -0.867016
     59          6           0      -11.675662    0.958491    0.008092
     60          6           0      -11.617693    0.384791    1.369378
     61          6           0      -12.932789    0.281803   -0.739769
     62          6           0      -14.139158    1.221437   -1.101749
     63          6           0      -15.283582    1.114302   -0.123492
     64          6           0      -15.730662    2.508747    0.453903
     65          6           0      -17.137237    2.978211   -0.018797
     66          6           0      -15.594965    2.585538    1.976152
     67          1           0        4.972776    0.239773   -4.354185
     68          1           0        5.918890    5.349884   -0.204417
     69          1           0        4.747172    1.682611    4.580236
     70          1           0        4.252758   -3.886366   -2.086984
     71          1           0        3.814827   -1.797267   -4.042963
     72          1           0        5.866491   -3.610158   -3.548735
     73          1           0        6.482493   -1.973064   -3.843235
     74          1           0        5.407791   -2.790055   -5.031633
     75          1           0        1.964068   -2.448142   -3.047432
     76          1           0        1.905574   -2.395966   -1.318319
     77          1           0        2.358922   -5.126935   -2.278296
     78          1           0        1.194852   -4.430596   -3.364902
     79          1           0        5.596190    1.970777   -5.548474
     80          1           0        6.274680    3.622395   -5.656613
     81          1           0        4.528984    3.302473   -5.611310
     82          1           0        6.481589    6.745393   -1.734277
     83          1           0        4.723759    6.537025   -1.492490
     84          1           0        5.361633    7.745924   -2.666600
     85          1           0        5.103805    5.675129    2.216089
     86          1           0        6.071699    4.040301    4.136318
     87          1           0        8.032090    4.970030    2.029893
     88          1           0        7.429953    5.563875    3.624805
     89          1           0        7.134208    6.448799    2.091788
     90          1           0        3.593257    3.623826    4.662648
     91          1           0        3.063395    4.376177    3.222489
     92          1           0        3.434607    5.775496    5.637030
     93          1           0        2.919349    6.377274    3.977507
     94          1           0        4.584044    6.458350    4.469011
     95          1           0        4.877445   -0.689272    5.767717
     96          1           0        3.809825   -2.129635    5.589201
     97          1           0        3.124596   -0.549098    5.496738
     98          1           0        2.773290   -4.005824    0.832003
     99          1           0        5.646415   -7.001955   -0.305255
    100          1           0        4.078435   -7.897750   -0.041367
    101          1           0        4.995668   -7.395052    1.311218
    102          1           0       -1.191798   -3.828088    0.270942
    103          1           0       -1.686086   -5.488319   -0.398017
    104          1           0       -3.116460   -3.753421   -1.925961
    105          1           0       -2.785135   -3.971805    1.823990
    106          1           0       -4.457262   -4.715932    1.722507
    107          1           0       -4.314626   -2.958356    1.921637
    108          1           0       -6.060528   -3.354753    0.107885
    109          1           0       -5.509232   -3.524524   -1.555585
    110          1           0       -5.489441   -1.288340   -1.753078
    111          1           0       -4.090811   -1.269063   -0.673511
    112          1           0       -5.313560    0.133482    0.694394
    113          1           0       -6.408897   -1.167066    1.042666
    114          1           0       -7.647695   -0.387329   -1.285044
    115          1           0       -6.618406    2.387166   -1.149406
    116          1           0       -6.793732    1.228692   -2.505909
    117          1           0       -5.333028    1.273869   -1.639869
    118          1           0       -7.626565    1.246618    1.234671
    119          1           0       -8.557434   -0.223455    0.895704
    120          1           0       -8.839186    2.065383   -1.101788
    121          1           0       -9.498777    2.238294    0.520506
    122          1           0      -10.384749   -0.403334   -0.832528
    123          1           0      -10.520934    0.898339   -1.926571
    124          1           0      -11.736308    2.040155    0.124923
    125          1           0      -10.838138   -0.377040    1.403101
    126          1           0      -12.573462   -0.045336    1.668695
    127          1           0      -11.467045    1.227197    2.044528
    128          1           0      -13.285035   -0.576533   -0.167658
    129          1           0      -12.638277   -0.229722   -1.655882
    130          1           0      -14.555384    0.905824   -2.058512
    131          1           0      -13.727027    2.224263   -1.211238
    132          1           0      -15.074402    0.329575    0.603384
    133          1           0      -16.068000    0.797648   -0.810262
    134          1           0      -15.009136    3.250643    0.112208
    135          1           0      -17.889973    2.917430    0.766569
    136          1           0      -17.515634    2.267643   -0.753863
    137          1           0      -17.234620    3.984454   -0.424984
    138          1           0      -14.541186    2.720462    2.218941
    139          1           0      -16.112421    1.706906    2.361880
    140          1           0      -16.191120    3.427606    2.327170
 ---------------------------------------------------------------------

 SCF Done:  E(RB-LYP) =  -3007.34849374     A.U. after   20 cycles

 Excitation energies and oscillator strengths:

 Excited State   1:      Singlet-A      1.8251 eV  679.34 nm  f=0.3046  <S**2>=0.000
     244 -> 247       -0.14316
     245 -> 248        0.16756
     246 -> 247        0.67891
     246 <- 247       -0.15337
 This state for optimization and/or second-order correction.
 Total Energy, E(TD-HF/TD-DFT) =  -3007.28142357
 Copying the excited state density for this state as the 1-particle RhoCI density.

 Excited State   2:      Singlet-A      1.8485 eV  670.73 nm  f=0.0224  <S**2>=0.000
     244 -> 247        0.66983
     245 -> 247        0.16737
     246 -> 247        0.14575

 Excited State   3:      Singlet-A      2.0159 eV  615.04 nm  f=0.0003  <S**2>=0.000
     243 -> 247        0.70664

 Excited State   4:      Singlet-A      2.0751 eV  597.49 nm  f=0.0232  <S**2>=0.000
     242 -> 247        0.55127
     244 -> 247       -0.10794
     245 -> 247        0.38873
     246 -> 248       -0.15970

 Excited State   5:      Singlet-A      2.1017 eV  589.91 nm  f=0.0412  <S**2>=0.000
     242 -> 247       -0.44108
     244 -> 247       -0.12489
     245 -> 247        0.47646
     246 -> 248       -0.21964

 The electronic state is 1-A.
 Alpha  occ. eigenvalues --  -46.28407 -18.82429 -18.81329 -18.77648 -18.76584
 Alpha  occ. eigenvalues --  -18.76259 -18.75056 -14.03370 -14.02983 -14.02003
 Alpha  occ. eigenvalues --  -14.01301 -10.04503 -10.03592 -10.00624  -9.98538
 Alpha  occ. eigenvalues --   -9.97186  -9.96975  -9.96970  -9.96623  -9.96351
 Alpha  occ. eigenvalues --   -9.96341  -9.96320  -9.96169  -9.96089  -9.95061
 Alpha  occ. eigenvalues --   -9.94193  -9.94079  -9.94029  -9.93653  -9.93600
 Alpha  occ. eigenvalues --   -9.93558  -9.93496  -9.93417  -9.93383  -9.93334
 Alpha  occ. eigenvalues --   -9.93208  -9.93194  -9.92903  -9.92833  -9.92819
 Alpha  occ. eigenvalues --   -9.92760  -9.92681  -9.92666  -9.92485  -9.92412
 Alpha  occ. eigenvalues --   -9.92260  -9.92194  -9.92154  -9.92058  -9.91968
 Alpha  occ. eigenvalues --   -9.91700  -9.91568  -9.91485  -9.91421  -9.91316
 Alpha  occ. eigenvalues --   -9.91306  -9.91231  -9.91036  -9.90922  -9.90632
 Alpha  occ. eigenvalues --   -9.90616  -9.90607  -9.90595  -9.90525  -9.90515
 Alpha  occ. eigenvalues --   -9.90316  -2.92884  -1.73306  -1.72758  -1.72605
 Alpha  occ. eigenvalues --   -0.97254  -0.96358  -0.92308  -0.91602  -0.89657
 Alpha  occ. eigenvalues --   -0.88913  -0.87559  -0.86702  -0.85494  -0.84281
 Alpha  occ. eigenvalues --   -0.75839  -0.73182  -0.73007  -0.72548  -0.72245
 Alpha  occ. eigenvalues --   -0.71962  -0.71618  -0.70982  -0.70564  -0.70260
 Alpha  occ. eigenvalues --   -0.69742  -0.69373  -0.67987  -0.67392  -0.67314
 Alpha  occ. eigenvalues --   -0.66338  -0.66062  -0.65178  -0.65073  -0.64557
 Alpha  occ. eigenvalues --   -0.63375  -0.62717  -0.62307  -0.61920  -0.60429
 Alpha  occ. eigenvalues --   -0.59983  -0.59950  -0.59871  -0.59782  -0.58703
 Alpha  occ. eigenvalues --   -0.58124  -0.57312  -0.56566  -0.55459  -0.55267
 Alpha  occ. eigenvalues --   -0.54063  -0.53711  -0.52928  -0.51737  -0.51430
 Alpha  occ. eigenvalues --   -0.51382  -0.50901  -0.50647  -0.50315  -0.49627
 Alpha  occ. eigenvalues --   -0.49514  -0.48820  -0.48419  -0.48043  -0.46430
 Alpha  occ. eigenvalues --   -0.46258  -0.46060  -0.45497  -0.45030  -0.44334
 Alpha  occ. eigenvalues --   -0.43949  -0.43780  -0.43194  -0.42836  -0.42014
 Alpha  occ. eigenvalues --   -0.41871  -0.41466  -0.41442  -0.41223  -0.41136
 Alpha  occ. eigenvalues --   -0.40981  -0.40707  -0.40206  -0.40092  -0.39969
 Alpha  occ. eigenvalues --   -0.39856  -0.39652  -0.39234  -0.39108  -0.39077
 Alpha  occ. eigenvalues --   -0.38994  -0.38620  -0.38492  -0.38317  -0.38179
 Alpha  occ. eigenvalues --   -0.38066  -0.37786  -0.37667  -0.37341  -0.37197
 Alpha  occ. eigenvalues --   -0.36877  -0.36816  -0.36755  -0.36545  -0.36308
 Alpha  occ. eigenvalues --   -0.36185  -0.36001  -0.35990  -0.35658  -0.35263
 Alpha  occ. eigenvalues --   -0.35198  -0.35029  -0.34838  -0.34676  -0.34565
 Alpha  occ. eigenvalues --   -0.34373  -0.34302  -0.34266  -0.34160  -0.33879
 Alpha  occ. eigenvalues --   -0.33693  -0.33646  -0.33576  -0.33517  -0.33354
 Alpha  occ. eigenvalues --   -0.32946  -0.32858  -0.32743  -0.32610  -0.32450
 Alpha  occ. eigenvalues --   -0.32167  -0.32101  -0.32027  -0.31751  -0.31604
 Alpha  occ. eigenvalues --   -0.31422  -0.31170  -0.31068  -0.30815  -0.30695
 Alpha  occ. eigenvalues --   -0.30478  -0.30375  -0.30074  -0.30024  -0.29761
 Alpha  occ. eigenvalues --   -0.29428  -0.29186  -0.29072  -0.28911  -0.28816
 Alpha  occ. eigenvalues --   -0.28541  -0.28248  -0.28043  -0.27607  -0.27463
 Alpha  occ. eigenvalues --   -0.27177  -0.27172  -0.26941  -0.26771  -0.26567
 Alpha  occ. eigenvalues --   -0.26464  -0.26418  -0.26103  -0.25812  -0.25489
 Alpha  occ. eigenvalues --   -0.24640  -0.24467  -0.24210  -0.23899  -0.23644
 Alpha  occ. eigenvalues --   -0.22664  -0.22565  -0.22014  -0.21454  -0.20937
 Alpha  occ. eigenvalues --   -0.20595  -0.19223  -0.19034  -0.18341  -0.17651
 Alpha  occ. eigenvalues --   -0.15861
 Alpha virt. eigenvalues --   -0.11626  -0.07186  -0.05840  -0.04619  -0.04164
 Alpha virt. eigenvalues --   -0.03488  -0.02811  -0.01691  -0.01010   0.00566
 Alpha virt. eigenvalues --    0.00988   0.01434   0.02106   0.02582   0.02891

 Mulliken charges:
               1
     1  Mg   0.701698
     2  C   -0.044325
     3  C   -0.066038
     4  C    0.005739
     5  C   -0.045055
     6  N   -0.236088
     7  C   -0.097612
     8  C    0.020968
     9  C   -0.013888
    10  C    0.042170
    11  C    0.119566
    12  C    0.126398
    13  C    0.164669
    14  C    0.086300
    15  O   -0.200103
    16  O   -0.287766
    17  N   -0.289475
    18  C    0.147680
    19  C   -0.161020
    20  C    0.034532
    21  C    0.149074
    22  C    0.194575
    23  C   -0.071160
    24  O   -0.152668
    25  C    0.115740
    26  N   -0.175063
    27  C   -0.094431
    28  C   -0.001184
    29  C    0.029488
    30  C   -0.008951
    31  C    0.151164
    32  C    0.083460
    33  C    0.075235
    34  N   -0.223125
    35  C    0.060480
    36  C   -0.187653
    37  C    0.091272
    38  C    0.148132
    39  C    0.180897
    40  C   -0.108290
    41  O   -0.096468
    42  C    0.104387
    43  C    0.120445
    44  O   -0.188014
    45  O   -0.270273
    46  C    0.230901
    47  C    0.323581
    48  C   -0.104552
    49  C   -0.228824
    50  C    0.155374
    51  C    0.141386
    52  C    0.091823
    53  C    0.100827
    54  C   -0.087887
    55  C    0.060428
    56  C    0.118909
    57  C    0.104253
    58  C    0.064265
    59  C   -0.107680
    60  C    0.138811
    61  C    0.087942
    62  C    0.063462
    63  C    0.132750
    64  C   -0.092605
    65  C    0.100381
    66  C    0.103711
    67  H   -0.062198
    68  H   -0.082282
    69  H   -0.049081
    70  H   -0.016898
    71  H   -0.032534
    72  H   -0.008633
    73  H   -0.008029
    74  H   -0.005232
    75  H   -0.020991
    76  H    0.000878
    77  H   -0.013344
    78  H   -0.009689
    79  H   -0.028458
    80  H    0.016632
    81  H    0.000490
    82  H    0.024657
    83  H    0.012658
    84  H   -0.010428
    85  H   -0.044123
    86  H   -0.040070
    87  H   -0.004693
    88  H    0.004146
    89  H   -0.008726
    90  H   -0.023907
    91  H   -0.024893
    92  H    0.004435
    93  H   -0.000367
    94  H   -0.009232
    95  H    0.001738
    96  H    0.004041
    97  H   -0.003489
    98  H    0.005153
    99  H    0.011357
   100  H    0.009094
   101  H    0.005951
   102  H    0.011546
   103  H    0.007728
   104  H   -0.041344
   105  H    0.003449
   106  H    0.011110
   107  H   -0.004712
   108  H   -0.036730
   109  H   -0.023701
   110  H   -0.028893
   111  H   -0.022277
   112  H   -0.031874
   113  H   -0.038538
   114  H   -0.036247
   115  H   -0.000405
   116  H   -0.016646
   117  H   -0.014811
   118  H   -0.041275
   119  H   -0.027919
   120  H   -0.035600
   121  H   -0.030154
   122  H   -0.028604
   123  H   -0.028315
   124  H   -0.034564
   125  H   -0.014746
   126  H   -0.014580
   127  H   -0.022825
   128  H   -0.050037
   129  H   -0.052674
   130  H   -0.039996
   131  H   -0.024239
   132  H   -0.025463
   133  H   -0.042353
   134  H   -0.037005
   135  H   -0.028897
   136  H   -0.029972
   137  H   -0.009968
   138  H   -0.005541
   139  H   -0.014431
   140  H   -0.025103
 Sum of Mulliken charges =  -0.00000

 Dipole moment (field-independent basis, Debye):
    X=             -1.2244    Y=              2.4224    Z=             -0.5635  Tot=              2.7721
 Quadrupole moment (field-independent basis, Debye-Ang):
   XX=           -399.8411   YY=           -415.6415   ZZ=           -408.6273
   XY=             12.9588   XZ=              2.7878   YZ=             52.9241

 Normal termination of Gaussian 16 at Sat Apr 30 17:44:49 2022.
