 Gaussian 16, Revision A.03,
 Gaussian 16:  ES64L-G16RevA.03 25-Dec-2016

 -----------------------------------
 #p cam-b3lyp/Def2SVP td=(nstates=5)
 -----------------------------------

 ------------------------------------------------------
 step_801_chromophore_8 TDDFT with cam-b3lyp functional
 ------------------------------------------------------
 Symbolic Z-matrix:
 Charge =  0 Multiplicity = 1

                         Standard orientation:
 ---------------------------------------------------------------------
 Center     Atomic      Atomic             Coordinates (Angstroms)
 Number     Number       Type             X           Y           Z
 ---------------------------------------------------------------------
      1         12           0        5.380180    0.978078    0.079860
      2          6           0        4.063323   -2.268507    0.538926
      3          6           0        5.011639    0.511911   -3.297411
      4          6           0        5.683137    4.286301   -0.273593
      5          6           0        5.064835    1.459225    3.559849
      6          7           0        4.462834   -0.618303   -1.183211
      7          6           0        4.133619   -1.952891   -0.811740
      8          6           0        3.869791   -2.866191   -2.048000
      9          6           0        4.468527   -1.956386   -3.185500
     10          6           0        4.597990   -0.532819   -2.536949
     11          6           0        5.627531   -2.635891   -3.975381
     12          6           0        2.292863   -2.979377   -2.154090
     13          6           0        1.632876   -4.319038   -2.373440
     14          6           0        0.639695   -4.778075   -1.332224
     15          8           0        0.909924   -5.366130   -0.264553
     16          8           0       -0.626085   -4.252596   -1.672040
     17          7           0        5.411050    2.232508   -1.598308
     18          6           0        5.256980    1.864180   -2.851309
     19          6           0        5.371195    3.079524   -3.726675
     20          6           0        5.434410    4.233662   -2.886979
     21          6           0        5.518916    3.663371   -1.506873
     22          6           0        5.497735    3.002335   -5.210752
     23          6           0        5.439861    5.706388   -3.339915
     24          8           0        5.427761    6.046927   -4.518018
     25          6           0        5.505072    6.763093   -2.217743
     26          7           0        5.635625    2.675439    1.493761
     27          6           0        5.643952    3.901421    1.037884
     28          6           0        5.838750    4.870437    2.241516
     29          6           0        5.260579    4.019157    3.408443
     30          6           0        5.313567    2.613653    2.806745
     31          6           0        7.219638    5.468447    2.559876
     32          6           0        3.850506    4.429493    3.974726
     33          6           0        3.673574    5.868875    4.577996
     34          7           0        4.771681   -0.174646    1.707965
     35          6           0        4.708171    0.125278    3.046089
     36          6           0        4.230406   -1.041715    3.798428
     37          6           0        4.039175   -2.017541    2.814065
     38          6           0        4.324827   -1.415571    1.564578
     39          6           0        4.021257   -1.117219    5.245607
     40          6           0        3.701454   -3.400196    2.619615
     41          8           0        3.437759   -4.275788    3.390079
     42          6           0        3.767225   -3.664373    1.121985
     43          6           0        4.731488   -4.798903    0.936401
     44          8           0        5.913616   -4.852233    1.289534
     45          8           0        3.973136   -5.884684    0.482722
     46          6           0        4.740791   -7.099095    0.293343
     47          6           0       -1.536928   -4.423403   -0.574307
     48          6           0       -2.937083   -4.004561   -0.879991
     49          6           0       -3.943314   -3.659890   -0.009764
     50          6           0       -3.826158   -3.849480    1.526564
     51          6           0       -5.280673   -3.061605   -0.595208
     52          6           0       -5.145874   -1.536154   -0.749425
     53          6           0       -5.971939   -0.595426    0.223590
     54          6           0       -7.105162    0.189408   -0.536455
     55          6           0       -6.409761    1.375935   -1.496872
     56          6           0       -8.087128    0.651157    0.446528
     57          6           0       -9.210501    1.513000   -0.239756
     58          6           0      -10.382981    0.685818   -0.867016
     59          6           0      -11.675662    0.958491    0.008092
     60          6           0      -11.617693    0.384791    1.369378
     61          6           0      -12.932789    0.281803   -0.739769
     62          6           0      -14.139158    1.221437   -1.101749
     63          6           0      -15.283582    1.114302   -0.123492
     64          6           0      -15.730662    2.508747    0.453903
     65          6           0      -17.137237    2.978211   -0.018797
     66          6           0      -15.594965    2.585538    1.976152
     67          1           0        4.972776    0.239773   -4.354185
     68          1           0        5.918890    5.349884   -0.204417
     69          1           0        4.747172    1.682611    4.580236
     70          1           0        4.252758   -3.886366   -2.086984
     71          1           0        3.814827   -1.797267   -4.042963
     72          1           0        5.866491   -3.610158   -3.548735
     73          1           0        6.482493   -1.973064   -3.843235
     74          1           0        5.407791   -2.790055   -5.031633
     75          1           0        1.964068   -2.448142   -3.047432
     76          1           0        1.905574   -2.395966   -1.318319
     77          1           0        2.358922   -5.126935   -2.278296
     78          1           0        1.194852   -4.430596   -3.364902
     79          1           0        5.596190    1.970777   -5.548474
     80          1           0        6.274680    3.622395   -5.656613
     81          1           0        4.528984    3.302473   -5.611310
     82          1           0        6.481589    6.745393   -1.734277
     83          1           0        4.723759    6.537025   -1.492490
     84          1           0        5.361633    7.745924   -2.666600
     85          1           0        5.103805    5.675129    2.216089
     86          1           0        6.071699    4.040301    4.136318
     87          1           0        8.032090    4.970030    2.029893
     88          1           0        7.429953    5.563875    3.624805
     89          1           0        7.134208    6.448799    2.091788
     90          1           0        3.593257    3.623826    4.662648
     91          1           0        3.063395    4.376177    3.222489
     92          1           0        3.434607    5.775496    5.637030
     93          1           0        2.919349    6.377274    3.977507
     94          1           0        4.584044    6.458350    4.469011
     95          1           0        4.877445   -0.689272    5.767717
     96          1           0        3.809825   -2.129635    5.589201
     97          1           0        3.124596   -0.549098    5.496738
     98          1           0        2.773290   -4.005824    0.832003
     99          1           0        5.646415   -7.001955   -0.305255
    100          1           0        4.078435   -7.897750   -0.041367
    101          1           0        4.995668   -7.395052    1.311218
    102          1           0       -1.191798   -3.828088    0.270942
    103          1           0       -1.686086   -5.488319   -0.398017
    104          1           0       -3.116460   -3.753421   -1.925961
    105          1           0       -2.785135   -3.971805    1.823990
    106          1           0       -4.457262   -4.715932    1.722507
    107          1           0       -4.314626   -2.958356    1.921637
    108          1           0       -6.060528   -3.354753    0.107885
    109          1           0       -5.509232   -3.524524   -1.555585
    110          1           0       -5.489441   -1.288340   -1.753078
    111          1           0       -4.090811   -1.269063   -0.673511
    112          1           0       -5.313560    0.133482    0.694394
    113          1           0       -6.408897   -1.167066    1.042666
    114          1           0       -7.647695   -0.387329   -1.285044
    115          1           0       -6.618406    2.387166   -1.149406
    116          1           0       -6.793732    1.228692   -2.505909
    117          1           0       -5.333028    1.273869   -1.639869
    118          1           0       -7.626565    1.246618    1.234671
    119          1           0       -8.557434   -0.223455    0.895704
    120          1           0       -8.839186    2.065383   -1.101788
    121          1           0       -9.498777    2.238294    0.520506
    122          1           0      -10.384749   -0.403334   -0.832528
    123          1           0      -10.520934    0.898339   -1.926571
    124          1           0      -11.736308    2.040155    0.124923
    125          1           0      -10.838138   -0.377040    1.403101
    126          1           0      -12.573462   -0.045336    1.668695
    127          1           0      -11.467045    1.227197    2.044528
    128          1           0      -13.285035   -0.576533   -0.167658
    129          1           0      -12.638277   -0.229722   -1.655882
    130          1           0      -14.555384    0.905824   -2.058512
    131          1           0      -13.727027    2.224263   -1.211238
    132          1           0      -15.074402    0.329575    0.603384
    133          1           0      -16.068000    0.797648   -0.810262
    134          1           0      -15.009136    3.250643    0.112208
    135          1           0      -17.889973    2.917430    0.766569
    136          1           0      -17.515634    2.267643   -0.753863
    137          1           0      -17.234620    3.984454   -0.424984
    138          1           0      -14.541186    2.720462    2.218941
    139          1           0      -16.112421    1.706906    2.361880
    140          1           0      -16.191120    3.427606    2.327170
 ---------------------------------------------------------------------

 SCF Done:  E(RCAM-B3LYP) =  -3007.13499118     A.U. after   16 cycles

 Excitation energies and oscillator strengths:

 Excited State   1:      Singlet-A      1.7095 eV  725.25 nm  f=0.3940  <S**2>=0.000
     245 -> 248        0.16557
     246 -> 247        0.68867
     245 <- 248        0.10288
 This state for optimization and/or second-order correction.
 Total Energy, E(TD-HF/TD-DFT) =  -3007.07216682
 Copying the excited state density for this state as the 1-particle RhoCI density.

 Excited State   2:      Singlet-A      2.3073 eV  537.36 nm  f=0.0841  <S**2>=0.000
     245 -> 247        0.62444
     246 -> 248       -0.31624

 Excited State   3:      Singlet-A      3.4631 eV  358.02 nm  f=0.1268  <S**2>=0.000
     241 -> 247       -0.37134
     243 -> 247        0.45855
     245 -> 247       -0.13738
     246 -> 248       -0.32730

 Excited State   4:      Singlet-A      3.5138 eV  352.84 nm  f=0.1627  <S**2>=0.000
     242 -> 247        0.35213
     242 -> 249       -0.14857
     242 -> 251       -0.13722
     243 -> 247        0.41223
     245 -> 247        0.15358
     246 -> 248        0.34254

 Excited State   5:      Singlet-A      3.5758 eV  346.73 nm  f=0.1661  <S**2>=0.000
     241 -> 247       -0.10907
     242 -> 247        0.47814
     242 -> 249       -0.19507
     242 -> 251       -0.18410
     243 -> 247       -0.23813
     245 -> 247       -0.14432
     246 -> 248       -0.29091

 The electronic state is 1-A.
 Alpha  occ. eigenvalues --  -46.90060 -19.25227 -19.24144 -19.20657 -19.19677
 Alpha  occ. eigenvalues --  -19.19627 -19.18022 -14.42142 -14.41944 -14.40748
 Alpha  occ. eigenvalues --  -14.39636 -10.39913 -10.39051 -10.36049 -10.33517
 Alpha  occ. eigenvalues --  -10.31775 -10.31428 -10.31052 -10.31027 -10.30915
 Alpha  occ. eigenvalues --  -10.30735 -10.30603 -10.30465 -10.30166 -10.29145
 Alpha  occ. eigenvalues --  -10.29094 -10.28160 -10.28058 -10.28010 -10.27656
 Alpha  occ. eigenvalues --  -10.27652 -10.27585 -10.27440 -10.27394 -10.27390
 Alpha  occ. eigenvalues --  -10.27276 -10.27153 -10.26999 -10.26849 -10.26841
 Alpha  occ. eigenvalues --  -10.26801 -10.26673 -10.26500 -10.26407 -10.26338
 Alpha  occ. eigenvalues --  -10.26042 -10.26030 -10.25930 -10.25888 -10.25600
 Alpha  occ. eigenvalues --  -10.25404 -10.25303 -10.25189 -10.25086 -10.25014
 Alpha  occ. eigenvalues --  -10.24976 -10.24973 -10.24935 -10.24547 -10.24377
 Alpha  occ. eigenvalues --  -10.24333 -10.24257 -10.24213 -10.24164 -10.24157
 Alpha  occ. eigenvalues --  -10.23864  -3.18431  -1.93331  -1.92862  -1.92743
 Alpha  occ. eigenvalues --   -1.15595  -1.14766  -1.10564  -1.10185  -1.07474
 Alpha  occ. eigenvalues --   -1.06753  -1.05385  -1.04224  -1.03283  -1.01810
 Alpha  occ. eigenvalues --   -0.92860  -0.89961  -0.89804  -0.89342  -0.88998
 Alpha  occ. eigenvalues --   -0.88696  -0.88293  -0.87555  -0.87116  -0.86738
 Alpha  occ. eigenvalues --   -0.86527  -0.85798  -0.84273  -0.83583  -0.83435
 Alpha  occ. eigenvalues --   -0.82405  -0.82254  -0.81232  -0.80899  -0.80378
 Alpha  occ. eigenvalues --   -0.79069  -0.78314  -0.77933  -0.77536  -0.75741
 Alpha  occ. eigenvalues --   -0.75313  -0.75292  -0.75204  -0.75094  -0.73940
 Alpha  occ. eigenvalues --   -0.73136  -0.72250  -0.71462  -0.70250  -0.69917
 Alpha  occ. eigenvalues --   -0.68671  -0.68226  -0.67632  -0.65911  -0.65679
 Alpha  occ. eigenvalues --   -0.65457  -0.65056  -0.64778  -0.64297  -0.63529
 Alpha  occ. eigenvalues --   -0.63435  -0.62742  -0.62260  -0.61713  -0.60072
 Alpha  occ. eigenvalues --   -0.59865  -0.59591  -0.58923  -0.58354  -0.57753
 Alpha  occ. eigenvalues --   -0.57382  -0.57138  -0.56564  -0.55982  -0.55107
 Alpha  occ. eigenvalues --   -0.55021  -0.54414  -0.54245  -0.54199  -0.54105
 Alpha  occ. eigenvalues --   -0.53639  -0.53347  -0.52910  -0.52788  -0.52719
 Alpha  occ. eigenvalues --   -0.52509  -0.52365  -0.52024  -0.51999  -0.51494
 Alpha  occ. eigenvalues --   -0.51432  -0.51412  -0.51187  -0.50820  -0.50511
 Alpha  occ. eigenvalues --   -0.50368  -0.50058  -0.49971  -0.49750  -0.49659
 Alpha  occ. eigenvalues --   -0.49356  -0.49302  -0.48914  -0.48868  -0.48642
 Alpha  occ. eigenvalues --   -0.48442  -0.48255  -0.48198  -0.47865  -0.47371
 Alpha  occ. eigenvalues --   -0.47229  -0.47169  -0.46958  -0.46672  -0.46458
 Alpha  occ. eigenvalues --   -0.46324  -0.46171  -0.46123  -0.46050  -0.45704
 Alpha  occ. eigenvalues --   -0.45442  -0.45336  -0.45298  -0.45203  -0.45057
 Alpha  occ. eigenvalues --   -0.44778  -0.44655  -0.44552  -0.44169  -0.43957
 Alpha  occ. eigenvalues --   -0.43908  -0.43794  -0.43728  -0.43321  -0.43102
 Alpha  occ. eigenvalues --   -0.43061  -0.42737  -0.42693  -0.42467  -0.42047
 Alpha  occ. eigenvalues --   -0.42007  -0.41631  -0.41441  -0.41294  -0.41187
 Alpha  occ. eigenvalues --   -0.40881  -0.40405  -0.40284  -0.40112  -0.39904
 Alpha  occ. eigenvalues --   -0.39611  -0.39263  -0.39145  -0.38452  -0.38316
 Alpha  occ. eigenvalues --   -0.38079  -0.38003  -0.37831  -0.37741  -0.37497
 Alpha  occ. eigenvalues --   -0.37348  -0.37147  -0.37078  -0.36700  -0.36445
 Alpha  occ. eigenvalues --   -0.35601  -0.35129  -0.34997  -0.34578  -0.34272
 Alpha  occ. eigenvalues --   -0.33947  -0.33133  -0.32794  -0.31741  -0.31636
 Alpha  occ. eigenvalues --   -0.30298  -0.30190  -0.29891  -0.28585  -0.24553
 Alpha  occ. eigenvalues --   -0.21132
 Alpha virt. eigenvalues --   -0.08714  -0.01942   0.00651   0.01522   0.02460
 Alpha virt. eigenvalues --    0.03730   0.04969   0.05473   0.06341   0.06533
 Alpha virt. eigenvalues --    0.07813   0.08446   0.08735   0.08928   0.09053

 Mulliken charges:
               1
     1  Mg   0.830502
     2  C   -0.074029
     3  C   -0.087271
     4  C   -0.031360
     5  C   -0.042760
     6  N   -0.306963
     7  C   -0.059361
     8  C   -0.027328
     9  C   -0.067103
    10  C    0.068324
    11  C    0.062420
    12  C    0.073649
    13  C    0.096467
    14  C    0.165039
    15  O   -0.239584
    16  O   -0.351105
    17  N   -0.375361
    18  C    0.160167
    19  C   -0.162819
    20  C   -0.031215
    21  C    0.179246
    22  C    0.135320
    23  C    0.011034
    24  O   -0.191252
    25  C    0.032275
    26  N   -0.243479
    27  C   -0.061037
    28  C   -0.055385
    29  C   -0.031015
    30  C    0.007282
    31  C    0.092481
    32  C    0.031500
    33  C    0.012449
    34  N   -0.312609
    35  C    0.064213
    36  C   -0.180125
    37  C    0.004679
    38  C    0.182803
    39  C    0.123096
    40  C   -0.005459
    41  O   -0.136954
    42  C    0.033747
    43  C    0.208583
    44  O   -0.225375
    45  O   -0.333207
    46  C    0.185853
    47  C    0.286526
    48  C   -0.122465
    49  C   -0.250663
    50  C    0.097746
    51  C    0.083880
    52  C    0.035025
    53  C    0.048395
    54  C   -0.136222
    55  C    0.000816
    56  C    0.064618
    57  C    0.039609
    58  C    0.019413
    59  C   -0.158202
    60  C    0.077954
    61  C    0.034279
    62  C    0.010601
    63  C    0.072983
    64  C   -0.151827
    65  C    0.039879
    66  C    0.048297
    67  H   -0.027986
    68  H   -0.045847
    69  H   -0.016839
    70  H    0.015203
    71  H    0.002024
    72  H    0.016073
    73  H    0.017472
    74  H    0.019250
    75  H    0.010373
    76  H    0.033383
    77  H    0.018507
    78  H    0.025391
    79  H   -0.001177
    80  H    0.045066
    81  H    0.029030
    82  H    0.050758
    83  H    0.039998
    84  H    0.026006
    85  H   -0.008638
    86  H   -0.003064
    87  H    0.021476
    88  H    0.028558
    89  H    0.013507
    90  H    0.003365
    91  H    0.004540
    92  H    0.028574
    93  H    0.022396
    94  H    0.011654
    95  H    0.025762
    96  H    0.033129
    97  H    0.022263
    98  H    0.048404
    99  H    0.033676
   100  H    0.033222
   101  H    0.030592
   102  H    0.035624
   103  H    0.036298
   104  H   -0.006423
   105  H    0.026666
   106  H    0.034447
   107  H    0.016290
   108  H   -0.007091
   109  H    0.008125
   110  H   -0.000791
   111  H    0.008068
   112  H   -0.002430
   113  H   -0.011526
   114  H   -0.006252
   115  H    0.022207
   116  H    0.006600
   117  H    0.009582
   118  H   -0.011356
   119  H   -0.001673
   120  H   -0.004405
   121  H   -0.000895
   122  H   -0.003008
   123  H    0.000898
   124  H   -0.005421
   125  H    0.007926
   126  H    0.009100
   127  H    0.001507
   128  H   -0.020921
   129  H   -0.022132
   130  H   -0.009339
   131  H    0.002325
   132  H    0.001050
   133  H   -0.011688
   134  H   -0.005389
   135  H   -0.004286
   136  H   -0.005660
   137  H    0.014689
   138  H    0.015589
   139  H    0.007794
   140  H    0.000188
 Sum of Mulliken charges =  -0.00000

 Dipole moment (field-independent basis, Debye):
    X=             -1.0834    Y=              3.1003    Z=             -1.0740  Tot=              3.4552
 Quadrupole moment (field-independent basis, Debye-Ang):
   XX=           -397.8792   YY=           -411.7166   ZZ=           -406.7849
   XY=             16.5786   XZ=              0.4826   YZ=             54.6907

 Normal termination of Gaussian 16 at Sat Apr 30 16:49:00 2022.
