 Gaussian 16, Revision A.03,
 Gaussian 16:  ES64L-G16RevA.03 25-Dec-2016

 ---------------------------------
 #p PBE1PBE/Def2SVP td=(nstates=5)
 ---------------------------------

 ----------------------------------------------------
 step_801_chromophore_8 TDDFT with PBE1PBE functional
 ----------------------------------------------------
 Symbolic Z-matrix:
 Charge =  0 Multiplicity = 1

                         Standard orientation:
 ---------------------------------------------------------------------
 Center     Atomic      Atomic             Coordinates (Angstroms)
 Number     Number       Type             X           Y           Z
 ---------------------------------------------------------------------
      1         12           0        5.380180    0.978078    0.079860
      2          6           0        4.063323   -2.268507    0.538926
      3          6           0        5.011639    0.511911   -3.297411
      4          6           0        5.683137    4.286301   -0.273593
      5          6           0        5.064835    1.459225    3.559849
      6          7           0        4.462834   -0.618303   -1.183211
      7          6           0        4.133619   -1.952891   -0.811740
      8          6           0        3.869791   -2.866191   -2.048000
      9          6           0        4.468527   -1.956386   -3.185500
     10          6           0        4.597990   -0.532819   -2.536949
     11          6           0        5.627531   -2.635891   -3.975381
     12          6           0        2.292863   -2.979377   -2.154090
     13          6           0        1.632876   -4.319038   -2.373440
     14          6           0        0.639695   -4.778075   -1.332224
     15          8           0        0.909924   -5.366130   -0.264553
     16          8           0       -0.626085   -4.252596   -1.672040
     17          7           0        5.411050    2.232508   -1.598308
     18          6           0        5.256980    1.864180   -2.851309
     19          6           0        5.371195    3.079524   -3.726675
     20          6           0        5.434410    4.233662   -2.886979
     21          6           0        5.518916    3.663371   -1.506873
     22          6           0        5.497735    3.002335   -5.210752
     23          6           0        5.439861    5.706388   -3.339915
     24          8           0        5.427761    6.046927   -4.518018
     25          6           0        5.505072    6.763093   -2.217743
     26          7           0        5.635625    2.675439    1.493761
     27          6           0        5.643952    3.901421    1.037884
     28          6           0        5.838750    4.870437    2.241516
     29          6           0        5.260579    4.019157    3.408443
     30          6           0        5.313567    2.613653    2.806745
     31          6           0        7.219638    5.468447    2.559876
     32          6           0        3.850506    4.429493    3.974726
     33          6           0        3.673574    5.868875    4.577996
     34          7           0        4.771681   -0.174646    1.707965
     35          6           0        4.708171    0.125278    3.046089
     36          6           0        4.230406   -1.041715    3.798428
     37          6           0        4.039175   -2.017541    2.814065
     38          6           0        4.324827   -1.415571    1.564578
     39          6           0        4.021257   -1.117219    5.245607
     40          6           0        3.701454   -3.400196    2.619615
     41          8           0        3.437759   -4.275788    3.390079
     42          6           0        3.767225   -3.664373    1.121985
     43          6           0        4.731488   -4.798903    0.936401
     44          8           0        5.913616   -4.852233    1.289534
     45          8           0        3.973136   -5.884684    0.482722
     46          6           0        4.740791   -7.099095    0.293343
     47          6           0       -1.536928   -4.423403   -0.574307
     48          6           0       -2.937083   -4.004561   -0.879991
     49          6           0       -3.943314   -3.659890   -0.009764
     50          6           0       -3.826158   -3.849480    1.526564
     51          6           0       -5.280673   -3.061605   -0.595208
     52          6           0       -5.145874   -1.536154   -0.749425
     53          6           0       -5.971939   -0.595426    0.223590
     54          6           0       -7.105162    0.189408   -0.536455
     55          6           0       -6.409761    1.375935   -1.496872
     56          6           0       -8.087128    0.651157    0.446528
     57          6           0       -9.210501    1.513000   -0.239756
     58          6           0      -10.382981    0.685818   -0.867016
     59          6           0      -11.675662    0.958491    0.008092
     60          6           0      -11.617693    0.384791    1.369378
     61          6           0      -12.932789    0.281803   -0.739769
     62          6           0      -14.139158    1.221437   -1.101749
     63          6           0      -15.283582    1.114302   -0.123492
     64          6           0      -15.730662    2.508747    0.453903
     65          6           0      -17.137237    2.978211   -0.018797
     66          6           0      -15.594965    2.585538    1.976152
     67          1           0        4.972776    0.239773   -4.354185
     68          1           0        5.918890    5.349884   -0.204417
     69          1           0        4.747172    1.682611    4.580236
     70          1           0        4.252758   -3.886366   -2.086984
     71          1           0        3.814827   -1.797267   -4.042963
     72          1           0        5.866491   -3.610158   -3.548735
     73          1           0        6.482493   -1.973064   -3.843235
     74          1           0        5.407791   -2.790055   -5.031633
     75          1           0        1.964068   -2.448142   -3.047432
     76          1           0        1.905574   -2.395966   -1.318319
     77          1           0        2.358922   -5.126935   -2.278296
     78          1           0        1.194852   -4.430596   -3.364902
     79          1           0        5.596190    1.970777   -5.548474
     80          1           0        6.274680    3.622395   -5.656613
     81          1           0        4.528984    3.302473   -5.611310
     82          1           0        6.481589    6.745393   -1.734277
     83          1           0        4.723759    6.537025   -1.492490
     84          1           0        5.361633    7.745924   -2.666600
     85          1           0        5.103805    5.675129    2.216089
     86          1           0        6.071699    4.040301    4.136318
     87          1           0        8.032090    4.970030    2.029893
     88          1           0        7.429953    5.563875    3.624805
     89          1           0        7.134208    6.448799    2.091788
     90          1           0        3.593257    3.623826    4.662648
     91          1           0        3.063395    4.376177    3.222489
     92          1           0        3.434607    5.775496    5.637030
     93          1           0        2.919349    6.377274    3.977507
     94          1           0        4.584044    6.458350    4.469011
     95          1           0        4.877445   -0.689272    5.767717
     96          1           0        3.809825   -2.129635    5.589201
     97          1           0        3.124596   -0.549098    5.496738
     98          1           0        2.773290   -4.005824    0.832003
     99          1           0        5.646415   -7.001955   -0.305255
    100          1           0        4.078435   -7.897750   -0.041367
    101          1           0        4.995668   -7.395052    1.311218
    102          1           0       -1.191798   -3.828088    0.270942
    103          1           0       -1.686086   -5.488319   -0.398017
    104          1           0       -3.116460   -3.753421   -1.925961
    105          1           0       -2.785135   -3.971805    1.823990
    106          1           0       -4.457262   -4.715932    1.722507
    107          1           0       -4.314626   -2.958356    1.921637
    108          1           0       -6.060528   -3.354753    0.107885
    109          1           0       -5.509232   -3.524524   -1.555585
    110          1           0       -5.489441   -1.288340   -1.753078
    111          1           0       -4.090811   -1.269063   -0.673511
    112          1           0       -5.313560    0.133482    0.694394
    113          1           0       -6.408897   -1.167066    1.042666
    114          1           0       -7.647695   -0.387329   -1.285044
    115          1           0       -6.618406    2.387166   -1.149406
    116          1           0       -6.793732    1.228692   -2.505909
    117          1           0       -5.333028    1.273869   -1.639869
    118          1           0       -7.626565    1.246618    1.234671
    119          1           0       -8.557434   -0.223455    0.895704
    120          1           0       -8.839186    2.065383   -1.101788
    121          1           0       -9.498777    2.238294    0.520506
    122          1           0      -10.384749   -0.403334   -0.832528
    123          1           0      -10.520934    0.898339   -1.926571
    124          1           0      -11.736308    2.040155    0.124923
    125          1           0      -10.838138   -0.377040    1.403101
    126          1           0      -12.573462   -0.045336    1.668695
    127          1           0      -11.467045    1.227197    2.044528
    128          1           0      -13.285035   -0.576533   -0.167658
    129          1           0      -12.638277   -0.229722   -1.655882
    130          1           0      -14.555384    0.905824   -2.058512
    131          1           0      -13.727027    2.224263   -1.211238
    132          1           0      -15.074402    0.329575    0.603384
    133          1           0      -16.068000    0.797648   -0.810262
    134          1           0      -15.009136    3.250643    0.112208
    135          1           0      -17.889973    2.917430    0.766569
    136          1           0      -17.515634    2.267643   -0.753863
    137          1           0      -17.234620    3.984454   -0.424984
    138          1           0      -14.541186    2.720462    2.218941
    139          1           0      -16.112421    1.706906    2.361880
    140          1           0      -16.191120    3.427606    2.327170
 ---------------------------------------------------------------------

 SCF Done:  E(RPBE1PBE) =  -3005.32364870     A.U. after   15 cycles

 Excitation energies and oscillator strengths:

 Excited State   1:      Singlet-A      1.8663 eV  664.32 nm  f=0.3840  <S**2>=0.000
     245 -> 248        0.15769
     246 -> 247        0.69601
     246 <- 247       -0.11430
 This state for optimization and/or second-order correction.
 Total Energy, E(TD-HF/TD-DFT) =  -3005.25506272
 Copying the excited state density for this state as the 1-particle RhoCI density.

 Excited State   2:      Singlet-A      2.3152 eV  535.52 nm  f=0.0846  <S**2>=0.000
     245 -> 247        0.63621
     246 -> 248       -0.29258

 Excited State   3:      Singlet-A      2.9461 eV  420.84 nm  f=0.0002  <S**2>=0.000
     243 -> 247        0.68333
     243 -> 249        0.13216

 Excited State   4:      Singlet-A      3.0853 eV  401.86 nm  f=0.0000  <S**2>=0.000
     244 -> 247        0.70603

 Excited State   5:      Singlet-A      3.1134 eV  398.23 nm  f=0.0106  <S**2>=0.000
     241 -> 247        0.14440
     242 -> 247        0.65244
     246 -> 248        0.18079

 The electronic state is 1-A.
 Alpha  occ. eigenvalues --  -46.93436 -19.25948 -19.24885 -19.20960 -19.19924
 Alpha  occ. eigenvalues --  -19.19763 -19.18370 -14.41778 -14.41310 -14.40266
 Alpha  occ. eigenvalues --  -14.39342 -10.36990 -10.36148 -10.33096 -10.30776
 Alpha  occ. eigenvalues --  -10.29327 -10.29315 -10.28529 -10.28507 -10.28457
 Alpha  occ. eigenvalues --  -10.28414 -10.28294 -10.28112 -10.27740 -10.27016
 Alpha  occ. eigenvalues --  -10.26600 -10.25927 -10.25892 -10.25594 -10.25469
 Alpha  occ. eigenvalues --  -10.25410 -10.25284 -10.25166 -10.25088 -10.25066
 Alpha  occ. eigenvalues --  -10.25025 -10.24804 -10.24718 -10.24571 -10.24529
 Alpha  occ. eigenvalues --  -10.24274 -10.24107 -10.23971 -10.23775 -10.23734
 Alpha  occ. eigenvalues --  -10.23627 -10.23482 -10.23411 -10.23206 -10.23110
 Alpha  occ. eigenvalues --  -10.23075 -10.23009 -10.22758 -10.22636 -10.22607
 Alpha  occ. eigenvalues --  -10.22529 -10.22514 -10.22421 -10.22253 -10.22075
 Alpha  occ. eigenvalues --  -10.21952 -10.21796 -10.21722 -10.21600 -10.21521
 Alpha  occ. eigenvalues --  -10.21231  -3.15389  -1.88228  -1.87739  -1.87622
 Alpha  occ. eigenvalues --   -1.10421  -1.09593  -1.05457  -1.04808  -1.02346
 Alpha  occ. eigenvalues --   -1.01643  -0.99973  -0.99010  -0.97809  -0.96425
 Alpha  occ. eigenvalues --   -0.87342  -0.84165  -0.83904  -0.83608  -0.83105
 Alpha  occ. eigenvalues --   -0.82944  -0.82408  -0.81921  -0.81234  -0.81106
 Alpha  occ. eigenvalues --   -0.80702  -0.80044  -0.78527  -0.77761  -0.77695
 Alpha  occ. eigenvalues --   -0.76583  -0.76407  -0.75453  -0.75237  -0.74668
 Alpha  occ. eigenvalues --   -0.73277  -0.72618  -0.72206  -0.71793  -0.70118
 Alpha  occ. eigenvalues --   -0.69645  -0.69369  -0.69285  -0.69246  -0.68109
 Alpha  occ. eigenvalues --   -0.67587  -0.66625  -0.65898  -0.64534  -0.64229
 Alpha  occ. eigenvalues --   -0.62945  -0.62721  -0.61984  -0.60403  -0.59989
 Alpha  occ. eigenvalues --   -0.59909  -0.59497  -0.59003  -0.58840  -0.57919
 Alpha  occ. eigenvalues --   -0.57638  -0.56941  -0.56436  -0.56336  -0.54572
 Alpha  occ. eigenvalues --   -0.54396  -0.54218  -0.53502  -0.52862  -0.52307
 Alpha  occ. eigenvalues --   -0.51903  -0.51595  -0.51071  -0.50456  -0.49743
 Alpha  occ. eigenvalues --   -0.49581  -0.48893  -0.48787  -0.48713  -0.48539
 Alpha  occ. eigenvalues --   -0.48114  -0.47789  -0.47613  -0.47311  -0.47200
 Alpha  occ. eigenvalues --   -0.47092  -0.46852  -0.46650  -0.46285  -0.46028
 Alpha  occ. eigenvalues --   -0.46007  -0.45905  -0.45783  -0.45472  -0.45012
 Alpha  occ. eigenvalues --   -0.44914  -0.44585  -0.44482  -0.44280  -0.44163
 Alpha  occ. eigenvalues --   -0.44008  -0.43895  -0.43504  -0.43482  -0.43288
 Alpha  occ. eigenvalues --   -0.43090  -0.42926  -0.42830  -0.42570  -0.42002
 Alpha  occ. eigenvalues --   -0.41851  -0.41790  -0.41650  -0.41356  -0.41078
 Alpha  occ. eigenvalues --   -0.41016  -0.40785  -0.40730  -0.40638  -0.40407
 Alpha  occ. eigenvalues --   -0.40163  -0.40082  -0.39999  -0.39874  -0.39725
 Alpha  occ. eigenvalues --   -0.39582  -0.39382  -0.39316  -0.38831  -0.38773
 Alpha  occ. eigenvalues --   -0.38638  -0.38581  -0.38543  -0.38109  -0.37913
 Alpha  occ. eigenvalues --   -0.37837  -0.37529  -0.37455  -0.37264  -0.36957
 Alpha  occ. eigenvalues --   -0.36767  -0.36370  -0.36297  -0.36102  -0.35999
 Alpha  occ. eigenvalues --   -0.35768  -0.35302  -0.35058  -0.35004  -0.34640
 Alpha  occ. eigenvalues --   -0.34503  -0.34128  -0.34031  -0.33268  -0.33088
 Alpha  occ. eigenvalues --   -0.33058  -0.32807  -0.32737  -0.32565  -0.32391
 Alpha  occ. eigenvalues --   -0.32366  -0.32152  -0.31934  -0.31549  -0.31469
 Alpha  occ. eigenvalues --   -0.30583  -0.30065  -0.29893  -0.29772  -0.29369
 Alpha  occ. eigenvalues --   -0.28866  -0.28497  -0.27807  -0.27303  -0.26333
 Alpha  occ. eigenvalues --   -0.25879  -0.25523  -0.25157  -0.23872  -0.21434
 Alpha  occ. eigenvalues --   -0.18783
 Alpha virt. eigenvalues --   -0.11204  -0.05476  -0.03563  -0.02000  -0.01299
 Alpha virt. eigenvalues --   -0.00883   0.00247   0.01098   0.02086   0.03269
 Alpha virt. eigenvalues --    0.03855   0.04396   0.05002   0.05549   0.05642

 Mulliken charges:
               1
     1  Mg   0.968615
     2  C   -0.080235
     3  C   -0.078615
     4  C   -0.054228
     5  C   -0.031944
     6  N   -0.403974
     7  C    0.014940
     8  C   -0.109040
     9  C   -0.130743
    10  C    0.102648
    11  C    0.004420
    12  C    0.034639
    13  C    0.021717
    14  C    0.219992
    15  O   -0.269710
    16  O   -0.379645
    17  N   -0.487186
    18  C    0.190281
    19  C   -0.194132
    20  C   -0.067061
    21  C    0.205422
    22  C    0.076224
    23  C    0.065426
    24  O   -0.228993
    25  C   -0.045855
    26  N   -0.346478
    27  C   -0.010332
    28  C   -0.130912
    29  C   -0.114044
    30  C    0.050473
    31  C    0.034315
    32  C   -0.029772
    33  C   -0.060377
    34  N   -0.445062
    35  C    0.090813
    36  C   -0.198130
    37  C   -0.047774
    38  C    0.224619
    39  C    0.068665
    40  C    0.098019
    41  O   -0.184945
    42  C   -0.073871
    43  C    0.293703
    44  O   -0.259879
    45  O   -0.364061
    46  C    0.129411
    47  C    0.245448
    48  C   -0.128660
    49  C   -0.294727
    50  C    0.028769
    51  C    0.022361
    52  C   -0.026955
    53  C   -0.006592
    54  C   -0.215055
    55  C   -0.060221
    56  C    0.004890
    57  C   -0.027423
    58  C   -0.028895
    59  C   -0.242574
    60  C    0.019454
    61  C   -0.018884
    62  C   -0.052047
    63  C    0.018078
    64  C   -0.242062
    65  C   -0.020527
    66  C   -0.016784
    67  H    0.003636
    68  H   -0.011294
    69  H    0.012995
    70  H    0.051039
    71  H    0.038634
    72  H    0.043072
    73  H    0.045747
    74  H    0.045558
    75  H    0.043161
    76  H    0.065644
    77  H    0.050571
    78  H    0.056466
    79  H    0.026335
    80  H    0.071024
    81  H    0.057226
    82  H    0.076870
    83  H    0.067145
    84  H    0.053928
    85  H    0.031844
    86  H    0.036200
    87  H    0.049388
    88  H    0.053695
    89  H    0.040761
    90  H    0.036593
    91  H    0.038106
    92  H    0.055967
    93  H    0.049603
    94  H    0.039947
    95  H    0.053142
    96  H    0.061111
    97  H    0.051211
    98  H    0.092906
    99  H    0.055812
   100  H    0.055738
   101  H    0.053761
   102  H    0.061661
   103  H    0.064793
   104  H    0.024153
   105  H    0.052762
   106  H    0.062886
   107  H    0.046164
   108  H    0.025503
   109  H    0.039679
   110  H    0.032113
   111  H    0.040684
   112  H    0.030336
   113  H    0.019803
   114  H    0.032100
   115  H    0.049004
   116  H    0.034071
   117  H    0.037489
   118  H    0.021182
   119  H    0.032870
   120  H    0.029852
   121  H    0.030408
   122  H    0.028372
   123  H    0.032903
   124  H    0.031517
   125  H    0.035449
   126  H    0.037482
   127  H    0.028643
   128  H    0.010887
   129  H    0.009837
   130  H    0.023894
   131  H    0.033780
   132  H    0.031268
   133  H    0.021725
   134  H    0.032931
   135  H    0.023019
   136  H    0.021725
   137  H    0.041602
   138  H    0.043939
   139  H    0.035865
   140  H    0.029172
 Sum of Mulliken charges =  -0.00000

 Dipole moment (field-independent basis, Debye):
    X=             -1.1541    Y=              2.8824    Z=             -0.8329  Tot=              3.2146
 Quadrupole moment (field-independent basis, Debye-Ang):
   XX=           -395.4841   YY=           -408.9144   ZZ=           -402.3191
   XY=             15.3238   XZ=              1.7140   YZ=             55.8841

 Normal termination of Gaussian 16 at Sat Apr 30 17:07:09 2022.
