 Gaussian 16, Revision A.03,
 Gaussian 16:  ES64L-G16RevA.03 25-Dec-2016

 --------------------------------
 #p wB97XD/Def2SVP td=(nstates=5)
 --------------------------------

 ---------------------------------------------------
 step_801_chromophore_8 TDDFT with wB97XD functional
 ---------------------------------------------------
 Symbolic Z-matrix:
 Charge =  0 Multiplicity = 1

                         Standard orientation:
 ---------------------------------------------------------------------
 Center     Atomic      Atomic             Coordinates (Angstroms)
 Number     Number       Type             X           Y           Z
 ---------------------------------------------------------------------
      1         12           0        5.380180    0.978078    0.079860
      2          6           0        4.063323   -2.268507    0.538926
      3          6           0        5.011639    0.511911   -3.297411
      4          6           0        5.683137    4.286301   -0.273593
      5          6           0        5.064835    1.459225    3.559849
      6          7           0        4.462834   -0.618303   -1.183211
      7          6           0        4.133619   -1.952891   -0.811740
      8          6           0        3.869791   -2.866191   -2.048000
      9          6           0        4.468527   -1.956386   -3.185500
     10          6           0        4.597990   -0.532819   -2.536949
     11          6           0        5.627531   -2.635891   -3.975381
     12          6           0        2.292863   -2.979377   -2.154090
     13          6           0        1.632876   -4.319038   -2.373440
     14          6           0        0.639695   -4.778075   -1.332224
     15          8           0        0.909924   -5.366130   -0.264553
     16          8           0       -0.626085   -4.252596   -1.672040
     17          7           0        5.411050    2.232508   -1.598308
     18          6           0        5.256980    1.864180   -2.851309
     19          6           0        5.371195    3.079524   -3.726675
     20          6           0        5.434410    4.233662   -2.886979
     21          6           0        5.518916    3.663371   -1.506873
     22          6           0        5.497735    3.002335   -5.210752
     23          6           0        5.439861    5.706388   -3.339915
     24          8           0        5.427761    6.046927   -4.518018
     25          6           0        5.505072    6.763093   -2.217743
     26          7           0        5.635625    2.675439    1.493761
     27          6           0        5.643952    3.901421    1.037884
     28          6           0        5.838750    4.870437    2.241516
     29          6           0        5.260579    4.019157    3.408443
     30          6           0        5.313567    2.613653    2.806745
     31          6           0        7.219638    5.468447    2.559876
     32          6           0        3.850506    4.429493    3.974726
     33          6           0        3.673574    5.868875    4.577996
     34          7           0        4.771681   -0.174646    1.707965
     35          6           0        4.708171    0.125278    3.046089
     36          6           0        4.230406   -1.041715    3.798428
     37          6           0        4.039175   -2.017541    2.814065
     38          6           0        4.324827   -1.415571    1.564578
     39          6           0        4.021257   -1.117219    5.245607
     40          6           0        3.701454   -3.400196    2.619615
     41          8           0        3.437759   -4.275788    3.390079
     42          6           0        3.767225   -3.664373    1.121985
     43          6           0        4.731488   -4.798903    0.936401
     44          8           0        5.913616   -4.852233    1.289534
     45          8           0        3.973136   -5.884684    0.482722
     46          6           0        4.740791   -7.099095    0.293343
     47          6           0       -1.536928   -4.423403   -0.574307
     48          6           0       -2.937083   -4.004561   -0.879991
     49          6           0       -3.943314   -3.659890   -0.009764
     50          6           0       -3.826158   -3.849480    1.526564
     51          6           0       -5.280673   -3.061605   -0.595208
     52          6           0       -5.145874   -1.536154   -0.749425
     53          6           0       -5.971939   -0.595426    0.223590
     54          6           0       -7.105162    0.189408   -0.536455
     55          6           0       -6.409761    1.375935   -1.496872
     56          6           0       -8.087128    0.651157    0.446528
     57          6           0       -9.210501    1.513000   -0.239756
     58          6           0      -10.382981    0.685818   -0.867016
     59          6           0      -11.675662    0.958491    0.008092
     60          6           0      -11.617693    0.384791    1.369378
     61          6           0      -12.932789    0.281803   -0.739769
     62          6           0      -14.139158    1.221437   -1.101749
     63          6           0      -15.283582    1.114302   -0.123492
     64          6           0      -15.730662    2.508747    0.453903
     65          6           0      -17.137237    2.978211   -0.018797
     66          6           0      -15.594965    2.585538    1.976152
     67          1           0        4.972776    0.239773   -4.354185
     68          1           0        5.918890    5.349884   -0.204417
     69          1           0        4.747172    1.682611    4.580236
     70          1           0        4.252758   -3.886366   -2.086984
     71          1           0        3.814827   -1.797267   -4.042963
     72          1           0        5.866491   -3.610158   -3.548735
     73          1           0        6.482493   -1.973064   -3.843235
     74          1           0        5.407791   -2.790055   -5.031633
     75          1           0        1.964068   -2.448142   -3.047432
     76          1           0        1.905574   -2.395966   -1.318319
     77          1           0        2.358922   -5.126935   -2.278296
     78          1           0        1.194852   -4.430596   -3.364902
     79          1           0        5.596190    1.970777   -5.548474
     80          1           0        6.274680    3.622395   -5.656613
     81          1           0        4.528984    3.302473   -5.611310
     82          1           0        6.481589    6.745393   -1.734277
     83          1           0        4.723759    6.537025   -1.492490
     84          1           0        5.361633    7.745924   -2.666600
     85          1           0        5.103805    5.675129    2.216089
     86          1           0        6.071699    4.040301    4.136318
     87          1           0        8.032090    4.970030    2.029893
     88          1           0        7.429953    5.563875    3.624805
     89          1           0        7.134208    6.448799    2.091788
     90          1           0        3.593257    3.623826    4.662648
     91          1           0        3.063395    4.376177    3.222489
     92          1           0        3.434607    5.775496    5.637030
     93          1           0        2.919349    6.377274    3.977507
     94          1           0        4.584044    6.458350    4.469011
     95          1           0        4.877445   -0.689272    5.767717
     96          1           0        3.809825   -2.129635    5.589201
     97          1           0        3.124596   -0.549098    5.496738
     98          1           0        2.773290   -4.005824    0.832003
     99          1           0        5.646415   -7.001955   -0.305255
    100          1           0        4.078435   -7.897750   -0.041367
    101          1           0        4.995668   -7.395052    1.311218
    102          1           0       -1.191798   -3.828088    0.270942
    103          1           0       -1.686086   -5.488319   -0.398017
    104          1           0       -3.116460   -3.753421   -1.925961
    105          1           0       -2.785135   -3.971805    1.823990
    106          1           0       -4.457262   -4.715932    1.722507
    107          1           0       -4.314626   -2.958356    1.921637
    108          1           0       -6.060528   -3.354753    0.107885
    109          1           0       -5.509232   -3.524524   -1.555585
    110          1           0       -5.489441   -1.288340   -1.753078
    111          1           0       -4.090811   -1.269063   -0.673511
    112          1           0       -5.313560    0.133482    0.694394
    113          1           0       -6.408897   -1.167066    1.042666
    114          1           0       -7.647695   -0.387329   -1.285044
    115          1           0       -6.618406    2.387166   -1.149406
    116          1           0       -6.793732    1.228692   -2.505909
    117          1           0       -5.333028    1.273869   -1.639869
    118          1           0       -7.626565    1.246618    1.234671
    119          1           0       -8.557434   -0.223455    0.895704
    120          1           0       -8.839186    2.065383   -1.101788
    121          1           0       -9.498777    2.238294    0.520506
    122          1           0      -10.384749   -0.403334   -0.832528
    123          1           0      -10.520934    0.898339   -1.926571
    124          1           0      -11.736308    2.040155    0.124923
    125          1           0      -10.838138   -0.377040    1.403101
    126          1           0      -12.573462   -0.045336    1.668695
    127          1           0      -11.467045    1.227197    2.044528
    128          1           0      -13.285035   -0.576533   -0.167658
    129          1           0      -12.638277   -0.229722   -1.655882
    130          1           0      -14.555384    0.905824   -2.058512
    131          1           0      -13.727027    2.224263   -1.211238
    132          1           0      -15.074402    0.329575    0.603384
    133          1           0      -16.068000    0.797648   -0.810262
    134          1           0      -15.009136    3.250643    0.112208
    135          1           0      -17.889973    2.917430    0.766569
    136          1           0      -17.515634    2.267643   -0.753863
    137          1           0      -17.234620    3.984454   -0.424984
    138          1           0      -14.541186    2.720462    2.218941
    139          1           0      -16.112421    1.706906    2.361880
    140          1           0      -16.191120    3.427606    2.327170
 ---------------------------------------------------------------------

 SCF Done:  E(RwB97XD) =  -3007.83281774     A.U. after   19 cycles

 Excitation energies and oscillator strengths:

 Excited State   1:      Singlet-A      1.6546 eV  749.34 nm  f=0.3924  <S**2>=0.000
     245 -> 248        0.17072
     246 -> 247        0.68641
     245 <- 248        0.11169
 This state for optimization and/or second-order correction.
 Total Energy, E(TD-HF/TD-DFT) =  -3007.77201315
 Copying the excited state density for this state as the 1-particle RhoCI density.

 Excited State   2:      Singlet-A      2.2563 eV  549.49 nm  f=0.0819  <S**2>=0.000
     245 -> 247        0.62266
     246 -> 248       -0.31789

 Excited State   3:      Singlet-A      3.4950 eV  354.75 nm  f=0.1718  <S**2>=0.000
     241 -> 247        0.42751
     242 -> 247        0.15207
     243 -> 247       -0.34192
     245 -> 247        0.15300
     246 -> 248        0.36172

 Excited State   4:      Singlet-A      3.5468 eV  349.56 nm  f=0.2062  <S**2>=0.000
     242 -> 249       -0.10065
     242 -> 250        0.10085
     243 -> 247        0.53146
     245 -> 247        0.16888
     246 -> 248        0.36137

 Excited State   5:      Singlet-A      3.6206 eV  342.44 nm  f=0.1368  <S**2>=0.000
     242 -> 247        0.54026
     242 -> 249       -0.22863
     242 -> 250        0.19930
     245 -> 247       -0.12686
     246 -> 248       -0.23915

 The electronic state is 1-A.
 Alpha  occ. eigenvalues --  -46.96401 -19.30460 -19.29360 -19.25578 -19.24724
 Alpha  occ. eigenvalues --  -19.24572 -19.23017 -14.46754 -14.46525 -14.45373
 Alpha  occ. eigenvalues --  -14.44202 -10.43726 -10.42910 -10.40060 -10.37475
 Alpha  occ. eigenvalues --  -10.35903 -10.35462 -10.35105 -10.34962 -10.34905
 Alpha  occ. eigenvalues --  -10.34756 -10.34586 -10.34189 -10.34172 -10.33293
 Alpha  occ. eigenvalues --  -10.33222 -10.32168 -10.32122 -10.32102 -10.31735
 Alpha  occ. eigenvalues --  -10.31702 -10.31487 -10.31474 -10.31457 -10.31354
 Alpha  occ. eigenvalues --  -10.31346 -10.31098 -10.31009 -10.30912 -10.30883
 Alpha  occ. eigenvalues --  -10.30869 -10.30543 -10.30366 -10.30310 -10.30165
 Alpha  occ. eigenvalues --  -10.30019 -10.29854 -10.29836 -10.29823 -10.29439
 Alpha  occ. eigenvalues --  -10.29346 -10.29271 -10.29120 -10.29008 -10.28953
 Alpha  occ. eigenvalues --  -10.28894 -10.28876 -10.28837 -10.28456 -10.28377
 Alpha  occ. eigenvalues --  -10.28277 -10.28146 -10.28071 -10.28019 -10.27953
 Alpha  occ. eigenvalues --  -10.27670  -3.22240  -1.95824  -1.95334  -1.95213
 Alpha  occ. eigenvalues --   -1.17756  -1.16925  -1.12762  -1.12432  -1.09655
 Alpha  occ. eigenvalues --   -1.08947  -1.07390  -1.06229  -1.05341  -1.03824
 Alpha  occ. eigenvalues --   -0.94829  -0.91780  -0.91571  -0.91253  -0.90769
 Alpha  occ. eigenvalues --   -0.90589  -0.90069  -0.89487  -0.88891  -0.88686
 Alpha  occ. eigenvalues --   -0.88495  -0.87684  -0.86184  -0.85416  -0.85305
 Alpha  occ. eigenvalues --   -0.84270  -0.84124  -0.83155  -0.82842  -0.82276
 Alpha  occ. eigenvalues --   -0.80910  -0.80227  -0.79867  -0.79448  -0.77672
 Alpha  occ. eigenvalues --   -0.77273  -0.77081  -0.76980  -0.76925  -0.75766
 Alpha  occ. eigenvalues --   -0.75099  -0.74188  -0.73445  -0.72145  -0.71819
 Alpha  occ. eigenvalues --   -0.70557  -0.70204  -0.69663  -0.67868  -0.67538
 Alpha  occ. eigenvalues --   -0.67421  -0.67032  -0.66630  -0.66296  -0.65382
 Alpha  occ. eigenvalues --   -0.65318  -0.64572  -0.64084  -0.63700  -0.62045
 Alpha  occ. eigenvalues --   -0.61824  -0.61601  -0.60895  -0.60296  -0.59701
 Alpha  occ. eigenvalues --   -0.59353  -0.59024  -0.58579  -0.57873  -0.57082
 Alpha  occ. eigenvalues --   -0.56959  -0.56326  -0.56162  -0.56037  -0.56020
 Alpha  occ. eigenvalues --   -0.55519  -0.55205  -0.54866  -0.54696  -0.54622
 Alpha  occ. eigenvalues --   -0.54401  -0.54229  -0.53974  -0.53946  -0.53399
 Alpha  occ. eigenvalues --   -0.53359  -0.53264  -0.53098  -0.52738  -0.52381
 Alpha  occ. eigenvalues --   -0.52273  -0.51969  -0.51837  -0.51723  -0.51615
 Alpha  occ. eigenvalues --   -0.51279  -0.51199  -0.50830  -0.50780  -0.50531
 Alpha  occ. eigenvalues --   -0.50351  -0.50158  -0.50081  -0.49774  -0.49311
 Alpha  occ. eigenvalues --   -0.49178  -0.49040  -0.48871  -0.48583  -0.48318
 Alpha  occ. eigenvalues --   -0.48250  -0.48122  -0.47982  -0.47898  -0.47614
 Alpha  occ. eigenvalues --   -0.47354  -0.47215  -0.47153  -0.47113  -0.46926
 Alpha  occ. eigenvalues --   -0.46670  -0.46609  -0.46495  -0.46021  -0.45870
 Alpha  occ. eigenvalues --   -0.45747  -0.45709  -0.45681  -0.45225  -0.45071
 Alpha  occ. eigenvalues --   -0.44955  -0.44710  -0.44607  -0.44460  -0.43949
 Alpha  occ. eigenvalues --   -0.43885  -0.43481  -0.43344  -0.43184  -0.43080
 Alpha  occ. eigenvalues --   -0.42787  -0.42316  -0.42132  -0.42013  -0.41750
 Alpha  occ. eigenvalues --   -0.41506  -0.41112  -0.41098  -0.40291  -0.40134
 Alpha  occ. eigenvalues --   -0.39993  -0.39818  -0.39749  -0.39579  -0.39382
 Alpha  occ. eigenvalues --   -0.39342  -0.39150  -0.38958  -0.38537  -0.38423
 Alpha  occ. eigenvalues --   -0.37598  -0.36964  -0.36842  -0.36573  -0.36278
 Alpha  occ. eigenvalues --   -0.35862  -0.35311  -0.34632  -0.33936  -0.33615
 Alpha  occ. eigenvalues --   -0.32496  -0.32144  -0.32053  -0.30600  -0.26486
 Alpha  occ. eigenvalues --   -0.22945
 Alpha virt. eigenvalues --   -0.07054  -0.00041   0.02716   0.04541   0.04777
 Alpha virt. eigenvalues --    0.05970   0.07127   0.07847   0.08831   0.09403
 Alpha virt. eigenvalues --    0.10612   0.11186   0.11653   0.12278   0.12314

 Mulliken charges:
               1
     1  Mg   0.962734
     2  C   -0.086407
     3  C   -0.098762
     4  C   -0.054512
     5  C   -0.046313
     6  N   -0.375165
     7  C   -0.015350
     8  C   -0.079912
     9  C   -0.108588
    10  C    0.091069
    11  C    0.015603
    12  C    0.039249
    13  C    0.040175
    14  C    0.211061
    15  O   -0.266767
    16  O   -0.380238
    17  N   -0.456225
    18  C    0.182000
    19  C   -0.181652
    20  C   -0.066683
    21  C    0.201804
    22  C    0.086161
    23  C    0.059352
    24  O   -0.222592
    25  C   -0.029617
    26  N   -0.311822
    27  C   -0.030283
    28  C   -0.104008
    29  C   -0.081522
    30  C    0.031618
    31  C    0.043305
    32  C   -0.014478
    33  C   -0.044879
    34  N   -0.404065
    35  C    0.077318
    36  C   -0.191847
    37  C   -0.044600
    38  C    0.210737
    39  C    0.076414
    40  C    0.078633
    41  O   -0.175976
    42  C   -0.027943
    43  C    0.270800
    44  O   -0.254928
    45  O   -0.362591
    46  C    0.143620
    47  C    0.260202
    48  C   -0.140490
    49  C   -0.279797
    50  C    0.046999
    51  C    0.037811
    52  C   -0.011270
    53  C    0.008513
    54  C   -0.185632
    55  C   -0.050298
    56  C    0.021819
    57  C   -0.007407
    58  C   -0.016515
    59  C   -0.212664
    60  C    0.031225
    61  C   -0.002640
    62  C   -0.034729
    63  C    0.031563
    64  C   -0.213519
    65  C   -0.007865
    66  C   -0.002284
    67  H   -0.003249
    68  H   -0.023114
    69  H    0.007541
    70  H    0.038547
    71  H    0.026662
    72  H    0.037700
    73  H    0.038369
    74  H    0.041236
    75  H    0.035386
    76  H    0.057124
    77  H    0.043689
    78  H    0.052598
    79  H    0.021499
    80  H    0.068842
    81  H    0.053415
    82  H    0.071564
    83  H    0.060162
    84  H    0.053106
    85  H    0.018059
    86  H    0.023794
    87  H    0.044196
    88  H    0.049305
    89  H    0.034678
    90  H    0.027026
    91  H    0.029849
    92  H    0.051386
    93  H    0.044078
    94  H    0.031884
    95  H    0.047547
    96  H    0.058195
    97  H    0.045419
    98  H    0.076634
    99  H    0.051691
   100  H    0.052647
   101  H    0.048995
   102  H    0.054613
   103  H    0.058737
   104  H    0.021002
   105  H    0.047964
   106  H    0.056830
   107  H    0.037944
   108  H    0.017304
   109  H    0.034100
   110  H    0.022968
   111  H    0.031584
   112  H    0.022226
   113  H    0.009797
   114  H    0.017813
   115  H    0.042813
   116  H    0.028168
   117  H    0.031685
   118  H    0.013736
   119  H    0.019513
   120  H    0.019995
   121  H    0.022398
   122  H    0.016632
   123  H    0.025659
   124  H    0.017991
   125  H    0.027483
   126  H    0.029493
   127  H    0.023499
   128  H    0.000267
   129  H    0.001975
   130  H    0.017383
   131  H    0.023405
   132  H    0.021513
   133  H    0.012237
   134  H    0.020323
   135  H    0.016500
   136  H    0.014481
   137  H    0.037075
   138  H    0.038163
   139  H    0.028591
   140  H    0.022728
 Sum of Mulliken charges =  -0.00000

 Dipole moment (field-independent basis, Debye):
    X=             -1.0333    Y=              3.2335    Z=             -1.1433  Tot=              3.5820
 Quadrupole moment (field-independent basis, Debye-Ang):
   XX=           -393.9777   YY=           -407.4653   ZZ=           -402.2214
   XY=             17.0443   XZ=             -0.1997   YZ=             55.2577

 Normal termination of Gaussian 16 at Sat Apr 30 17:32:02 2022.
