 Gaussian 16, Revision A.03,
 Gaussian 16:  ES64L-G16RevA.03 25-Dec-2016

 --------------------
 #p ZINDO=(nstates=5)
 --------------------

 ----------------------------
 step_801_chromophore_8 ZINDO
 ----------------------------
 Symbolic Z-matrix:
 Charge =  0 Multiplicity = 1

                         Standard orientation:
 ---------------------------------------------------------------------
 Center     Atomic      Atomic             Coordinates (Angstroms)
 Number     Number       Type             X           Y           Z
 ---------------------------------------------------------------------
      1         12           0        5.380180    0.978078    0.079860
      2          6           0        4.063323   -2.268507    0.538926
      3          6           0        5.011639    0.511911   -3.297411
      4          6           0        5.683137    4.286301   -0.273593
      5          6           0        5.064835    1.459225    3.559849
      6          7           0        4.462834   -0.618303   -1.183211
      7          6           0        4.133619   -1.952891   -0.811740
      8          6           0        3.869791   -2.866191   -2.048000
      9          6           0        4.468527   -1.956386   -3.185500
     10          6           0        4.597990   -0.532819   -2.536949
     11          6           0        5.627531   -2.635891   -3.975381
     12          6           0        2.292863   -2.979377   -2.154090
     13          6           0        1.632876   -4.319038   -2.373440
     14          6           0        0.639695   -4.778075   -1.332224
     15          8           0        0.909924   -5.366130   -0.264553
     16          8           0       -0.626085   -4.252596   -1.672040
     17          7           0        5.411050    2.232508   -1.598308
     18          6           0        5.256980    1.864180   -2.851309
     19          6           0        5.371195    3.079524   -3.726675
     20          6           0        5.434410    4.233662   -2.886979
     21          6           0        5.518916    3.663371   -1.506873
     22          6           0        5.497735    3.002335   -5.210752
     23          6           0        5.439861    5.706388   -3.339915
     24          8           0        5.427761    6.046927   -4.518018
     25          6           0        5.505072    6.763093   -2.217743
     26          7           0        5.635625    2.675439    1.493761
     27          6           0        5.643952    3.901421    1.037884
     28          6           0        5.838750    4.870437    2.241516
     29          6           0        5.260579    4.019157    3.408443
     30          6           0        5.313567    2.613653    2.806745
     31          6           0        7.219638    5.468447    2.559876
     32          6           0        3.850506    4.429493    3.974726
     33          6           0        3.673574    5.868875    4.577996
     34          7           0        4.771681   -0.174646    1.707965
     35          6           0        4.708171    0.125278    3.046089
     36          6           0        4.230406   -1.041715    3.798428
     37          6           0        4.039175   -2.017541    2.814065
     38          6           0        4.324827   -1.415571    1.564578
     39          6           0        4.021257   -1.117219    5.245607
     40          6           0        3.701454   -3.400196    2.619615
     41          8           0        3.437759   -4.275788    3.390079
     42          6           0        3.767225   -3.664373    1.121985
     43          6           0        4.731488   -4.798903    0.936401
     44          8           0        5.913616   -4.852233    1.289534
     45          8           0        3.973136   -5.884684    0.482722
     46          6           0        4.740791   -7.099095    0.293343
     47          6           0       -1.536928   -4.423403   -0.574307
     48          6           0       -2.937083   -4.004561   -0.879991
     49          6           0       -3.943314   -3.659890   -0.009764
     50          6           0       -3.826158   -3.849480    1.526564
     51          6           0       -5.280673   -3.061605   -0.595208
     52          6           0       -5.145874   -1.536154   -0.749425
     53          6           0       -5.971939   -0.595426    0.223590
     54          6           0       -7.105162    0.189408   -0.536455
     55          6           0       -6.409761    1.375935   -1.496872
     56          6           0       -8.087128    0.651157    0.446528
     57          6           0       -9.210501    1.513000   -0.239756
     58          6           0      -10.382981    0.685818   -0.867016
     59          6           0      -11.675662    0.958491    0.008092
     60          6           0      -11.617693    0.384791    1.369378
     61          6           0      -12.932789    0.281803   -0.739769
     62          6           0      -14.139158    1.221437   -1.101749
     63          6           0      -15.283582    1.114302   -0.123492
     64          6           0      -15.730662    2.508747    0.453903
     65          6           0      -17.137237    2.978211   -0.018797
     66          6           0      -15.594965    2.585538    1.976152
     67          1           0        4.972776    0.239773   -4.354185
     68          1           0        5.918890    5.349884   -0.204417
     69          1           0        4.747172    1.682611    4.580236
     70          1           0        4.252758   -3.886366   -2.086984
     71          1           0        3.814827   -1.797267   -4.042963
     72          1           0        5.866491   -3.610158   -3.548735
     73          1           0        6.482493   -1.973064   -3.843235
     74          1           0        5.407791   -2.790055   -5.031633
     75          1           0        1.964068   -2.448142   -3.047432
     76          1           0        1.905574   -2.395966   -1.318319
     77          1           0        2.358922   -5.126935   -2.278296
     78          1           0        1.194852   -4.430596   -3.364902
     79          1           0        5.596190    1.970777   -5.548474
     80          1           0        6.274680    3.622395   -5.656613
     81          1           0        4.528984    3.302473   -5.611310
     82          1           0        6.481589    6.745393   -1.734277
     83          1           0        4.723759    6.537025   -1.492490
     84          1           0        5.361633    7.745924   -2.666600
     85          1           0        5.103805    5.675129    2.216089
     86          1           0        6.071699    4.040301    4.136318
     87          1           0        8.032090    4.970030    2.029893
     88          1           0        7.429953    5.563875    3.624805
     89          1           0        7.134208    6.448799    2.091788
     90          1           0        3.593257    3.623826    4.662648
     91          1           0        3.063395    4.376177    3.222489
     92          1           0        3.434607    5.775496    5.637030
     93          1           0        2.919349    6.377274    3.977507
     94          1           0        4.584044    6.458350    4.469011
     95          1           0        4.877445   -0.689272    5.767717
     96          1           0        3.809825   -2.129635    5.589201
     97          1           0        3.124596   -0.549098    5.496738
     98          1           0        2.773290   -4.005824    0.832003
     99          1           0        5.646415   -7.001955   -0.305255
    100          1           0        4.078435   -7.897750   -0.041367
    101          1           0        4.995668   -7.395052    1.311218
    102          1           0       -1.191798   -3.828088    0.270942
    103          1           0       -1.686086   -5.488319   -0.398017
    104          1           0       -3.116460   -3.753421   -1.925961
    105          1           0       -2.785135   -3.971805    1.823990
    106          1           0       -4.457262   -4.715932    1.722507
    107          1           0       -4.314626   -2.958356    1.921637
    108          1           0       -6.060528   -3.354753    0.107885
    109          1           0       -5.509232   -3.524524   -1.555585
    110          1           0       -5.489441   -1.288340   -1.753078
    111          1           0       -4.090811   -1.269063   -0.673511
    112          1           0       -5.313560    0.133482    0.694394
    113          1           0       -6.408897   -1.167066    1.042666
    114          1           0       -7.647695   -0.387329   -1.285044
    115          1           0       -6.618406    2.387166   -1.149406
    116          1           0       -6.793732    1.228692   -2.505909
    117          1           0       -5.333028    1.273869   -1.639869
    118          1           0       -7.626565    1.246618    1.234671
    119          1           0       -8.557434   -0.223455    0.895704
    120          1           0       -8.839186    2.065383   -1.101788
    121          1           0       -9.498777    2.238294    0.520506
    122          1           0      -10.384749   -0.403334   -0.832528
    123          1           0      -10.520934    0.898339   -1.926571
    124          1           0      -11.736308    2.040155    0.124923
    125          1           0      -10.838138   -0.377040    1.403101
    126          1           0      -12.573462   -0.045336    1.668695
    127          1           0      -11.467045    1.227197    2.044528
    128          1           0      -13.285035   -0.576533   -0.167658
    129          1           0      -12.638277   -0.229722   -1.655882
    130          1           0      -14.555384    0.905824   -2.058512
    131          1           0      -13.727027    2.224263   -1.211238
    132          1           0      -15.074402    0.329575    0.603384
    133          1           0      -16.068000    0.797648   -0.810262
    134          1           0      -15.009136    3.250643    0.112208
    135          1           0      -17.889973    2.917430    0.766569
    136          1           0      -17.515634    2.267643   -0.753863
    137          1           0      -17.234620    3.984454   -0.424984
    138          1           0      -14.541186    2.720462    2.218941
    139          1           0      -16.112421    1.706906    2.361880
    140          1           0      -16.191120    3.427606    2.327170
 ---------------------------------------------------------------------

 SCF Done:  E(RZINDO/S) =  -474.127580355     A.U. after   20 cycles

 Excitation energies and oscillator strengths:

 Excited State   1:      Singlet-A      1.2604 eV  983.72 nm  f=0.6123  <S**2>=0.000
     175 ->178         0.17827
     176 ->177         0.66538
 This state for optimization and/or second-order correction.
 Total Energy, E(CIS/TDA) =  -474.081263071
 Copying the excited state density for this state as the 1-particle RhoCI density.

 Excited State   2:      Singlet-A      1.9650 eV  630.97 nm  f=0.0102  <S**2>=0.000
     175 ->177         0.50918
     176 ->178        -0.46176

 Excited State   3:      Singlet-A      2.9357 eV  422.34 nm  f=0.0035  <S**2>=0.000
     176 ->179         0.19600
     176 ->180         0.65871
     176 ->181        -0.12734

 Excited State   4:      Singlet-A      2.9652 eV  418.12 nm  f=0.0010  <S**2>=0.000
     170 ->177         0.30683
     170 ->179         0.31946
     170 ->182         0.34653
     170 ->185         0.19349
     170 ->187         0.17027
     170 ->203        -0.13882

 Excited State   5:      Singlet-A      3.0030 eV  412.87 nm  f=0.6789  <S**2>=0.000
     175 ->177         0.33059
     176 ->178         0.43598
     176 ->179         0.35859
     176 ->180        -0.13614

 The electronic state is 1-A.
 Alpha  occ. eigenvalues --   -1.85042  -1.82159  -1.78638  -1.72947  -1.71676
 Alpha  occ. eigenvalues --   -1.69777  -1.64931  -1.60104  -1.59749  -1.57882
 Alpha  occ. eigenvalues --   -1.54567  -1.50758  -1.47997  -1.47856  -1.46538
 Alpha  occ. eigenvalues --   -1.43712  -1.43341  -1.40100  -1.38287  -1.37940
 Alpha  occ. eigenvalues --   -1.35652  -1.34553  -1.33147  -1.32214  -1.29723
 Alpha  occ. eigenvalues --   -1.27527  -1.24258  -1.23100  -1.20016  -1.18398
 Alpha  occ. eigenvalues --   -1.17601  -1.16292  -1.15178  -1.15006  -1.13934
 Alpha  occ. eigenvalues --   -1.13701  -1.10545  -1.10081  -1.05006  -1.02710
 Alpha  occ. eigenvalues --   -1.01904  -1.00875  -0.99514  -0.97857  -0.96744
 Alpha  occ. eigenvalues --   -0.95064  -0.94127  -0.93217  -0.92364  -0.91197
 Alpha  occ. eigenvalues --   -0.90883  -0.90561  -0.88023  -0.87298  -0.86635
 Alpha  occ. eigenvalues --   -0.86340  -0.84796  -0.83172  -0.82419  -0.80689
 Alpha  occ. eigenvalues --   -0.78640  -0.77998  -0.76786  -0.76526  -0.76135
 Alpha  occ. eigenvalues --   -0.75671  -0.75136  -0.74116  -0.73391  -0.73034
 Alpha  occ. eigenvalues --   -0.72741  -0.72641  -0.71926  -0.71571  -0.71022
 Alpha  occ. eigenvalues --   -0.70306  -0.69428  -0.68989  -0.68640  -0.68267
 Alpha  occ. eigenvalues --   -0.67831  -0.67347  -0.66457  -0.65845  -0.65294
 Alpha  occ. eigenvalues --   -0.65113  -0.64981  -0.64628  -0.64070  -0.63814
 Alpha  occ. eigenvalues --   -0.63322  -0.62858  -0.62384  -0.62290  -0.62111
 Alpha  occ. eigenvalues --   -0.61590  -0.61395  -0.61026  -0.60071  -0.59739
 Alpha  occ. eigenvalues --   -0.59264  -0.58920  -0.58846  -0.58019  -0.57854
 Alpha  occ. eigenvalues --   -0.57808  -0.57437  -0.57263  -0.57189  -0.56989
 Alpha  occ. eigenvalues --   -0.56742  -0.56288  -0.55499  -0.55269  -0.54921
 Alpha  occ. eigenvalues --   -0.54531  -0.54228  -0.53792  -0.53379  -0.52997
 Alpha  occ. eigenvalues --   -0.52689  -0.52533  -0.52340  -0.51827  -0.51393
 Alpha  occ. eigenvalues --   -0.51285  -0.50992  -0.50262  -0.50079  -0.49957
 Alpha  occ. eigenvalues --   -0.49810  -0.49675  -0.49304  -0.49019  -0.48874
 Alpha  occ. eigenvalues --   -0.48765  -0.48439  -0.47949  -0.47833  -0.47580
 Alpha  occ. eigenvalues --   -0.47308  -0.47102  -0.46963  -0.46872  -0.46466
 Alpha  occ. eigenvalues --   -0.46224  -0.46061  -0.45928  -0.45799  -0.45497
 Alpha  occ. eigenvalues --   -0.45062  -0.44965  -0.44900  -0.44558  -0.44403
 Alpha  occ. eigenvalues --   -0.43388  -0.43121  -0.42631  -0.42572  -0.42282
 Alpha  occ. eigenvalues --   -0.41631  -0.40965  -0.40589  -0.39361  -0.39008
 Alpha  occ. eigenvalues --   -0.38209  -0.37434  -0.36599  -0.35081  -0.33833
 Alpha  occ. eigenvalues --   -0.33316  -0.33173  -0.32345  -0.30812  -0.27194
 Alpha  occ. eigenvalues --   -0.21696
 Alpha virt. eigenvalues --   -0.08431  -0.02354  -0.00370   0.00715   0.00823
 Alpha virt. eigenvalues --    0.01347   0.02612   0.02857   0.04949   0.05069
 Alpha virt. eigenvalues --    0.06132   0.06350   0.07499   0.07846   0.08071

 Mulliken charges:
               1
     1  Mg   0.438474
     2  C   -0.034761
     3  C   -0.094266
     4  C   -0.071218
     5  C   -0.079779
     6  N   -0.315303
     7  C    0.109980
     8  C    0.003892
     9  C   -0.012055
    10  C    0.147774
    11  C   -0.049992
    12  C   -0.019853
    13  C    0.011245
    14  C    0.461947
    15  O   -0.508569
    16  O   -0.272548
    17  N   -0.308048
    18  C    0.143662
    19  C    0.041796
    20  C   -0.054485
    21  C    0.103877
    22  C   -0.033464
    23  C    0.331547
    24  O   -0.508468
    25  C   -0.030564
    26  N   -0.252992
    27  C    0.144992
    28  C   -0.004686
    29  C   -0.006971
    30  C    0.108694
    31  C   -0.045728
    32  C   -0.031241
    33  C   -0.058374
    34  N   -0.306452
    35  C    0.071070
    36  C    0.034493
    37  C   -0.063141
    38  C    0.129556
    39  C   -0.031707
    40  C    0.345235
    41  O   -0.513330
    42  C    0.048415
    43  C    0.491479
    44  O   -0.516211
    45  O   -0.262419
    46  C    0.071538
    47  C    0.109052
    48  C   -0.102877
    49  C   -0.032731
    50  C   -0.045836
    51  C   -0.016979
    52  C   -0.033351
    53  C   -0.037620
    54  C   -0.010034
    55  C   -0.072044
    56  C   -0.024012
    57  C   -0.043686
    58  C   -0.041722
    59  C   -0.014257
    60  C   -0.051819
    61  C   -0.051149
    62  C   -0.036170
    63  C   -0.035988
    64  C   -0.012697
    65  C   -0.059436
    66  C   -0.058038
    67  H    0.029006
    68  H    0.018259
    69  H    0.024924
    70  H    0.046594
    71  H    0.019402
    72  H    0.022402
    73  H    0.023004
    74  H    0.024273
    75  H    0.017605
    76  H    0.035586
    77  H    0.031200
    78  H    0.038715
    79  H    0.018332
    80  H    0.046095
    81  H    0.035815
    82  H    0.041987
    83  H    0.036717
    84  H    0.035140
    85  H    0.018356
    86  H    0.030288
    87  H    0.026739
    88  H    0.032904
    89  H    0.013008
    90  H    0.020755
    91  H    0.020167
    92  H    0.026992
    93  H    0.023532
    94  H    0.018343
    95  H    0.029520
    96  H    0.034285
    97  H    0.027893
    98  H    0.061013
    99  H    0.047125
   100  H    0.031389
   101  H    0.040111
   102  H    0.053646
   103  H    0.056512
   104  H    0.023331
   105  H    0.037223
   106  H    0.034395
   107  H    0.027542
   108  H    0.019638
   109  H    0.025742
   110  H    0.017437
   111  H    0.022741
   112  H    0.020517
   113  H    0.017428
   114  H    0.023935
   115  H    0.025396
   116  H    0.015226
   117  H    0.018697
   118  H    0.017110
   119  H    0.018881
   120  H    0.019199
   121  H    0.020652
   122  H    0.023263
   123  H    0.019347
   124  H    0.022667
   125  H    0.024328
   126  H    0.017301
   127  H    0.013086
   128  H    0.016326
   129  H    0.008887
   130  H    0.014356
   131  H    0.022562
   132  H    0.030814
   133  H    0.016367
   134  H    0.015471
   135  H    0.013762
   136  H    0.013063
   137  H    0.023605
   138  H    0.025429
   139  H    0.021692
   140  H    0.013296
 Sum of Mulliken charges =  -0.00000

 Dipole moment (field-independent basis, Debye):
    X=             -2.0323    Y=              4.9934    Z=             -2.4758  Tot=              5.9325
 N-N= 4.293502880483D+03 E-N= 0.000000000000D+00  KE=-9.261208135484D+03
 Leave Link  601 at Sat Apr 30 17:44:56 2022, MaxMem=  6710886400 cpu:               1.0 elap:               0.1
 (Enter /sw/apps/gaussian-16.0/g16/l9999.exe)
 1\1\GINC-BP1-COMPUTE102\SP\RZINDO CIS\STO-3G\C55H74Mg1N4O6\OF15641\30-
 Apr-2022\0\\#p ZINDO=(nstates=5)\\step_801_chromophore_8 ZINDO\\0,1\Mg
 ,0,46.131,2.988,47.469\C,0,43.615,5.36,46.742\C,0,43.718,0.559,47.278\
 C,0,48.596,0.751,47.185\C,0,48.507,5.549,46.982\N,0,43.976,2.973,46.88
 5\C,0,43.083,4.078,46.79\C,0,41.59,3.632,46.726\C,0,41.739,2.132,47.18
 2\C,0,43.27,1.817,47.038\C,0,40.921,1.791,48.464\C,0,41.186,3.745,45.1
 98\C,0,39.889,4.403,44.794\C,0,39.978,5.596,43.872\O,0,40.182,6.779,44

 Normal termination of Gaussian 16 at Sat Apr 30 17:44:57 2022.
