 Gaussian 16, Revision A.03,
 Gaussian 16:  ES64L-G16RevA.03 25-Dec-2016

 ------------------------------
 #p blyp/Def2SVP td=(nstates=5)
 ------------------------------

 --------------------------------------------------
 step_151_chromophore_13 TDDFT with blyp functional
 --------------------------------------------------
 Symbolic Z-matrix:
 Charge =  0 Multiplicity = 1

                         Standard orientation:
 ---------------------------------------------------------------------
 Center     Atomic      Atomic             Coordinates (Angstroms)
 Number     Number       Type             X           Y           Z
 ---------------------------------------------------------------------
      1         12           0       -5.934173    0.449291   -0.322013
      2          6           0       -3.996991   -2.444872    0.070821
      3          6           0       -3.228165    2.225319    0.444662
      4          6           0       -8.015528    3.019417    0.464994
      5          6           0       -8.699488   -1.648136   -0.822765
      6          7           0       -3.820145   -0.129945    0.321314
      7          6           0       -3.196346   -1.292870    0.170004
      8          6           0       -1.684055   -1.222620    0.240106
      9          6           0       -1.515838    0.313621    0.579689
     10          6           0       -2.925980    0.833877    0.347744
     11          6           0       -0.925131    0.547223    2.010053
     12          6           0       -0.900468   -1.688568   -1.054869
     13          6           0        0.496186   -2.347339   -0.717945
     14          6           0        1.789490   -1.674842   -1.134341
     15          8           0        1.839144   -0.621648   -1.757064
     16          8           0        2.883167   -2.376669   -0.737752
     17          7           0       -5.626523    2.421516    0.233824
     18          6           0       -4.435342    2.988944    0.314527
     19          6           0       -4.587762    4.391859    0.495854
     20          6           0       -6.028814    4.645633    0.770223
     21          6           0       -6.624442    3.328097    0.494931
     22          6           0       -3.400334    5.444267    0.459368
     23          6           0       -6.753105    5.887573    1.260128
     24          8           0       -7.963363    5.957236    1.461346
     25          6           0       -6.013269    7.208728    1.477241
     26          7           0       -7.975467    0.625231   -0.127186
     27          6           0       -8.644275    1.771078    0.169803
     28          6           0      -10.204543    1.654312    0.011166
     29          6           0      -10.309865    0.267852   -0.634247
     30          6           0       -8.914549   -0.306190   -0.540989
     31          6           0      -11.059872    1.807573    1.354156
     32          6           0      -10.886195    0.342030   -2.081898
     33          6           0       -9.752409    0.379740   -3.135180
     34          7           0       -6.265094   -1.570867   -0.507037
     35          6           0       -7.459271   -2.278433   -0.682003
     36          6           0       -7.209181   -3.683159   -0.774841
     37          6           0       -5.870766   -3.786330   -0.348805
     38          6           0       -5.362089   -2.517113   -0.241545
     39          6           0       -8.120799   -4.687015   -1.160589
     40          6           0       -4.842180   -4.747178   -0.056812
     41          8           0       -4.969166   -5.945416    0.040348
     42          6           0       -3.559555   -3.908244    0.088943
     43          6           0       -2.826263   -4.137923    1.363139
     44          8           0       -3.243556   -4.168935    2.490356
     45          8           0       -1.494450   -4.328124    1.179126
     46          6           0       -0.592929   -4.783532    2.231592
     47          6           0        4.243551   -2.048018   -1.181614
     48          6           0        4.876317   -0.881577   -0.394904
     49          6           0        6.185117   -0.781228    0.002870
     50          6           0        7.256924   -1.749506   -0.444592
     51          6           0        6.673013    0.515080    0.632505
     52          6           0        7.372858    1.469300   -0.347563
     53          6           0        8.940669    1.614208   -0.020349
     54          6           0        9.657076    2.335736   -1.165442
     55          6           0        9.074949    3.765403   -1.429007
     56          6           0        9.908385    1.477146   -2.468223
     57          6           0       11.389519    1.464773   -2.927196
     58          6           0       12.229101    0.332964   -2.313432
     59          6           0       13.309251    0.996787   -1.474085
     60          6           0       14.357218    1.809579   -2.253993
     61          6           0       14.066522   -0.081416   -0.598782
     62          6           0       14.204321    0.400644    0.832615
     63          6           0       14.001554   -0.687619    1.912613
     64          6           0       12.991181   -0.320243    3.096599
     65          6           0       13.127741   -1.409045    4.228570
     66          6           0       11.485793   -0.231964    2.522954
     67          1           0       -2.381402    2.898447    0.599042
     68          1           0       -8.696842    3.856068    0.636053
     69          1           0       -9.554294   -2.284865   -1.060358
     70          1           0       -1.210295   -1.789030    1.042387
     71          1           0       -0.757414    0.723834   -0.087613
     72          1           0       -0.566780   -0.359956    2.496666
     73          1           0       -1.738390    0.863340    2.663851
     74          1           0       -0.169942    1.329424    2.081932
     75          1           0       -0.603153   -0.837337   -1.666062
     76          1           0       -1.388289   -2.488381   -1.611887
     77          1           0        0.563042   -3.287912   -1.264657
     78          1           0        0.695728   -2.622933    0.316877
     79          1           0       -3.617535    6.177315   -0.317162
     80          1           0       -2.438506    4.946815    0.335926
     81          1           0       -3.454161    5.983807    1.404717
     82          1           0       -5.256188    7.135894    0.696291
     83          1           0       -5.593133    7.160656    2.481987
     84          1           0       -6.635387    8.084837    1.295362
     85          1           0      -10.374581    2.452482   -0.712186
     86          1           0      -10.977411   -0.293049    0.020196
     87          1           0      -10.310275    1.991707    2.123566
     88          1           0      -11.806827    1.085064    1.682979
     89          1           0      -11.552669    2.775459    1.260045
     90          1           0      -11.549899    1.169545   -2.333133
     91          1           0      -11.440575   -0.590859   -2.189701
     92          1           0       -8.779296    0.645294   -2.724167
     93          1           0      -10.055644    1.133942   -3.862197
     94          1           0       -9.731120   -0.551758   -3.702539
     95          1           0       -8.688142   -4.522307   -2.077180
     96          1           0       -8.839232   -4.938497   -0.380815
     97          1           0       -7.496312   -5.574906   -1.256900
     98          1           0       -2.911920   -4.103770   -0.766125
     99          1           0        0.003339   -5.688632    2.120399
    100          1           0       -1.149468   -4.976128    3.148643
    101          1           0        0.056324   -3.924830    2.401374
    102          1           0        4.305178   -1.718491   -2.218138
    103          1           0        4.784638   -2.994498   -1.193139
    104          1           0        4.203984   -0.219341    0.150630
    105          1           0        6.848595   -2.591439   -1.004394
    106          1           0        7.793789   -2.055536    0.454334
    107          1           0        7.897940   -1.422629   -1.263458
    108          1           0        7.442268    0.163651    1.321466
    109          1           0        5.859922    1.042120    1.134009
    110          1           0        6.914229    2.457077   -0.297511
    111          1           0        7.178828    1.215303   -1.389227
    112          1           0        9.342974    0.619355    0.169496
    113          1           0        9.234019    2.043105    0.938086
    114          1           0       10.674149    2.594731   -0.873069
    115          1           0        8.518323    4.095378   -0.552573
    116          1           0        8.367283    3.715611   -2.256754
    117          1           0        9.805531    4.545338   -1.646573
    118          1           0        9.364284    1.861325   -3.330102
    119          1           0        9.525670    0.471243   -2.288768
    120          1           0       11.802440    2.470709   -2.858105
    121          1           0       11.348449    1.353389   -4.011514
    122          1           0       12.694532   -0.329878   -3.042457
    123          1           0       11.739336   -0.315211   -1.586630
    124          1           0       12.737766    1.687374   -0.854695
    125          1           0       14.125931    2.874551   -2.273087
    126          1           0       14.508116    1.363270   -3.237225
    127          1           0       15.306554    1.788437   -1.719494
    128          1           0       15.053179   -0.220264   -1.039839
    129          1           0       13.654409   -1.089133   -0.663852
    130          1           0       13.623343    1.314635    0.946664
    131          1           0       15.253774    0.693381    0.851480
    132          1           0       14.915168   -0.828012    2.489997
    133          1           0       13.690634   -1.646881    1.499108
    134          1           0       13.242522    0.705665    3.368084
    135          1           0       12.150378   -1.573063    4.682847
    136          1           0       13.857417   -1.173266    5.001972
    137          1           0       13.417647   -2.368577    3.800238
    138          1           0       10.849598   -1.061102    2.833052
    139          1           0       11.358114   -0.072148    1.452280
    140          1           0       11.076588    0.717770    2.866972
 ---------------------------------------------------------------------

 SCF Done:  E(RB-LYP) =  -3007.36385566     A.U. after   22 cycles

 Excitation energies and oscillator strengths:

 Excited State   1:      Singlet-A      1.7542 eV  706.78 nm  f=0.0027  <S**2>=0.000
     244 -> 247        0.67842
     245 -> 247        0.19506
 This state for optimization and/or second-order correction.
 Total Energy, E(TD-HF/TD-DFT) =  -3007.29938957
 Copying the excited state density for this state as the 1-particle RhoCI density.

 Excited State   2:      Singlet-A      1.8143 eV  683.36 nm  f=0.2910  <S**2>=0.000
     245 -> 248       -0.19612
     246 -> 247        0.68573
     246 <- 247       -0.14534

 Excited State   3:      Singlet-A      1.9614 eV  632.11 nm  f=0.0763  <S**2>=0.000
     243 -> 247        0.25602
     244 -> 247       -0.18345
     245 -> 247        0.58829
     246 -> 248        0.19654

 Excited State   4:      Singlet-A      2.0437 eV  606.65 nm  f=0.0118  <S**2>=0.000
     243 -> 247        0.65742
     245 -> 247       -0.22400

 Excited State   5:      Singlet-A      2.3882 eV  519.15 nm  f=0.0001  <S**2>=0.000
     241 -> 247        0.70542

 The electronic state is 1-A.
 Alpha  occ. eigenvalues --  -46.27107 -18.82353 -18.81316 -18.76587 -18.75836
 Alpha  occ. eigenvalues --  -18.75711 -18.75052 -14.03364 -14.03213 -14.00830
 Alpha  occ. eigenvalues --  -14.00530 -10.04234 -10.03606  -9.99674  -9.99270
 Alpha  occ. eigenvalues --   -9.99054  -9.97803  -9.96561  -9.96555  -9.96431
 Alpha  occ. eigenvalues --   -9.96145  -9.95960  -9.95430  -9.94804  -9.94544
 Alpha  occ. eigenvalues --   -9.94223  -9.94088  -9.93927  -9.93892  -9.93689
 Alpha  occ. eigenvalues --   -9.93670  -9.93647  -9.93568  -9.93493  -9.93323
 Alpha  occ. eigenvalues --   -9.93292  -9.93124  -9.93097  -9.92905  -9.92768
 Alpha  occ. eigenvalues --   -9.92663  -9.92596  -9.92366  -9.92359  -9.92345
 Alpha  occ. eigenvalues --   -9.92230  -9.92170  -9.92140  -9.92084  -9.92074
 Alpha  occ. eigenvalues --   -9.92014  -9.91710  -9.91601  -9.91488  -9.91485
 Alpha  occ. eigenvalues --   -9.91431  -9.91274  -9.91247  -9.91232  -9.91218
 Alpha  occ. eigenvalues --   -9.91075  -9.90927  -9.90912  -9.90822  -9.90493
 Alpha  occ. eigenvalues --   -9.90210  -2.91879  -1.72270  -1.71793  -1.71576
 Alpha  occ. eigenvalues --   -0.98274  -0.97940  -0.92043  -0.90845  -0.89823
 Alpha  occ. eigenvalues --   -0.89345  -0.88494  -0.86494  -0.86237  -0.85290
 Alpha  occ. eigenvalues --   -0.76216  -0.73649  -0.73164  -0.72502  -0.72327
 Alpha  occ. eigenvalues --   -0.71578  -0.71495  -0.70845  -0.70498  -0.70306
 Alpha  occ. eigenvalues --   -0.69335  -0.69136  -0.67937  -0.67458  -0.67156
 Alpha  occ. eigenvalues --   -0.66412  -0.66049  -0.65045  -0.64845  -0.64178
 Alpha  occ. eigenvalues --   -0.63967  -0.62732  -0.62174  -0.61738  -0.61098
 Alpha  occ. eigenvalues --   -0.60794  -0.60196  -0.59972  -0.59846  -0.59013
 Alpha  occ. eigenvalues --   -0.58716  -0.57780  -0.56781  -0.56305  -0.54860
 Alpha  occ. eigenvalues --   -0.54452  -0.54032  -0.53430  -0.52876  -0.51827
 Alpha  occ. eigenvalues --   -0.51175  -0.50758  -0.50686  -0.50253  -0.49750
 Alpha  occ. eigenvalues --   -0.49431  -0.48720  -0.48692  -0.48324  -0.46927
 Alpha  occ. eigenvalues --   -0.46520  -0.46312  -0.45560  -0.45323  -0.44844
 Alpha  occ. eigenvalues --   -0.44043  -0.43914  -0.42977  -0.42731  -0.42520
 Alpha  occ. eigenvalues --   -0.41998  -0.41652  -0.41470  -0.41391  -0.41089
 Alpha  occ. eigenvalues --   -0.40947  -0.40572  -0.40343  -0.40044  -0.39883
 Alpha  occ. eigenvalues --   -0.39772  -0.39609  -0.39464  -0.39226  -0.39138
 Alpha  occ. eigenvalues --   -0.39071  -0.38726  -0.38628  -0.38496  -0.38404
 Alpha  occ. eigenvalues --   -0.37960  -0.37733  -0.37489  -0.37280  -0.37118
 Alpha  occ. eigenvalues --   -0.37016  -0.36895  -0.36672  -0.36471  -0.36330
 Alpha  occ. eigenvalues --   -0.36203  -0.35975  -0.35900  -0.35748  -0.35558
 Alpha  occ. eigenvalues --   -0.35411  -0.35345  -0.35061  -0.34696  -0.34663
 Alpha  occ. eigenvalues --   -0.34504  -0.34325  -0.34119  -0.33939  -0.33843
 Alpha  occ. eigenvalues --   -0.33778  -0.33420  -0.33302  -0.33250  -0.33068
 Alpha  occ. eigenvalues --   -0.32954  -0.32720  -0.32550  -0.32427  -0.32126
 Alpha  occ. eigenvalues --   -0.32104  -0.32063  -0.31835  -0.31620  -0.31444
 Alpha  occ. eigenvalues --   -0.31339  -0.31297  -0.31160  -0.30827  -0.30728
 Alpha  occ. eigenvalues --   -0.30504  -0.30266  -0.30197  -0.30018  -0.29819
 Alpha  occ. eigenvalues --   -0.29791  -0.29712  -0.29666  -0.29386  -0.29018
 Alpha  occ. eigenvalues --   -0.28782  -0.28514  -0.28268  -0.28219  -0.28125
 Alpha  occ. eigenvalues --   -0.27833  -0.27611  -0.27400  -0.27205  -0.26536
 Alpha  occ. eigenvalues --   -0.26462  -0.26342  -0.25880  -0.25647  -0.25177
 Alpha  occ. eigenvalues --   -0.24592  -0.24548  -0.24487  -0.24044  -0.23756
 Alpha  occ. eigenvalues --   -0.23182  -0.21927  -0.21711  -0.21265  -0.20409
 Alpha  occ. eigenvalues --   -0.20373  -0.20155  -0.18956  -0.17995  -0.17048
 Alpha  occ. eigenvalues --   -0.15931
 Alpha virt. eigenvalues --   -0.11596  -0.06816  -0.06134  -0.04572  -0.03242
 Alpha virt. eigenvalues --   -0.02627  -0.02043  -0.01827  -0.01689   0.00096
 Alpha virt. eigenvalues --    0.01086   0.01418   0.02047   0.02285   0.02600

 Mulliken charges:
               1
     1  Mg   0.707918
     2  C   -0.055022
     3  C   -0.047727
     4  C   -0.041771
     5  C   -0.102041
     6  N   -0.145278
     7  C   -0.073834
     8  C    0.007424
     9  C   -0.005834
    10  C    0.045735
    11  C    0.116171
    12  C    0.160544
    13  C    0.071545
    14  C    0.059559
    15  O   -0.199967
    16  O   -0.272062
    17  N   -0.273157
    18  C    0.111090
    19  C   -0.165556
    20  C    0.029106
    21  C    0.088922
    22  C    0.157188
    23  C   -0.086992
    24  O   -0.173107
    25  C    0.135053
    26  N   -0.242787
    27  C   -0.003153
    28  C    0.018133
    29  C    0.056305
    30  C    0.033692
    31  C    0.125166
    32  C    0.074169
    33  C    0.062447
    34  N   -0.254663
    35  C    0.143630
    36  C   -0.169825
    37  C    0.065973
    38  C    0.120975
    39  C    0.178473
    40  C   -0.055055
    41  O   -0.107596
    42  C    0.099845
    43  C    0.064994
    44  O   -0.148967
    45  O   -0.279897
    46  C    0.205175
    47  C    0.312283
    48  C   -0.079427
    49  C   -0.174027
    50  C    0.129045
    51  C    0.178246
    52  C    0.067276
    53  C    0.067202
    54  C   -0.053062
    55  C    0.083274
    56  C    0.114366
    57  C    0.073618
    58  C    0.140141
    59  C   -0.154554
    60  C    0.133908
    61  C    0.095623
    62  C    0.110112
    63  C    0.076075
    64  C   -0.090225
    65  C    0.107252
    66  C    0.055902
    67  H   -0.073657
    68  H   -0.047443
    69  H   -0.064299
    70  H   -0.007825
    71  H   -0.017263
    72  H   -0.011001
    73  H   -0.011728
    74  H   -0.001332
    75  H   -0.001991
    76  H   -0.017338
    77  H    0.000216
    78  H   -0.004429
    79  H    0.024235
    80  H   -0.004307
    81  H    0.004019
    82  H   -0.027156
    83  H    0.022069
    84  H    0.002774
    85  H   -0.020126
    86  H   -0.036976
    87  H   -0.003901
    88  H    0.011308
    89  H   -0.007381
    90  H   -0.011465
    91  H   -0.024511
    92  H    0.019334
    93  H   -0.022399
    94  H   -0.009333
    95  H   -0.004089
    96  H   -0.000010
    97  H    0.000162
    98  H   -0.000985
    99  H    0.023228
   100  H    0.015144
   101  H    0.009310
   102  H    0.001656
   103  H    0.005696
   104  H   -0.024633
   105  H   -0.039426
   106  H    0.009461
   107  H    0.007938
   108  H   -0.032986
   109  H   -0.029816
   110  H   -0.031433
   111  H   -0.022003
   112  H   -0.025890
   113  H   -0.030816
   114  H   -0.042907
   115  H   -0.016754
   116  H   -0.015489
   117  H   -0.013829
   118  H   -0.043879
   119  H   -0.037182
   120  H   -0.029979
   121  H   -0.050710
   122  H   -0.038184
   123  H   -0.028351
   124  H   -0.023816
   125  H   -0.018515
   126  H   -0.014482
   127  H   -0.025836
   128  H   -0.045735
   129  H   -0.044076
   130  H   -0.027614
   131  H   -0.037572
   132  H   -0.034064
   133  H   -0.023871
   134  H   -0.027849
   135  H   -0.018064
   136  H   -0.006327
   137  H   -0.014628
   138  H   -0.009070
   139  H   -0.008273
   140  H   -0.019515
 Sum of Mulliken charges =  -0.00000

 Dipole moment (field-independent basis, Debye):
    X=              4.5085    Y=              1.4196    Z=             -2.5069  Tot=              5.3504
 Quadrupole moment (field-independent basis, Debye-Ang):
   XX=           -373.8122   YY=           -429.8656   ZZ=           -408.3967
   XY=             -2.9270   XZ=             28.5238   YZ=              5.0554

 Normal termination of Gaussian 16 at Wed May  4 09:06:41 2022.
