 Gaussian 16, Revision A.03,
 Gaussian 16:  ES64L-G16RevA.03 25-Dec-2016

 -----------------------------------
 #p cam-b3lyp/Def2SVP td=(nstates=5)
 -----------------------------------

 -------------------------------------------------------
 step_151_chromophore_13 TDDFT with cam-b3lyp functional
 -------------------------------------------------------
 Symbolic Z-matrix:
 Charge =  0 Multiplicity = 1

                         Standard orientation:
 ---------------------------------------------------------------------
 Center     Atomic      Atomic             Coordinates (Angstroms)
 Number     Number       Type             X           Y           Z
 ---------------------------------------------------------------------
      1         12           0       -5.934173    0.449291   -0.322013
      2          6           0       -3.996991   -2.444872    0.070821
      3          6           0       -3.228165    2.225319    0.444662
      4          6           0       -8.015528    3.019417    0.464994
      5          6           0       -8.699488   -1.648136   -0.822765
      6          7           0       -3.820145   -0.129945    0.321314
      7          6           0       -3.196346   -1.292870    0.170004
      8          6           0       -1.684055   -1.222620    0.240106
      9          6           0       -1.515838    0.313621    0.579689
     10          6           0       -2.925980    0.833877    0.347744
     11          6           0       -0.925131    0.547223    2.010053
     12          6           0       -0.900468   -1.688568   -1.054869
     13          6           0        0.496186   -2.347339   -0.717945
     14          6           0        1.789490   -1.674842   -1.134341
     15          8           0        1.839144   -0.621648   -1.757064
     16          8           0        2.883167   -2.376669   -0.737752
     17          7           0       -5.626523    2.421516    0.233824
     18          6           0       -4.435342    2.988944    0.314527
     19          6           0       -4.587762    4.391859    0.495854
     20          6           0       -6.028814    4.645633    0.770223
     21          6           0       -6.624442    3.328097    0.494931
     22          6           0       -3.400334    5.444267    0.459368
     23          6           0       -6.753105    5.887573    1.260128
     24          8           0       -7.963363    5.957236    1.461346
     25          6           0       -6.013269    7.208728    1.477241
     26          7           0       -7.975467    0.625231   -0.127186
     27          6           0       -8.644275    1.771078    0.169803
     28          6           0      -10.204543    1.654312    0.011166
     29          6           0      -10.309865    0.267852   -0.634247
     30          6           0       -8.914549   -0.306190   -0.540989
     31          6           0      -11.059872    1.807573    1.354156
     32          6           0      -10.886195    0.342030   -2.081898
     33          6           0       -9.752409    0.379740   -3.135180
     34          7           0       -6.265094   -1.570867   -0.507037
     35          6           0       -7.459271   -2.278433   -0.682003
     36          6           0       -7.209181   -3.683159   -0.774841
     37          6           0       -5.870766   -3.786330   -0.348805
     38          6           0       -5.362089   -2.517113   -0.241545
     39          6           0       -8.120799   -4.687015   -1.160589
     40          6           0       -4.842180   -4.747178   -0.056812
     41          8           0       -4.969166   -5.945416    0.040348
     42          6           0       -3.559555   -3.908244    0.088943
     43          6           0       -2.826263   -4.137923    1.363139
     44          8           0       -3.243556   -4.168935    2.490356
     45          8           0       -1.494450   -4.328124    1.179126
     46          6           0       -0.592929   -4.783532    2.231592
     47          6           0        4.243551   -2.048018   -1.181614
     48          6           0        4.876317   -0.881577   -0.394904
     49          6           0        6.185117   -0.781228    0.002870
     50          6           0        7.256924   -1.749506   -0.444592
     51          6           0        6.673013    0.515080    0.632505
     52          6           0        7.372858    1.469300   -0.347563
     53          6           0        8.940669    1.614208   -0.020349
     54          6           0        9.657076    2.335736   -1.165442
     55          6           0        9.074949    3.765403   -1.429007
     56          6           0        9.908385    1.477146   -2.468223
     57          6           0       11.389519    1.464773   -2.927196
     58          6           0       12.229101    0.332964   -2.313432
     59          6           0       13.309251    0.996787   -1.474085
     60          6           0       14.357218    1.809579   -2.253993
     61          6           0       14.066522   -0.081416   -0.598782
     62          6           0       14.204321    0.400644    0.832615
     63          6           0       14.001554   -0.687619    1.912613
     64          6           0       12.991181   -0.320243    3.096599
     65          6           0       13.127741   -1.409045    4.228570
     66          6           0       11.485793   -0.231964    2.522954
     67          1           0       -2.381402    2.898447    0.599042
     68          1           0       -8.696842    3.856068    0.636053
     69          1           0       -9.554294   -2.284865   -1.060358
     70          1           0       -1.210295   -1.789030    1.042387
     71          1           0       -0.757414    0.723834   -0.087613
     72          1           0       -0.566780   -0.359956    2.496666
     73          1           0       -1.738390    0.863340    2.663851
     74          1           0       -0.169942    1.329424    2.081932
     75          1           0       -0.603153   -0.837337   -1.666062
     76          1           0       -1.388289   -2.488381   -1.611887
     77          1           0        0.563042   -3.287912   -1.264657
     78          1           0        0.695728   -2.622933    0.316877
     79          1           0       -3.617535    6.177315   -0.317162
     80          1           0       -2.438506    4.946815    0.335926
     81          1           0       -3.454161    5.983807    1.404717
     82          1           0       -5.256188    7.135894    0.696291
     83          1           0       -5.593133    7.160656    2.481987
     84          1           0       -6.635387    8.084837    1.295362
     85          1           0      -10.374581    2.452482   -0.712186
     86          1           0      -10.977411   -0.293049    0.020196
     87          1           0      -10.310275    1.991707    2.123566
     88          1           0      -11.806827    1.085064    1.682979
     89          1           0      -11.552669    2.775459    1.260045
     90          1           0      -11.549899    1.169545   -2.333133
     91          1           0      -11.440575   -0.590859   -2.189701
     92          1           0       -8.779296    0.645294   -2.724167
     93          1           0      -10.055644    1.133942   -3.862197
     94          1           0       -9.731120   -0.551758   -3.702539
     95          1           0       -8.688142   -4.522307   -2.077180
     96          1           0       -8.839232   -4.938497   -0.380815
     97          1           0       -7.496312   -5.574906   -1.256900
     98          1           0       -2.911920   -4.103770   -0.766125
     99          1           0        0.003339   -5.688632    2.120399
    100          1           0       -1.149468   -4.976128    3.148643
    101          1           0        0.056324   -3.924830    2.401374
    102          1           0        4.305178   -1.718491   -2.218138
    103          1           0        4.784638   -2.994498   -1.193139
    104          1           0        4.203984   -0.219341    0.150630
    105          1           0        6.848595   -2.591439   -1.004394
    106          1           0        7.793789   -2.055536    0.454334
    107          1           0        7.897940   -1.422629   -1.263458
    108          1           0        7.442268    0.163651    1.321466
    109          1           0        5.859922    1.042120    1.134009
    110          1           0        6.914229    2.457077   -0.297511
    111          1           0        7.178828    1.215303   -1.389227
    112          1           0        9.342974    0.619355    0.169496
    113          1           0        9.234019    2.043105    0.938086
    114          1           0       10.674149    2.594731   -0.873069
    115          1           0        8.518323    4.095378   -0.552573
    116          1           0        8.367283    3.715611   -2.256754
    117          1           0        9.805531    4.545338   -1.646573
    118          1           0        9.364284    1.861325   -3.330102
    119          1           0        9.525670    0.471243   -2.288768
    120          1           0       11.802440    2.470709   -2.858105
    121          1           0       11.348449    1.353389   -4.011514
    122          1           0       12.694532   -0.329878   -3.042457
    123          1           0       11.739336   -0.315211   -1.586630
    124          1           0       12.737766    1.687374   -0.854695
    125          1           0       14.125931    2.874551   -2.273087
    126          1           0       14.508116    1.363270   -3.237225
    127          1           0       15.306554    1.788437   -1.719494
    128          1           0       15.053179   -0.220264   -1.039839
    129          1           0       13.654409   -1.089133   -0.663852
    130          1           0       13.623343    1.314635    0.946664
    131          1           0       15.253774    0.693381    0.851480
    132          1           0       14.915168   -0.828012    2.489997
    133          1           0       13.690634   -1.646881    1.499108
    134          1           0       13.242522    0.705665    3.368084
    135          1           0       12.150378   -1.573063    4.682847
    136          1           0       13.857417   -1.173266    5.001972
    137          1           0       13.417647   -2.368577    3.800238
    138          1           0       10.849598   -1.061102    2.833052
    139          1           0       11.358114   -0.072148    1.452280
    140          1           0       11.076588    0.717770    2.866972
 ---------------------------------------------------------------------

 SCF Done:  E(RCAM-B3LYP) =  -3007.16330862     A.U. after   17 cycles

 Excitation energies and oscillator strengths:

 Excited State   1:      Singlet-A      1.7162 eV  722.44 nm  f=0.3730  <S**2>=0.000
     245 -> 248       -0.18969
     246 -> 247        0.68307
     245 <- 248       -0.10938
 This state for optimization and/or second-order correction.
 Total Energy, E(TD-HF/TD-DFT) =  -3007.10024024
 Copying the excited state density for this state as the 1-particle RhoCI density.

 Excited State   2:      Singlet-A      2.1761 eV  569.75 nm  f=0.1355  <S**2>=0.000
     245 -> 247        0.65080
     246 -> 248        0.26477

 Excited State   3:      Singlet-A      3.3244 eV  372.96 nm  f=0.0055  <S**2>=0.000
     243 -> 247       -0.13971
     244 -> 247        0.67010
     246 -> 248        0.10780

 Excited State   4:      Singlet-A      3.4318 eV  361.28 nm  f=0.0108  <S**2>=0.000
     241 -> 247       -0.12727
     243 -> 247        0.61144
     244 -> 247        0.16047
     246 -> 248       -0.22766

 Excited State   5:      Singlet-A      3.4489 eV  359.49 nm  f=0.0150  <S**2>=0.000
     241 -> 247        0.53518
     241 -> 248        0.13102
     241 -> 249       -0.29870
     241 -> 251        0.18142
     243 -> 247        0.11439
     246 -> 248       -0.15242

 The electronic state is 1-A.
 Alpha  occ. eigenvalues --  -46.88591 -19.25267 -19.24302 -19.19528 -19.18972
 Alpha  occ. eigenvalues --  -19.18925 -19.18291 -14.42332 -14.41935 -14.39209
 Alpha  occ. eigenvalues --  -14.38840 -10.39489 -10.39026 -10.34938 -10.34543
 Alpha  occ. eigenvalues --  -10.33176 -10.31890 -10.30999 -10.30962 -10.30959
 Alpha  occ. eigenvalues --  -10.30465 -10.30450 -10.29720 -10.29395 -10.28926
 Alpha  occ. eigenvalues --  -10.28480 -10.28291 -10.28036 -10.27925 -10.27877
 Alpha  occ. eigenvalues --  -10.27762 -10.27653 -10.27642 -10.27635 -10.27607
 Alpha  occ. eigenvalues --  -10.27507 -10.27440 -10.26992 -10.26942 -10.26705
 Alpha  occ. eigenvalues --  -10.26409 -10.26368 -10.26252 -10.26247 -10.26068
 Alpha  occ. eigenvalues --  -10.26036 -10.25963 -10.25906 -10.25844 -10.25794
 Alpha  occ. eigenvalues --  -10.25767 -10.25741 -10.25243 -10.25175 -10.25123
 Alpha  occ. eigenvalues --  -10.25008 -10.24989 -10.24961 -10.24902 -10.24892
 Alpha  occ. eigenvalues --  -10.24706 -10.24580 -10.24548 -10.24425 -10.24195
 Alpha  occ. eigenvalues --  -10.24178  -3.17270  -1.92135  -1.91752  -1.91560
 Alpha  occ. eigenvalues --   -1.16927  -1.16400  -1.10500  -1.09278  -1.07691
 Alpha  occ. eigenvalues --   -1.07321  -1.06352  -1.04087  -1.03847  -1.02782
 Alpha  occ. eigenvalues --   -0.93409  -0.90551  -0.90005  -0.89251  -0.88953
 Alpha  occ. eigenvalues --   -0.88191  -0.88121  -0.87419  -0.87001  -0.86863
 Alpha  occ. eigenvalues --   -0.85865  -0.85661  -0.84173  -0.83625  -0.83292
 Alpha  occ. eigenvalues --   -0.82445  -0.81932  -0.80953  -0.80866  -0.80102
 Alpha  occ. eigenvalues --   -0.79736  -0.78382  -0.77844  -0.77296  -0.76543
 Alpha  occ. eigenvalues --   -0.76180  -0.75551  -0.75240  -0.75168  -0.74191
 Alpha  occ. eigenvalues --   -0.73885  -0.72789  -0.71680  -0.71143  -0.69434
 Alpha  occ. eigenvalues --   -0.69083  -0.68701  -0.67918  -0.67347  -0.66067
 Alpha  occ. eigenvalues --   -0.65419  -0.64812  -0.64520  -0.64207  -0.63781
 Alpha  occ. eigenvalues --   -0.63072  -0.62579  -0.62429  -0.62159  -0.60626
 Alpha  occ. eigenvalues --   -0.60038  -0.59933  -0.59215  -0.58686  -0.58296
 Alpha  occ. eigenvalues --   -0.57548  -0.57277  -0.56005  -0.55789  -0.55412
 Alpha  occ. eigenvalues --   -0.55151  -0.54935  -0.54622  -0.54457  -0.54247
 Alpha  occ. eigenvalues --   -0.53778  -0.53247  -0.53054  -0.52762  -0.52548
 Alpha  occ. eigenvalues --   -0.52365  -0.52274  -0.52164  -0.52049  -0.51914
 Alpha  occ. eigenvalues --   -0.51783  -0.51439  -0.51332  -0.51146  -0.50975
 Alpha  occ. eigenvalues --   -0.50208  -0.50067  -0.49916  -0.49746  -0.49576
 Alpha  occ. eigenvalues --   -0.49491  -0.49248  -0.48978  -0.48864  -0.48756
 Alpha  occ. eigenvalues --   -0.48345  -0.48312  -0.48124  -0.47952  -0.47724
 Alpha  occ. eigenvalues --   -0.47385  -0.47295  -0.47154  -0.46733  -0.46535
 Alpha  occ. eigenvalues --   -0.46308  -0.46164  -0.46006  -0.45911  -0.45615
 Alpha  occ. eigenvalues --   -0.45509  -0.45268  -0.45146  -0.44902  -0.44660
 Alpha  occ. eigenvalues --   -0.44612  -0.44374  -0.44183  -0.44083  -0.43804
 Alpha  occ. eigenvalues --   -0.43758  -0.43567  -0.43513  -0.43050  -0.42884
 Alpha  occ. eigenvalues --   -0.42769  -0.42701  -0.42537  -0.42395  -0.42217
 Alpha  occ. eigenvalues --   -0.41941  -0.41843  -0.41736  -0.41456  -0.41306
 Alpha  occ. eigenvalues --   -0.40967  -0.40907  -0.40878  -0.40679  -0.40316
 Alpha  occ. eigenvalues --   -0.40049  -0.39773  -0.39447  -0.39192  -0.39115
 Alpha  occ. eigenvalues --   -0.38804  -0.38473  -0.38267  -0.38243  -0.37789
 Alpha  occ. eigenvalues --   -0.37248  -0.37172  -0.36661  -0.36312  -0.36204
 Alpha  occ. eigenvalues --   -0.36054  -0.35078  -0.34970  -0.34902  -0.34210
 Alpha  occ. eigenvalues --   -0.33818  -0.33598  -0.33033  -0.31105  -0.30768
 Alpha  occ. eigenvalues --   -0.30239  -0.29941  -0.29696  -0.29467  -0.23681
 Alpha  occ. eigenvalues --   -0.21292
 Alpha virt. eigenvalues --   -0.08721  -0.01602   0.00279   0.01746   0.02433
 Alpha virt. eigenvalues --    0.04825   0.05275   0.05969   0.06115   0.07097
 Alpha virt. eigenvalues --    0.07346   0.08027   0.08585   0.08751   0.08826

 Mulliken charges:
               1
     1  Mg   0.840529
     2  C   -0.071053
     3  C   -0.055656
     4  C   -0.061346
     5  C   -0.102680
     6  N   -0.207818
     7  C   -0.039749
     8  C   -0.035248
     9  C   -0.056789
    10  C    0.053377
    11  C    0.058891
    12  C    0.109876
    13  C    0.002191
    14  C    0.145260
    15  O   -0.242390
    16  O   -0.337991
    17  N   -0.364869
    18  C    0.119266
    19  C   -0.167419
    20  C   -0.044858
    21  C    0.115389
    22  C    0.103346
    23  C   -0.008456
    24  O   -0.213621
    25  C    0.061487
    26  N   -0.316316
    27  C    0.019148
    28  C   -0.032862
    29  C    0.001092
    30  C    0.040025
    31  C    0.065748
    32  C    0.020932
    33  C    0.002090
    34  N   -0.345033
    35  C    0.143520
    36  C   -0.158581
    37  C   -0.014253
    38  C    0.153936
    39  C    0.113716
    40  C    0.048305
    41  O   -0.146901
    42  C    0.011382
    43  C    0.159241
    44  O   -0.187009
    45  O   -0.345544
    46  C    0.171301
    47  C    0.276777
    48  C   -0.096106
    49  C   -0.192656
    50  C    0.067818
    51  C    0.117235
    52  C    0.012165
    53  C    0.023128
    54  C   -0.112520
    55  C    0.027452
    56  C    0.065093
    57  C    0.013166
    58  C    0.090637
    59  C   -0.202652
    60  C    0.072860
    61  C    0.040959
    62  C    0.049855
    63  C    0.026212
    64  C   -0.143655
    65  C    0.045278
    66  C    0.005145
    67  H   -0.039345
    68  H   -0.006429
    69  H   -0.027464
    70  H    0.022522
    71  H    0.017812
    72  H    0.013152
    73  H    0.015292
    74  H    0.022505
    75  H    0.032403
    76  H    0.011914
    77  H    0.032935
    78  H    0.023804
    79  H    0.048878
    80  H    0.022953
    81  H    0.029683
    82  H   -0.002135
    83  H    0.048719
    84  H    0.036302
    85  H    0.014559
    86  H    0.000303
    87  H    0.022076
    88  H    0.035119
    89  H    0.016555
    90  H    0.016915
    91  H    0.003654
    92  H    0.037839
    93  H    0.002593
    94  H    0.015013
    95  H    0.021959
    96  H    0.027602
    97  H    0.028290
    98  H    0.042206
    99  H    0.044701
   100  H    0.043656
   101  H    0.026732
   102  H    0.032148
   103  H    0.034440
   104  H    0.006945
   105  H   -0.013576
   106  H    0.032304
   107  H    0.029649
   108  H   -0.005114
   109  H    0.001862
   110  H   -0.001766
   111  H    0.006178
   112  H   -0.004920
   113  H   -0.002335
   114  H   -0.011080
   115  H    0.007517
   116  H    0.006632
   117  H    0.010832
   118  H   -0.013893
   119  H   -0.011517
   120  H   -0.002691
   121  H   -0.018038
   122  H   -0.009005
   123  H   -0.002630
   124  H    0.001300
   125  H    0.005982
   126  H    0.009793
   127  H   -0.001084
   128  H   -0.014865
   129  H   -0.014861
   130  H   -0.000419
   131  H   -0.007488
   132  H   -0.004502
   133  H    0.001784
   134  H    0.002828
   135  H    0.006470
   136  H    0.017999
   137  H    0.008940
   138  H    0.013236
   139  H    0.007044
   140  H    0.002830
 Sum of Mulliken charges =  -0.00000

 Dipole moment (field-independent basis, Debye):
    X=              4.8412    Y=              1.8388    Z=             -2.5028  Tot=              5.7517
 Quadrupole moment (field-independent basis, Debye-Ang):
   XX=           -374.5615   YY=           -425.2526   ZZ=           -408.4274
   XY=             -5.8658   XZ=             29.1366   YZ=              5.8904

 Normal termination of Gaussian 16 at Wed May  4 08:03:14 2022.
