 Gaussian 16, Revision A.03,
 Gaussian 16:  ES64L-G16RevA.03 25-Dec-2016

 ---------------------------------
 #p PBE1PBE/Def2SVP td=(nstates=5)
 ---------------------------------

 -----------------------------------------------------
 step_151_chromophore_13 TDDFT with PBE1PBE functional
 -----------------------------------------------------
 Symbolic Z-matrix:
 Charge =  0 Multiplicity = 1

                         Standard orientation:
 ---------------------------------------------------------------------
 Center     Atomic      Atomic             Coordinates (Angstroms)
 Number     Number       Type             X           Y           Z
 ---------------------------------------------------------------------
      1         12           0       -5.934173    0.449291   -0.322013
      2          6           0       -3.996991   -2.444872    0.070821
      3          6           0       -3.228165    2.225319    0.444662
      4          6           0       -8.015528    3.019417    0.464994
      5          6           0       -8.699488   -1.648136   -0.822765
      6          7           0       -3.820145   -0.129945    0.321314
      7          6           0       -3.196346   -1.292870    0.170004
      8          6           0       -1.684055   -1.222620    0.240106
      9          6           0       -1.515838    0.313621    0.579689
     10          6           0       -2.925980    0.833877    0.347744
     11          6           0       -0.925131    0.547223    2.010053
     12          6           0       -0.900468   -1.688568   -1.054869
     13          6           0        0.496186   -2.347339   -0.717945
     14          6           0        1.789490   -1.674842   -1.134341
     15          8           0        1.839144   -0.621648   -1.757064
     16          8           0        2.883167   -2.376669   -0.737752
     17          7           0       -5.626523    2.421516    0.233824
     18          6           0       -4.435342    2.988944    0.314527
     19          6           0       -4.587762    4.391859    0.495854
     20          6           0       -6.028814    4.645633    0.770223
     21          6           0       -6.624442    3.328097    0.494931
     22          6           0       -3.400334    5.444267    0.459368
     23          6           0       -6.753105    5.887573    1.260128
     24          8           0       -7.963363    5.957236    1.461346
     25          6           0       -6.013269    7.208728    1.477241
     26          7           0       -7.975467    0.625231   -0.127186
     27          6           0       -8.644275    1.771078    0.169803
     28          6           0      -10.204543    1.654312    0.011166
     29          6           0      -10.309865    0.267852   -0.634247
     30          6           0       -8.914549   -0.306190   -0.540989
     31          6           0      -11.059872    1.807573    1.354156
     32          6           0      -10.886195    0.342030   -2.081898
     33          6           0       -9.752409    0.379740   -3.135180
     34          7           0       -6.265094   -1.570867   -0.507037
     35          6           0       -7.459271   -2.278433   -0.682003
     36          6           0       -7.209181   -3.683159   -0.774841
     37          6           0       -5.870766   -3.786330   -0.348805
     38          6           0       -5.362089   -2.517113   -0.241545
     39          6           0       -8.120799   -4.687015   -1.160589
     40          6           0       -4.842180   -4.747178   -0.056812
     41          8           0       -4.969166   -5.945416    0.040348
     42          6           0       -3.559555   -3.908244    0.088943
     43          6           0       -2.826263   -4.137923    1.363139
     44          8           0       -3.243556   -4.168935    2.490356
     45          8           0       -1.494450   -4.328124    1.179126
     46          6           0       -0.592929   -4.783532    2.231592
     47          6           0        4.243551   -2.048018   -1.181614
     48          6           0        4.876317   -0.881577   -0.394904
     49          6           0        6.185117   -0.781228    0.002870
     50          6           0        7.256924   -1.749506   -0.444592
     51          6           0        6.673013    0.515080    0.632505
     52          6           0        7.372858    1.469300   -0.347563
     53          6           0        8.940669    1.614208   -0.020349
     54          6           0        9.657076    2.335736   -1.165442
     55          6           0        9.074949    3.765403   -1.429007
     56          6           0        9.908385    1.477146   -2.468223
     57          6           0       11.389519    1.464773   -2.927196
     58          6           0       12.229101    0.332964   -2.313432
     59          6           0       13.309251    0.996787   -1.474085
     60          6           0       14.357218    1.809579   -2.253993
     61          6           0       14.066522   -0.081416   -0.598782
     62          6           0       14.204321    0.400644    0.832615
     63          6           0       14.001554   -0.687619    1.912613
     64          6           0       12.991181   -0.320243    3.096599
     65          6           0       13.127741   -1.409045    4.228570
     66          6           0       11.485793   -0.231964    2.522954
     67          1           0       -2.381402    2.898447    0.599042
     68          1           0       -8.696842    3.856068    0.636053
     69          1           0       -9.554294   -2.284865   -1.060358
     70          1           0       -1.210295   -1.789030    1.042387
     71          1           0       -0.757414    0.723834   -0.087613
     72          1           0       -0.566780   -0.359956    2.496666
     73          1           0       -1.738390    0.863340    2.663851
     74          1           0       -0.169942    1.329424    2.081932
     75          1           0       -0.603153   -0.837337   -1.666062
     76          1           0       -1.388289   -2.488381   -1.611887
     77          1           0        0.563042   -3.287912   -1.264657
     78          1           0        0.695728   -2.622933    0.316877
     79          1           0       -3.617535    6.177315   -0.317162
     80          1           0       -2.438506    4.946815    0.335926
     81          1           0       -3.454161    5.983807    1.404717
     82          1           0       -5.256188    7.135894    0.696291
     83          1           0       -5.593133    7.160656    2.481987
     84          1           0       -6.635387    8.084837    1.295362
     85          1           0      -10.374581    2.452482   -0.712186
     86          1           0      -10.977411   -0.293049    0.020196
     87          1           0      -10.310275    1.991707    2.123566
     88          1           0      -11.806827    1.085064    1.682979
     89          1           0      -11.552669    2.775459    1.260045
     90          1           0      -11.549899    1.169545   -2.333133
     91          1           0      -11.440575   -0.590859   -2.189701
     92          1           0       -8.779296    0.645294   -2.724167
     93          1           0      -10.055644    1.133942   -3.862197
     94          1           0       -9.731120   -0.551758   -3.702539
     95          1           0       -8.688142   -4.522307   -2.077180
     96          1           0       -8.839232   -4.938497   -0.380815
     97          1           0       -7.496312   -5.574906   -1.256900
     98          1           0       -2.911920   -4.103770   -0.766125
     99          1           0        0.003339   -5.688632    2.120399
    100          1           0       -1.149468   -4.976128    3.148643
    101          1           0        0.056324   -3.924830    2.401374
    102          1           0        4.305178   -1.718491   -2.218138
    103          1           0        4.784638   -2.994498   -1.193139
    104          1           0        4.203984   -0.219341    0.150630
    105          1           0        6.848595   -2.591439   -1.004394
    106          1           0        7.793789   -2.055536    0.454334
    107          1           0        7.897940   -1.422629   -1.263458
    108          1           0        7.442268    0.163651    1.321466
    109          1           0        5.859922    1.042120    1.134009
    110          1           0        6.914229    2.457077   -0.297511
    111          1           0        7.178828    1.215303   -1.389227
    112          1           0        9.342974    0.619355    0.169496
    113          1           0        9.234019    2.043105    0.938086
    114          1           0       10.674149    2.594731   -0.873069
    115          1           0        8.518323    4.095378   -0.552573
    116          1           0        8.367283    3.715611   -2.256754
    117          1           0        9.805531    4.545338   -1.646573
    118          1           0        9.364284    1.861325   -3.330102
    119          1           0        9.525670    0.471243   -2.288768
    120          1           0       11.802440    2.470709   -2.858105
    121          1           0       11.348449    1.353389   -4.011514
    122          1           0       12.694532   -0.329878   -3.042457
    123          1           0       11.739336   -0.315211   -1.586630
    124          1           0       12.737766    1.687374   -0.854695
    125          1           0       14.125931    2.874551   -2.273087
    126          1           0       14.508116    1.363270   -3.237225
    127          1           0       15.306554    1.788437   -1.719494
    128          1           0       15.053179   -0.220264   -1.039839
    129          1           0       13.654409   -1.089133   -0.663852
    130          1           0       13.623343    1.314635    0.946664
    131          1           0       15.253774    0.693381    0.851480
    132          1           0       14.915168   -0.828012    2.489997
    133          1           0       13.690634   -1.646881    1.499108
    134          1           0       13.242522    0.705665    3.368084
    135          1           0       12.150378   -1.573063    4.682847
    136          1           0       13.857417   -1.173266    5.001972
    137          1           0       13.417647   -2.368577    3.800238
    138          1           0       10.849598   -1.061102    2.833052
    139          1           0       11.358114   -0.072148    1.452280
    140          1           0       11.076588    0.717770    2.866972
 ---------------------------------------------------------------------

 SCF Done:  E(RPBE1PBE) =  -3005.35224767     A.U. after   15 cycles

 Excitation energies and oscillator strengths:

 Excited State   1:      Singlet-A      1.8683 eV  663.62 nm  f=0.3594  <S**2>=0.000
     245 -> 248        0.18208
     246 -> 247        0.69010
     246 <- 247       -0.10300
 This state for optimization and/or second-order correction.
 Total Energy, E(TD-HF/TD-DFT) =  -3005.28358896
 Copying the excited state density for this state as the 1-particle RhoCI density.

 Excited State   2:      Singlet-A      2.1802 eV  568.68 nm  f=0.1264  <S**2>=0.000
     245 -> 247        0.66012
     246 -> 248       -0.24019

 Excited State   3:      Singlet-A      2.8838 eV  429.93 nm  f=0.0001  <S**2>=0.000
     243 -> 247        0.13471
     244 -> 247        0.66088
     244 -> 249        0.15226

 Excited State   4:      Singlet-A      3.0079 eV  412.19 nm  f=0.0019  <S**2>=0.000
     243 -> 247        0.67788
     244 -> 247       -0.13840

 Excited State   5:      Singlet-A      3.0924 eV  400.94 nm  f=0.0002  <S**2>=0.000
     240 -> 247        0.61443
     240 -> 249       -0.14702
     241 -> 247        0.26281

 The electronic state is 1-A.
 Alpha  occ. eigenvalues --  -46.92020 -19.25964 -19.24897 -19.19818 -19.19144
 Alpha  occ. eigenvalues --  -19.19132 -19.18491 -14.41705 -14.41561 -14.38855
 Alpha  occ. eigenvalues --  -14.38552 -10.36524 -10.35979 -10.32050 -10.31669
 Alpha  occ. eigenvalues --  -10.30590 -10.29094 -10.28706 -10.28691 -10.28663
 Alpha  occ. eigenvalues --  -10.28285 -10.28094 -10.27339 -10.27020 -10.26713
 Alpha  occ. eigenvalues --  -10.26136 -10.26062 -10.25750 -10.25717 -10.25620
 Alpha  occ. eigenvalues --  -10.25496 -10.25454 -10.25326 -10.25183 -10.25163
 Alpha  occ. eigenvalues --  -10.25023 -10.25004 -10.24732 -10.24645 -10.24565
 Alpha  occ. eigenvalues --  -10.23974 -10.23959 -10.23922 -10.23787 -10.23755
 Alpha  occ. eigenvalues --  -10.23562 -10.23531 -10.23509 -10.23475 -10.23343
 Alpha  occ. eigenvalues --  -10.23310 -10.22976 -10.22894 -10.22724 -10.22559
 Alpha  occ. eigenvalues --  -10.22523 -10.22516 -10.22469 -10.22464 -10.22290
 Alpha  occ. eigenvalues --  -10.22125 -10.22113 -10.22076 -10.21947 -10.21819
 Alpha  occ. eigenvalues --  -10.21757  -3.14274  -1.87080  -1.86676  -1.86487
 Alpha  occ. eigenvalues --   -1.11657  -1.11228  -1.05255  -1.03986  -1.02564
 Alpha  occ. eigenvalues --   -1.02099  -1.00968  -0.98793  -0.98535  -0.97462
 Alpha  occ. eigenvalues --   -0.87768  -0.84645  -0.84104  -0.83481  -0.83287
 Alpha  occ. eigenvalues --   -0.82523  -0.82271  -0.81760  -0.81346  -0.80948
 Alpha  occ. eigenvalues --   -0.80036  -0.79909  -0.78412  -0.77870  -0.77550
 Alpha  occ. eigenvalues --   -0.76647  -0.76232  -0.75139  -0.75065  -0.74393
 Alpha  occ. eigenvalues --   -0.73898  -0.72692  -0.72097  -0.71601  -0.70848
 Alpha  occ. eigenvalues --   -0.70340  -0.69625  -0.69573  -0.69294  -0.68406
 Alpha  occ. eigenvalues --   -0.68121  -0.67256  -0.66075  -0.65512  -0.63789
 Alpha  occ. eigenvalues --   -0.63372  -0.63120  -0.62117  -0.61788  -0.60487
 Alpha  occ. eigenvalues --   -0.59630  -0.59324  -0.59094  -0.58778  -0.57910
 Alpha  occ. eigenvalues --   -0.57636  -0.57002  -0.56760  -0.56407  -0.55115
 Alpha  occ. eigenvalues --   -0.54507  -0.54376  -0.53692  -0.53330  -0.52864
 Alpha  occ. eigenvalues --   -0.51935  -0.51884  -0.50660  -0.50211  -0.49932
 Alpha  occ. eigenvalues --   -0.49606  -0.49462  -0.49180  -0.48992  -0.48600
 Alpha  occ. eigenvalues --   -0.48330  -0.47788  -0.47547  -0.47263  -0.47045
 Alpha  occ. eigenvalues --   -0.46885  -0.46817  -0.46593  -0.46513  -0.46387
 Alpha  occ. eigenvalues --   -0.46251  -0.46003  -0.45869  -0.45774  -0.45526
 Alpha  occ. eigenvalues --   -0.44769  -0.44652  -0.44441  -0.44276  -0.44108
 Alpha  occ. eigenvalues --   -0.44026  -0.43844  -0.43587  -0.43455  -0.43395
 Alpha  occ. eigenvalues --   -0.42994  -0.42928  -0.42734  -0.42575  -0.42353
 Alpha  occ. eigenvalues --   -0.42025  -0.41870  -0.41752  -0.41401  -0.41273
 Alpha  occ. eigenvalues --   -0.41028  -0.40869  -0.40765  -0.40597  -0.40403
 Alpha  occ. eigenvalues --   -0.40146  -0.40084  -0.39903  -0.39515  -0.39458
 Alpha  occ. eigenvalues --   -0.39333  -0.39082  -0.38968  -0.38839  -0.38555
 Alpha  occ. eigenvalues --   -0.38470  -0.38402  -0.38251  -0.37831  -0.37651
 Alpha  occ. eigenvalues --   -0.37603  -0.37443  -0.37319  -0.37208  -0.37114
 Alpha  occ. eigenvalues --   -0.36750  -0.36603  -0.36461  -0.36250  -0.36060
 Alpha  occ. eigenvalues --   -0.35778  -0.35700  -0.35681  -0.35477  -0.35163
 Alpha  occ. eigenvalues --   -0.34928  -0.34567  -0.34373  -0.34159  -0.33954
 Alpha  occ. eigenvalues --   -0.33679  -0.33239  -0.33214  -0.33012  -0.32803
 Alpha  occ. eigenvalues --   -0.32236  -0.32103  -0.31577  -0.31343  -0.31134
 Alpha  occ. eigenvalues --   -0.31013  -0.30126  -0.30012  -0.29887  -0.29114
 Alpha  occ. eigenvalues --   -0.28656  -0.28522  -0.28402  -0.26518  -0.25906
 Alpha  occ. eigenvalues --   -0.25363  -0.25259  -0.25119  -0.24955  -0.20674
 Alpha  occ. eigenvalues --   -0.18893
 Alpha virt. eigenvalues --   -0.11182  -0.05127  -0.03909  -0.02016  -0.00996
 Alpha virt. eigenvalues --    0.00378   0.00948   0.01366   0.01465   0.03067
 Alpha virt. eigenvalues --    0.04170   0.04266   0.04784   0.05172   0.05506

 Mulliken charges:
               1
     1  Mg   0.988005
     2  C   -0.073833
     3  C   -0.050143
     4  C   -0.048600
     5  C   -0.074306
     6  N   -0.308107
     7  C    0.030684
     8  C   -0.103928
     9  C   -0.126691
    10  C    0.082883
    11  C    0.003266
    12  C    0.061495
    13  C   -0.075553
    14  C    0.217436
    15  O   -0.276064
    16  O   -0.370956
    17  N   -0.483644
    18  C    0.147304
    19  C   -0.187718
    20  C   -0.094337
    21  C    0.143654
    22  C    0.039231
    23  C    0.040972
    24  O   -0.250093
    25  C   -0.016099
    26  N   -0.419489
    27  C    0.052919
    28  C   -0.102530
    29  C   -0.069724
    30  C    0.056662
    31  C    0.005902
    32  C   -0.037822
    33  C   -0.074957
    34  N   -0.473840
    35  C    0.154735
    36  C   -0.171690
    37  C   -0.070016
    38  C    0.199492
    39  C    0.054823
    40  C    0.157763
    41  O   -0.196172
    42  C   -0.107086
    43  C    0.259079
    44  O   -0.225983
    45  O   -0.380472
    46  C    0.118000
    47  C    0.234874
    48  C   -0.103481
    49  C   -0.237435
    50  C    0.006051
    51  C    0.047531
    52  C   -0.041272
    53  C   -0.041839
    54  C   -0.202473
    55  C   -0.029895
    56  C    0.010863
    57  C   -0.056642
    58  C    0.040061
    59  C   -0.295968
    60  C    0.014564
    61  C   -0.011588
    62  C   -0.014345
    63  C   -0.029526
    64  C   -0.232026
    65  C   -0.018016
    66  C   -0.058759
    67  H   -0.005383
    68  H    0.025234
    69  H    0.003325
    70  H    0.063251
    71  H    0.054234
    72  H    0.039869
    73  H    0.043896
    74  H    0.048883
    75  H    0.063424
    76  H    0.045609
    77  H    0.065201
    78  H    0.057186
    79  H    0.075491
    80  H    0.049760
    81  H    0.058616
    82  H    0.027934
    83  H    0.075212
    84  H    0.063268
    85  H    0.051401
    86  H    0.038284
    87  H    0.050679
    88  H    0.060259
    89  H    0.044370
    90  H    0.048428
    91  H    0.036488
    92  H    0.071459
    93  H    0.031982
    94  H    0.043126
    95  H    0.049115
    96  H    0.056527
    97  H    0.057889
    98  H    0.080324
    99  H    0.065841
   100  H    0.064262
   101  H    0.047234
   102  H    0.059738
   103  H    0.059113
   104  H    0.035461
   105  H    0.014104
   106  H    0.058698
   107  H    0.057521
   108  H    0.029291
   109  H    0.033276
   110  H    0.030839
   111  H    0.037951
   112  H    0.031977
   113  H    0.030277
   114  H    0.032658
   115  H    0.035408
   116  H    0.033681
   117  H    0.037945
   118  H    0.018213
   119  H    0.024998
   120  H    0.029889
   121  H    0.016276
   122  H    0.023488
   123  H    0.030483
   124  H    0.044904
   125  H    0.032487
   126  H    0.037513
   127  H    0.027504
   128  H    0.018730
   129  H    0.015696
   130  H    0.029757
   131  H    0.026498
   132  H    0.029862
   133  H    0.032728
   134  H    0.039713
   135  H    0.034229
   136  H    0.045703
   137  H    0.035999
   138  H    0.039269
   139  H    0.039568
   140  H    0.030738
 Sum of Mulliken charges =  -0.00000

 Dipole moment (field-independent basis, Debye):
    X=              4.7016    Y=              1.7190    Z=             -2.6317  Tot=              5.6556
 Quadrupole moment (field-independent basis, Debye-Ang):
   XX=           -366.8183   YY=           -422.8717   ZZ=           -405.9863
   XY=             -4.6949   XZ=             29.7755   YZ=              6.0359

 Normal termination of Gaussian 16 at Wed May  4 08:25:01 2022.
