 Gaussian 16, Revision A.03,
 Gaussian 16:  ES64L-G16RevA.03 25-Dec-2016

 --------------------------------
 #p wB97XD/Def2SVP td=(nstates=5)
 --------------------------------

 ----------------------------------------------------
 step_151_chromophore_13 TDDFT with wB97XD functional
 ----------------------------------------------------
 Symbolic Z-matrix:
 Charge =  0 Multiplicity = 1

                         Standard orientation:
 ---------------------------------------------------------------------
 Center     Atomic      Atomic             Coordinates (Angstroms)
 Number     Number       Type             X           Y           Z
 ---------------------------------------------------------------------
      1         12           0       -5.934173    0.449291   -0.322013
      2          6           0       -3.996991   -2.444872    0.070821
      3          6           0       -3.228165    2.225319    0.444662
      4          6           0       -8.015528    3.019417    0.464994
      5          6           0       -8.699488   -1.648136   -0.822765
      6          7           0       -3.820145   -0.129945    0.321314
      7          6           0       -3.196346   -1.292870    0.170004
      8          6           0       -1.684055   -1.222620    0.240106
      9          6           0       -1.515838    0.313621    0.579689
     10          6           0       -2.925980    0.833877    0.347744
     11          6           0       -0.925131    0.547223    2.010053
     12          6           0       -0.900468   -1.688568   -1.054869
     13          6           0        0.496186   -2.347339   -0.717945
     14          6           0        1.789490   -1.674842   -1.134341
     15          8           0        1.839144   -0.621648   -1.757064
     16          8           0        2.883167   -2.376669   -0.737752
     17          7           0       -5.626523    2.421516    0.233824
     18          6           0       -4.435342    2.988944    0.314527
     19          6           0       -4.587762    4.391859    0.495854
     20          6           0       -6.028814    4.645633    0.770223
     21          6           0       -6.624442    3.328097    0.494931
     22          6           0       -3.400334    5.444267    0.459368
     23          6           0       -6.753105    5.887573    1.260128
     24          8           0       -7.963363    5.957236    1.461346
     25          6           0       -6.013269    7.208728    1.477241
     26          7           0       -7.975467    0.625231   -0.127186
     27          6           0       -8.644275    1.771078    0.169803
     28          6           0      -10.204543    1.654312    0.011166
     29          6           0      -10.309865    0.267852   -0.634247
     30          6           0       -8.914549   -0.306190   -0.540989
     31          6           0      -11.059872    1.807573    1.354156
     32          6           0      -10.886195    0.342030   -2.081898
     33          6           0       -9.752409    0.379740   -3.135180
     34          7           0       -6.265094   -1.570867   -0.507037
     35          6           0       -7.459271   -2.278433   -0.682003
     36          6           0       -7.209181   -3.683159   -0.774841
     37          6           0       -5.870766   -3.786330   -0.348805
     38          6           0       -5.362089   -2.517113   -0.241545
     39          6           0       -8.120799   -4.687015   -1.160589
     40          6           0       -4.842180   -4.747178   -0.056812
     41          8           0       -4.969166   -5.945416    0.040348
     42          6           0       -3.559555   -3.908244    0.088943
     43          6           0       -2.826263   -4.137923    1.363139
     44          8           0       -3.243556   -4.168935    2.490356
     45          8           0       -1.494450   -4.328124    1.179126
     46          6           0       -0.592929   -4.783532    2.231592
     47          6           0        4.243551   -2.048018   -1.181614
     48          6           0        4.876317   -0.881577   -0.394904
     49          6           0        6.185117   -0.781228    0.002870
     50          6           0        7.256924   -1.749506   -0.444592
     51          6           0        6.673013    0.515080    0.632505
     52          6           0        7.372858    1.469300   -0.347563
     53          6           0        8.940669    1.614208   -0.020349
     54          6           0        9.657076    2.335736   -1.165442
     55          6           0        9.074949    3.765403   -1.429007
     56          6           0        9.908385    1.477146   -2.468223
     57          6           0       11.389519    1.464773   -2.927196
     58          6           0       12.229101    0.332964   -2.313432
     59          6           0       13.309251    0.996787   -1.474085
     60          6           0       14.357218    1.809579   -2.253993
     61          6           0       14.066522   -0.081416   -0.598782
     62          6           0       14.204321    0.400644    0.832615
     63          6           0       14.001554   -0.687619    1.912613
     64          6           0       12.991181   -0.320243    3.096599
     65          6           0       13.127741   -1.409045    4.228570
     66          6           0       11.485793   -0.231964    2.522954
     67          1           0       -2.381402    2.898447    0.599042
     68          1           0       -8.696842    3.856068    0.636053
     69          1           0       -9.554294   -2.284865   -1.060358
     70          1           0       -1.210295   -1.789030    1.042387
     71          1           0       -0.757414    0.723834   -0.087613
     72          1           0       -0.566780   -0.359956    2.496666
     73          1           0       -1.738390    0.863340    2.663851
     74          1           0       -0.169942    1.329424    2.081932
     75          1           0       -0.603153   -0.837337   -1.666062
     76          1           0       -1.388289   -2.488381   -1.611887
     77          1           0        0.563042   -3.287912   -1.264657
     78          1           0        0.695728   -2.622933    0.316877
     79          1           0       -3.617535    6.177315   -0.317162
     80          1           0       -2.438506    4.946815    0.335926
     81          1           0       -3.454161    5.983807    1.404717
     82          1           0       -5.256188    7.135894    0.696291
     83          1           0       -5.593133    7.160656    2.481987
     84          1           0       -6.635387    8.084837    1.295362
     85          1           0      -10.374581    2.452482   -0.712186
     86          1           0      -10.977411   -0.293049    0.020196
     87          1           0      -10.310275    1.991707    2.123566
     88          1           0      -11.806827    1.085064    1.682979
     89          1           0      -11.552669    2.775459    1.260045
     90          1           0      -11.549899    1.169545   -2.333133
     91          1           0      -11.440575   -0.590859   -2.189701
     92          1           0       -8.779296    0.645294   -2.724167
     93          1           0      -10.055644    1.133942   -3.862197
     94          1           0       -9.731120   -0.551758   -3.702539
     95          1           0       -8.688142   -4.522307   -2.077180
     96          1           0       -8.839232   -4.938497   -0.380815
     97          1           0       -7.496312   -5.574906   -1.256900
     98          1           0       -2.911920   -4.103770   -0.766125
     99          1           0        0.003339   -5.688632    2.120399
    100          1           0       -1.149468   -4.976128    3.148643
    101          1           0        0.056324   -3.924830    2.401374
    102          1           0        4.305178   -1.718491   -2.218138
    103          1           0        4.784638   -2.994498   -1.193139
    104          1           0        4.203984   -0.219341    0.150630
    105          1           0        6.848595   -2.591439   -1.004394
    106          1           0        7.793789   -2.055536    0.454334
    107          1           0        7.897940   -1.422629   -1.263458
    108          1           0        7.442268    0.163651    1.321466
    109          1           0        5.859922    1.042120    1.134009
    110          1           0        6.914229    2.457077   -0.297511
    111          1           0        7.178828    1.215303   -1.389227
    112          1           0        9.342974    0.619355    0.169496
    113          1           0        9.234019    2.043105    0.938086
    114          1           0       10.674149    2.594731   -0.873069
    115          1           0        8.518323    4.095378   -0.552573
    116          1           0        8.367283    3.715611   -2.256754
    117          1           0        9.805531    4.545338   -1.646573
    118          1           0        9.364284    1.861325   -3.330102
    119          1           0        9.525670    0.471243   -2.288768
    120          1           0       11.802440    2.470709   -2.858105
    121          1           0       11.348449    1.353389   -4.011514
    122          1           0       12.694532   -0.329878   -3.042457
    123          1           0       11.739336   -0.315211   -1.586630
    124          1           0       12.737766    1.687374   -0.854695
    125          1           0       14.125931    2.874551   -2.273087
    126          1           0       14.508116    1.363270   -3.237225
    127          1           0       15.306554    1.788437   -1.719494
    128          1           0       15.053179   -0.220264   -1.039839
    129          1           0       13.654409   -1.089133   -0.663852
    130          1           0       13.623343    1.314635    0.946664
    131          1           0       15.253774    0.693381    0.851480
    132          1           0       14.915168   -0.828012    2.489997
    133          1           0       13.690634   -1.646881    1.499108
    134          1           0       13.242522    0.705665    3.368084
    135          1           0       12.150378   -1.573063    4.682847
    136          1           0       13.857417   -1.173266    5.001972
    137          1           0       13.417647   -2.368577    3.800238
    138          1           0       10.849598   -1.061102    2.833052
    139          1           0       11.358114   -0.072148    1.452280
    140          1           0       11.076588    0.717770    2.866972
 ---------------------------------------------------------------------

 SCF Done:  E(RwB97XD) =  -3007.86561383     A.U. after   19 cycles

 Excitation energies and oscillator strengths:

 Excited State   1:      Singlet-A      1.6594 eV  747.15 nm  f=0.3713  <S**2>=0.000
     245 -> 248       -0.19553
     246 -> 247        0.68084
     245 <- 248       -0.11883
 This state for optimization and/or second-order correction.
 Total Energy, E(TD-HF/TD-DFT) =  -3007.80463135
 Copying the excited state density for this state as the 1-particle RhoCI density.

 Excited State   2:      Singlet-A      2.1211 eV  584.54 nm  f=0.1309  <S**2>=0.000
     245 -> 247        0.64840
     246 -> 248        0.26802

 Excited State   3:      Singlet-A      3.3453 eV  370.63 nm  f=0.0071  <S**2>=0.000
     243 -> 247       -0.19171
     244 -> 247        0.64902
     246 -> 248        0.11322

 Excited State   4:      Singlet-A      3.4525 eV  359.12 nm  f=0.0339  <S**2>=0.000
     243 -> 247        0.57720
     244 -> 247        0.21548
     246 -> 248       -0.29344

 Excited State   5:      Singlet-A      3.4706 eV  357.24 nm  f=0.0153  <S**2>=0.000
     241 -> 247        0.52925
     241 -> 248        0.13395
     241 -> 249       -0.33348
     241 -> 250        0.19986
     246 -> 248       -0.13042

 The electronic state is 1-A.
 Alpha  occ. eigenvalues --  -46.94941 -19.30531 -19.29517 -19.24476 -19.23970
 Alpha  occ. eigenvalues --  -19.23893 -19.23336 -14.46910 -14.46521 -14.43796
 Alpha  occ. eigenvalues --  -14.43438 -10.43299 -10.42848 -10.38924 -10.38543
 Alpha  occ. eigenvalues --  -10.37088 -10.35639 -10.35019 -10.35005 -10.34957
 Alpha  occ. eigenvalues --  -10.34534 -10.34444 -10.33756 -10.33613 -10.32923
 Alpha  occ. eigenvalues --  -10.32517 -10.32389 -10.32029 -10.31983 -10.31981
 Alpha  occ. eigenvalues --  -10.31906 -10.31675 -10.31651 -10.31611 -10.31580
 Alpha  occ. eigenvalues --  -10.31544 -10.31511 -10.31060 -10.30916 -10.30732
 Alpha  occ. eigenvalues --  -10.30368 -10.30230 -10.30216 -10.30180 -10.30085
 Alpha  occ. eigenvalues --  -10.29927 -10.29900 -10.29868 -10.29851 -10.29731
 Alpha  occ. eigenvalues --  -10.29655 -10.29614 -10.29160 -10.29090 -10.28945
 Alpha  occ. eigenvalues --  -10.28933 -10.28888 -10.28832 -10.28831 -10.28715
 Alpha  occ. eigenvalues --  -10.28555 -10.28502 -10.28456 -10.28261 -10.28214
 Alpha  occ. eigenvalues --  -10.28106  -3.21051  -1.94606  -1.94204  -1.94013
 Alpha  occ. eigenvalues --   -1.19087  -1.18604  -1.12733  -1.11506  -1.09897
 Alpha  occ. eigenvalues --   -1.09505  -1.08366  -1.06103  -1.05900  -1.04796
 Alpha  occ. eigenvalues --   -0.95392  -0.92340  -0.91777  -0.91108  -0.90828
 Alpha  occ. eigenvalues --   -0.90064  -0.89949  -0.89353  -0.88916  -0.88634
 Alpha  occ. eigenvalues --   -0.87821  -0.87554  -0.86055  -0.85513  -0.85175
 Alpha  occ. eigenvalues --   -0.84303  -0.83833  -0.82887  -0.82730  -0.82062
 Alpha  occ. eigenvalues --   -0.81570  -0.80311  -0.79781  -0.79237  -0.78464
 Alpha  occ. eigenvalues --   -0.78025  -0.77329  -0.77160  -0.76983  -0.76056
 Alpha  occ. eigenvalues --   -0.75765  -0.74777  -0.73631  -0.73096  -0.71332
 Alpha  occ. eigenvalues --   -0.70992  -0.70688  -0.69775  -0.69349  -0.68017
 Alpha  occ. eigenvalues --   -0.67269  -0.66791  -0.66482  -0.66207  -0.65589
 Alpha  occ. eigenvalues --   -0.65067  -0.64412  -0.64404  -0.64021  -0.62578
 Alpha  occ. eigenvalues --   -0.61977  -0.61892  -0.61178  -0.60681  -0.60289
 Alpha  occ. eigenvalues --   -0.59451  -0.59267  -0.57982  -0.57677  -0.57340
 Alpha  occ. eigenvalues --   -0.57049  -0.56889  -0.56605  -0.56413  -0.56099
 Alpha  occ. eigenvalues --   -0.55722  -0.55147  -0.54959  -0.54668  -0.54448
 Alpha  occ. eigenvalues --   -0.54237  -0.54205  -0.54100  -0.53913  -0.53788
 Alpha  occ. eigenvalues --   -0.53708  -0.53395  -0.53270  -0.53067  -0.52879
 Alpha  occ. eigenvalues --   -0.52121  -0.51992  -0.51809  -0.51648  -0.51492
 Alpha  occ. eigenvalues --   -0.51432  -0.51183  -0.50881  -0.50774  -0.50676
 Alpha  occ. eigenvalues --   -0.50266  -0.50231  -0.50005  -0.49843  -0.49610
 Alpha  occ. eigenvalues --   -0.49270  -0.49185  -0.49106  -0.48638  -0.48496
 Alpha  occ. eigenvalues --   -0.48199  -0.48059  -0.47921  -0.47826  -0.47520
 Alpha  occ. eigenvalues --   -0.47368  -0.47182  -0.47029  -0.46758  -0.46594
 Alpha  occ. eigenvalues --   -0.46527  -0.46269  -0.46094  -0.45992  -0.45720
 Alpha  occ. eigenvalues --   -0.45674  -0.45484  -0.45432  -0.44919  -0.44806
 Alpha  occ. eigenvalues --   -0.44690  -0.44570  -0.44441  -0.44317  -0.44138
 Alpha  occ. eigenvalues --   -0.43913  -0.43849  -0.43600  -0.43333  -0.43172
 Alpha  occ. eigenvalues --   -0.42843  -0.42799  -0.42747  -0.42598  -0.42251
 Alpha  occ. eigenvalues --   -0.41941  -0.41633  -0.41351  -0.41084  -0.40968
 Alpha  occ. eigenvalues --   -0.40700  -0.40295  -0.40157  -0.40107  -0.39713
 Alpha  occ. eigenvalues --   -0.39203  -0.39112  -0.38570  -0.38310  -0.38106
 Alpha  occ. eigenvalues --   -0.38099  -0.36923  -0.36892  -0.36816  -0.36169
 Alpha  occ. eigenvalues --   -0.35740  -0.35440  -0.35245  -0.33133  -0.32938
 Alpha  occ. eigenvalues --   -0.32191  -0.31983  -0.31878  -0.31644  -0.25596
 Alpha  occ. eigenvalues --   -0.23102
 Alpha virt. eigenvalues --   -0.07069   0.00310   0.02334   0.04495   0.04944
 Alpha virt. eigenvalues --    0.07047   0.07652   0.08161   0.08367   0.09776
 Alpha virt. eigenvalues --    0.10742   0.11114   0.11178   0.11929   0.12174

 Mulliken charges:
               1
     1  Mg   0.976367
     2  C   -0.075650
     3  C   -0.061426
     4  C   -0.069804
     5  C   -0.104609
     6  N   -0.271980
     7  C   -0.005421
     8  C   -0.067903
     9  C   -0.106097
    10  C    0.068119
    11  C    0.013370
    12  C    0.072083
    13  C   -0.056303
    14  C    0.204412
    15  O   -0.272271
    16  O   -0.369467
    17  N   -0.450080
    18  C    0.136324
    19  C   -0.180980
    20  C   -0.089122
    21  C    0.138976
    22  C    0.054837
    23  C    0.037271
    24  O   -0.244375
    25  C   -0.000345
    26  N   -0.389218
    27  C    0.041450
    28  C   -0.081221
    29  C   -0.047107
    30  C    0.058777
    31  C    0.017370
    32  C   -0.027243
    33  C   -0.053018
    34  N   -0.436657
    35  C    0.151380
    36  C   -0.166876
    37  C   -0.061518
    38  C    0.184736
    39  C    0.062884
    40  C    0.131393
    41  O   -0.184942
    42  C   -0.066380
    43  C    0.233813
    44  O   -0.219369
    45  O   -0.376637
    46  C    0.133887
    47  C    0.249166
    48  C   -0.115199
    49  C   -0.221032
    50  C    0.018818
    51  C    0.070640
    52  C   -0.030964
    53  C   -0.012737
    54  C   -0.170115
    55  C   -0.018806
    56  C    0.024569
    57  C   -0.031943
    58  C    0.049748
    59  C   -0.250096
    60  C    0.023031
    61  C    0.002463
    62  C    0.001178
    63  C   -0.012064
    64  C   -0.204693
    65  C   -0.005245
    66  C   -0.039766
    67  H   -0.014019
    68  H    0.020766
    69  H   -0.000523
    70  H    0.039041
    71  H    0.045289
    72  H    0.034886
    73  H    0.036878
    74  H    0.044384
    75  H    0.055556
    76  H    0.036977
    77  H    0.059665
    78  H    0.046072
    79  H    0.070835
    80  H    0.046617
    81  H    0.051932
    82  H    0.017988
    83  H    0.071582
    84  H    0.062494
    85  H    0.040558
    86  H    0.027963
    87  H    0.043681
    88  H    0.056372
    89  H    0.038459
    90  H    0.041649
    91  H    0.029082
    92  H    0.057383
    93  H    0.026390
    94  H    0.037457
    95  H    0.044663
    96  H    0.051728
    97  H    0.052612
    98  H    0.072802
    99  H    0.062468
   100  H    0.060991
   101  H    0.042627
   102  H    0.055090
   103  H    0.055057
   104  H    0.032294
   105  H    0.007784
   106  H    0.053778
   107  H    0.050730
   108  H    0.017726
   109  H    0.028178
   110  H    0.022564
   111  H    0.027689
   112  H    0.011289
   113  H    0.022552
   114  H    0.015411
   115  H    0.028154
   116  H    0.026442
   117  H    0.033866
   118  H    0.010685
   119  H    0.010958
   120  H    0.017186
   121  H    0.009296
   122  H    0.016089
   123  H    0.018691
   124  H    0.018629
   125  H    0.027784
   126  H    0.031547
   127  H    0.020246
   128  H    0.009685
   129  H    0.006423
   130  H    0.020828
   131  H    0.018862
   132  H    0.020757
   133  H    0.022479
   134  H    0.029842
   135  H    0.028075
   136  H    0.040733
   137  H    0.029338
   138  H    0.033632
   139  H    0.024047
   140  H    0.023894
 Sum of Mulliken charges =  -0.00000

 Dipole moment (field-independent basis, Debye):
    X=              4.8873    Y=              1.9351    Z=             -2.5818  Tot=              5.8563
 Quadrupole moment (field-independent basis, Debye-Ang):
   XX=           -369.4145   YY=           -420.7715   ZZ=           -405.5386
   XY=             -6.1746   XZ=             29.6825   YZ=              6.2122

 Normal termination of Gaussian 16 at Wed May  4 08:53:13 2022.
