 Gaussian 16, Revision A.03,
 Gaussian 16:  ES64L-G16RevA.03 25-Dec-2016

 --------------------
 #p ZINDO=(nstates=5)
 --------------------

 -----------------------------
 step_151_chromophore_13 ZINDO
 -----------------------------
 Symbolic Z-matrix:
 Charge =  0 Multiplicity = 1

                         Standard orientation:
 ---------------------------------------------------------------------
 Center     Atomic      Atomic             Coordinates (Angstroms)
 Number     Number       Type             X           Y           Z
 ---------------------------------------------------------------------
      1         12           0       -5.934173    0.449291   -0.322013
      2          6           0       -3.996991   -2.444872    0.070821
      3          6           0       -3.228165    2.225319    0.444662
      4          6           0       -8.015528    3.019417    0.464994
      5          6           0       -8.699488   -1.648136   -0.822765
      6          7           0       -3.820145   -0.129945    0.321314
      7          6           0       -3.196346   -1.292870    0.170004
      8          6           0       -1.684055   -1.222620    0.240106
      9          6           0       -1.515838    0.313621    0.579689
     10          6           0       -2.925980    0.833877    0.347744
     11          6           0       -0.925131    0.547223    2.010053
     12          6           0       -0.900468   -1.688568   -1.054869
     13          6           0        0.496186   -2.347339   -0.717945
     14          6           0        1.789490   -1.674842   -1.134341
     15          8           0        1.839144   -0.621648   -1.757064
     16          8           0        2.883167   -2.376669   -0.737752
     17          7           0       -5.626523    2.421516    0.233824
     18          6           0       -4.435342    2.988944    0.314527
     19          6           0       -4.587762    4.391859    0.495854
     20          6           0       -6.028814    4.645633    0.770223
     21          6           0       -6.624442    3.328097    0.494931
     22          6           0       -3.400334    5.444267    0.459368
     23          6           0       -6.753105    5.887573    1.260128
     24          8           0       -7.963363    5.957236    1.461346
     25          6           0       -6.013269    7.208728    1.477241
     26          7           0       -7.975467    0.625231   -0.127186
     27          6           0       -8.644275    1.771078    0.169803
     28          6           0      -10.204543    1.654312    0.011166
     29          6           0      -10.309865    0.267852   -0.634247
     30          6           0       -8.914549   -0.306190   -0.540989
     31          6           0      -11.059872    1.807573    1.354156
     32          6           0      -10.886195    0.342030   -2.081898
     33          6           0       -9.752409    0.379740   -3.135180
     34          7           0       -6.265094   -1.570867   -0.507037
     35          6           0       -7.459271   -2.278433   -0.682003
     36          6           0       -7.209181   -3.683159   -0.774841
     37          6           0       -5.870766   -3.786330   -0.348805
     38          6           0       -5.362089   -2.517113   -0.241545
     39          6           0       -8.120799   -4.687015   -1.160589
     40          6           0       -4.842180   -4.747178   -0.056812
     41          8           0       -4.969166   -5.945416    0.040348
     42          6           0       -3.559555   -3.908244    0.088943
     43          6           0       -2.826263   -4.137923    1.363139
     44          8           0       -3.243556   -4.168935    2.490356
     45          8           0       -1.494450   -4.328124    1.179126
     46          6           0       -0.592929   -4.783532    2.231592
     47          6           0        4.243551   -2.048018   -1.181614
     48          6           0        4.876317   -0.881577   -0.394904
     49          6           0        6.185117   -0.781228    0.002870
     50          6           0        7.256924   -1.749506   -0.444592
     51          6           0        6.673013    0.515080    0.632505
     52          6           0        7.372858    1.469300   -0.347563
     53          6           0        8.940669    1.614208   -0.020349
     54          6           0        9.657076    2.335736   -1.165442
     55          6           0        9.074949    3.765403   -1.429007
     56          6           0        9.908385    1.477146   -2.468223
     57          6           0       11.389519    1.464773   -2.927196
     58          6           0       12.229101    0.332964   -2.313432
     59          6           0       13.309251    0.996787   -1.474085
     60          6           0       14.357218    1.809579   -2.253993
     61          6           0       14.066522   -0.081416   -0.598782
     62          6           0       14.204321    0.400644    0.832615
     63          6           0       14.001554   -0.687619    1.912613
     64          6           0       12.991181   -0.320243    3.096599
     65          6           0       13.127741   -1.409045    4.228570
     66          6           0       11.485793   -0.231964    2.522954
     67          1           0       -2.381402    2.898447    0.599042
     68          1           0       -8.696842    3.856068    0.636053
     69          1           0       -9.554294   -2.284865   -1.060358
     70          1           0       -1.210295   -1.789030    1.042387
     71          1           0       -0.757414    0.723834   -0.087613
     72          1           0       -0.566780   -0.359956    2.496666
     73          1           0       -1.738390    0.863340    2.663851
     74          1           0       -0.169942    1.329424    2.081932
     75          1           0       -0.603153   -0.837337   -1.666062
     76          1           0       -1.388289   -2.488381   -1.611887
     77          1           0        0.563042   -3.287912   -1.264657
     78          1           0        0.695728   -2.622933    0.316877
     79          1           0       -3.617535    6.177315   -0.317162
     80          1           0       -2.438506    4.946815    0.335926
     81          1           0       -3.454161    5.983807    1.404717
     82          1           0       -5.256188    7.135894    0.696291
     83          1           0       -5.593133    7.160656    2.481987
     84          1           0       -6.635387    8.084837    1.295362
     85          1           0      -10.374581    2.452482   -0.712186
     86          1           0      -10.977411   -0.293049    0.020196
     87          1           0      -10.310275    1.991707    2.123566
     88          1           0      -11.806827    1.085064    1.682979
     89          1           0      -11.552669    2.775459    1.260045
     90          1           0      -11.549899    1.169545   -2.333133
     91          1           0      -11.440575   -0.590859   -2.189701
     92          1           0       -8.779296    0.645294   -2.724167
     93          1           0      -10.055644    1.133942   -3.862197
     94          1           0       -9.731120   -0.551758   -3.702539
     95          1           0       -8.688142   -4.522307   -2.077180
     96          1           0       -8.839232   -4.938497   -0.380815
     97          1           0       -7.496312   -5.574906   -1.256900
     98          1           0       -2.911920   -4.103770   -0.766125
     99          1           0        0.003339   -5.688632    2.120399
    100          1           0       -1.149468   -4.976128    3.148643
    101          1           0        0.056324   -3.924830    2.401374
    102          1           0        4.305178   -1.718491   -2.218138
    103          1           0        4.784638   -2.994498   -1.193139
    104          1           0        4.203984   -0.219341    0.150630
    105          1           0        6.848595   -2.591439   -1.004394
    106          1           0        7.793789   -2.055536    0.454334
    107          1           0        7.897940   -1.422629   -1.263458
    108          1           0        7.442268    0.163651    1.321466
    109          1           0        5.859922    1.042120    1.134009
    110          1           0        6.914229    2.457077   -0.297511
    111          1           0        7.178828    1.215303   -1.389227
    112          1           0        9.342974    0.619355    0.169496
    113          1           0        9.234019    2.043105    0.938086
    114          1           0       10.674149    2.594731   -0.873069
    115          1           0        8.518323    4.095378   -0.552573
    116          1           0        8.367283    3.715611   -2.256754
    117          1           0        9.805531    4.545338   -1.646573
    118          1           0        9.364284    1.861325   -3.330102
    119          1           0        9.525670    0.471243   -2.288768
    120          1           0       11.802440    2.470709   -2.858105
    121          1           0       11.348449    1.353389   -4.011514
    122          1           0       12.694532   -0.329878   -3.042457
    123          1           0       11.739336   -0.315211   -1.586630
    124          1           0       12.737766    1.687374   -0.854695
    125          1           0       14.125931    2.874551   -2.273087
    126          1           0       14.508116    1.363270   -3.237225
    127          1           0       15.306554    1.788437   -1.719494
    128          1           0       15.053179   -0.220264   -1.039839
    129          1           0       13.654409   -1.089133   -0.663852
    130          1           0       13.623343    1.314635    0.946664
    131          1           0       15.253774    0.693381    0.851480
    132          1           0       14.915168   -0.828012    2.489997
    133          1           0       13.690634   -1.646881    1.499108
    134          1           0       13.242522    0.705665    3.368084
    135          1           0       12.150378   -1.573063    4.682847
    136          1           0       13.857417   -1.173266    5.001972
    137          1           0       13.417647   -2.368577    3.800238
    138          1           0       10.849598   -1.061102    2.833052
    139          1           0       11.358114   -0.072148    1.452280
    140          1           0       11.076588    0.717770    2.866972
 ---------------------------------------------------------------------

 SCF Done:  E(RZINDO/S) =  -474.386963237     A.U. after   18 cycles

 Excitation energies and oscillator strengths:

 Excited State   1:      Singlet-A      1.2330 eV 1005.58 nm  f=0.5781  <S**2>=0.000
     175 ->178        -0.20561
     176 ->177         0.65906
 This state for optimization and/or second-order correction.
 Total Energy, E(CIS/TDA) =  -474.341652625
 Copying the excited state density for this state as the 1-particle RhoCI density.

 Excited State   2:      Singlet-A      1.8551 eV  668.33 nm  f=0.0779  <S**2>=0.000
     175 ->177         0.57136
     176 ->178         0.38982

 Excited State   3:      Singlet-A      2.9064 eV  426.59 nm  f=0.0105  <S**2>=0.000
     169 ->177         0.26433
     169 ->179        -0.33754
     169 ->180         0.13759
     169 ->181        -0.22789
     169 ->186        -0.19873
     169 ->187        -0.13413
     170 ->177         0.15625
     170 ->179        -0.19957
     170 ->181        -0.12824
     170 ->186        -0.11589

 Excited State   4:      Singlet-A      2.9856 eV  415.27 nm  f=0.7706  <S**2>=0.000
     170 ->177         0.10364
     171 ->177         0.16128
     175 ->177        -0.29425
     176 ->178         0.47950
     176 ->179         0.23504

 Excited State   5:      Singlet-A      3.0078 eV  412.20 nm  f=0.1828  <S**2>=0.000
     168 ->177         0.23817
     168 ->178         0.10753
     168 ->179         0.22241
     168 ->180         0.13833
     168 ->181        -0.19245
     168 ->186         0.13491
     170 ->177         0.21614
     170 ->179         0.19462
     170 ->180         0.11619
     170 ->181        -0.16981
     170 ->186         0.12524
     175 ->177         0.13469
     176 ->178        -0.21155

 The electronic state is 1-A.
 Alpha  occ. eigenvalues --   -1.87102  -1.82291  -1.81458  -1.73917  -1.73060
 Alpha  occ. eigenvalues --   -1.71605  -1.66289  -1.60365  -1.59603  -1.58206
 Alpha  occ. eigenvalues --   -1.53903  -1.51085  -1.49321  -1.48402  -1.45904
 Alpha  occ. eigenvalues --   -1.43935  -1.42969  -1.39481  -1.38560  -1.37221
 Alpha  occ. eigenvalues --   -1.36509  -1.34974  -1.32118  -1.30838  -1.28817
 Alpha  occ. eigenvalues --   -1.26141  -1.24197  -1.21549  -1.20057  -1.18731
 Alpha  occ. eigenvalues --   -1.17201  -1.16655  -1.15134  -1.14250  -1.13731
 Alpha  occ. eigenvalues --   -1.12533  -1.10877  -1.10135  -1.06150  -1.05027
 Alpha  occ. eigenvalues --   -1.04526  -1.01618  -1.00659  -0.98208  -0.97967
 Alpha  occ. eigenvalues --   -0.97382  -0.95534  -0.94029  -0.93474  -0.92573
 Alpha  occ. eigenvalues --   -0.89991  -0.88761  -0.88708  -0.87780  -0.85348
 Alpha  occ. eigenvalues --   -0.84985  -0.83611  -0.82518  -0.81884  -0.80994
 Alpha  occ. eigenvalues --   -0.80147  -0.79179  -0.76915  -0.76682  -0.76498
 Alpha  occ. eigenvalues --   -0.76067  -0.75355  -0.74890  -0.74249  -0.74104
 Alpha  occ. eigenvalues --   -0.73532  -0.72896  -0.72519  -0.71622  -0.71375
 Alpha  occ. eigenvalues --   -0.70640  -0.70436  -0.69035  -0.67875  -0.67704
 Alpha  occ. eigenvalues --   -0.67207  -0.66698  -0.65846  -0.65606  -0.65302
 Alpha  occ. eigenvalues --   -0.64827  -0.63881  -0.63637  -0.63289  -0.63086
 Alpha  occ. eigenvalues --   -0.62799  -0.62696  -0.62621  -0.62385  -0.62096
 Alpha  occ. eigenvalues --   -0.61684  -0.61106  -0.60884  -0.60620  -0.60023
 Alpha  occ. eigenvalues --   -0.59492  -0.59201  -0.58767  -0.58609  -0.58343
 Alpha  occ. eigenvalues --   -0.57849  -0.57357  -0.57174  -0.56713  -0.56366
 Alpha  occ. eigenvalues --   -0.56047  -0.55895  -0.55372  -0.54666  -0.54582
 Alpha  occ. eigenvalues --   -0.54037  -0.53585  -0.53254  -0.52974  -0.52733
 Alpha  occ. eigenvalues --   -0.52444  -0.51785  -0.51762  -0.51671  -0.51533
 Alpha  occ. eigenvalues --   -0.51321  -0.51037  -0.50726  -0.50290  -0.50210
 Alpha  occ. eigenvalues --   -0.49837  -0.49474  -0.49364  -0.49206  -0.49140
 Alpha  occ. eigenvalues --   -0.48970  -0.48745  -0.48643  -0.48418  -0.48128
 Alpha  occ. eigenvalues --   -0.47946  -0.47788  -0.47130  -0.47058  -0.46866
 Alpha  occ. eigenvalues --   -0.46522  -0.46187  -0.46120  -0.45768  -0.45394
 Alpha  occ. eigenvalues --   -0.45196  -0.44985  -0.44678  -0.44523  -0.44295
 Alpha  occ. eigenvalues --   -0.43388  -0.43149  -0.42615  -0.42400  -0.41999
 Alpha  occ. eigenvalues --   -0.41601  -0.41429  -0.40878  -0.38789  -0.38674
 Alpha  occ. eigenvalues --   -0.37786  -0.37601  -0.34932  -0.34700  -0.34604
 Alpha  occ. eigenvalues --   -0.32563  -0.32348  -0.32144  -0.31789  -0.26113
 Alpha  occ. eigenvalues --   -0.21810
 Alpha virt. eigenvalues --   -0.08561  -0.01974  -0.00336   0.01548   0.01753
 Alpha virt. eigenvalues --    0.02257   0.03048   0.03365   0.03976   0.05005
 Alpha virt. eigenvalues --    0.06302   0.06897   0.07263   0.07893   0.08335

 Mulliken charges:
               1
     1  Mg   0.431438
     2  C   -0.049550
     3  C   -0.085849
     4  C   -0.075282
     5  C   -0.073139
     6  N   -0.251865
     7  C    0.129116
     8  C   -0.002529
     9  C    0.002915
    10  C    0.138445
    11  C   -0.052532
    12  C   -0.026293
    13  C   -0.004677
    14  C    0.472667
    15  O   -0.534012
    16  O   -0.278881
    17  N   -0.318346
    18  C    0.125053
    19  C   -0.000785
    20  C   -0.062925
    21  C    0.139366
    22  C   -0.047309
    23  C    0.326021
    24  O   -0.530196
    25  C   -0.032835
    26  N   -0.273884
    27  C    0.136903
    28  C   -0.002630
    29  C    0.005452
    30  C    0.134855
    31  C   -0.057065
    32  C   -0.029938
    33  C   -0.057997
    34  N   -0.338552
    35  C    0.091190
    36  C    0.041641
    37  C   -0.056273
    38  C    0.124893
    39  C   -0.030558
    40  C    0.337446
    41  O   -0.513822
    42  C    0.060636
    43  C    0.492563
    44  O   -0.522570
    45  O   -0.296282
    46  C    0.075626
    47  C    0.109610
    48  C   -0.090430
    49  C   -0.009903
    50  C   -0.049389
    51  C   -0.017917
    52  C   -0.029551
    53  C   -0.032045
    54  C   -0.015469
    55  C   -0.057522
    56  C   -0.034318
    57  C   -0.032225
    58  C   -0.029130
    59  C   -0.017253
    60  C   -0.056468
    61  C   -0.040977
    62  C   -0.035740
    63  C   -0.038072
    64  C   -0.019991
    65  C   -0.054011
    66  C   -0.069571
    67  H    0.018045
    68  H    0.046805
    69  H    0.029896
    70  H    0.042941
    71  H    0.032176
    72  H    0.023672
    73  H    0.017269
    74  H    0.024731
    75  H    0.045246
    76  H    0.030369
    77  H    0.038121
    78  H    0.045795
    79  H    0.034024
    80  H    0.033306
    81  H    0.028233
    82  H    0.025542
    83  H    0.046713
    84  H    0.046004
    85  H    0.036412
    86  H    0.024625
    87  H    0.025328
    88  H    0.039029
    89  H    0.016160
    90  H    0.029156
    91  H    0.013431
    92  H    0.037564
    93  H    0.007972
    94  H    0.020683
    95  H    0.029812
    96  H    0.035214
    97  H    0.027448
    98  H    0.052284
    99  H    0.047419
   100  H    0.047799
   101  H    0.028492
   102  H    0.048947
   103  H    0.040917
   104  H    0.041041
   105  H    0.015142
   106  H    0.032957
   107  H    0.031781
   108  H    0.021286
   109  H    0.026706
   110  H    0.017712
   111  H    0.028741
   112  H    0.010993
   113  H    0.024003
   114  H    0.009763
   115  H    0.015257
   116  H    0.016795
   117  H    0.020531
   118  H    0.014772
   119  H    0.018456
   120  H    0.027323
   121  H    0.004122
   122  H    0.019967
   123  H    0.020010
   124  H    0.021434
   125  H    0.017328
   126  H    0.024139
   127  H    0.012309
   128  H    0.012704
   129  H    0.016776
   130  H    0.028535
   131  H    0.012520
   132  H    0.013127
   133  H    0.025338
   134  H    0.027922
   135  H    0.016635
   136  H    0.022774
   137  H    0.019768
   138  H    0.024089
   139  H    0.020499
   140  H    0.009882
 Sum of Mulliken charges =  -0.00000

 Dipole moment (field-independent basis, Debye):
    X=              6.1389    Y=              2.7021    Z=             -4.0032  Tot=              7.8111
 N-N= 4.285934608678D+03 E-N= 0.000000000000D+00  KE=-9.246316164131D+03
 Leave Link  601 at Wed May  4 09:06:48 2022, MaxMem=  6710886400 cpu:               0.7 elap:               0.0
 (Enter /sw/apps/gaussian-16.0/g16/l9999.exe)
 1\1\GINC-BP1-COMPUTE128\SP\RZINDO CIS\STO-3G\C55H74Mg1N4O6\OF15641\04-
 May-2022\0\\#p ZINDO=(nstates=5)\\step_151_chromophore_13 ZINDO\\0,1\M
 g,0,46.583,24.927,28.56\C,0,47.462,27.334,30.951\C,0,45.855,22.868,31.
 069\C,0,46.91,22.356,26.36\C,0,47.682,27.178,26.106\N,0,46.78,25.104,3
 0.829\C,0,46.902,26.201,31.568\C,0,46.518,26.038,33.025\C,0,46.205,24.
 487,33.034\C,0,46.199,24.168,31.547\C,0,47.223,23.678,33.905\C,0,45.32
 4,26.942,33.54\C,0,45.478,27.347,35.06\C,0,44.501,26.835,36.1\O,0,43.5

 Normal termination of Gaussian 16 at Wed May  4 09:06:48 2022.
