 Gaussian 16, Revision A.03,
 Gaussian 16:  ES64L-G16RevA.03 25-Dec-2016

 ------------------------------
 #p blyp/Def2SVP td=(nstates=5)
 ------------------------------

 ---------------------------------------------------
 step_1301_chromophore_21 TDDFT with blyp functional
 ---------------------------------------------------
 Symbolic Z-matrix:
 Charge =  0 Multiplicity = 1

                         Standard orientation:
 ---------------------------------------------------------------------
 Center     Atomic      Atomic             Coordinates (Angstroms)
 Number     Number       Type             X           Y           Z
 ---------------------------------------------------------------------
      1         12           0        5.218337    1.097537    0.254403
      2          6           0        4.711127   -2.305634    0.103856
      3          6           0        1.855174    1.601863    0.129676
      4          6           0        5.846210    4.400686    0.055875
      5          6           0        8.637590    0.408020   -0.387484
      6          7           0        3.535557   -0.218112   -0.017117
      7          6           0        3.486505   -1.541009    0.201255
      8          6           0        2.088780   -2.048984    0.441625
      9          6           0        1.172802   -0.784781    0.099454
     10          6           0        2.249265    0.313751   -0.042112
     11          6           0        0.404866   -0.969979   -1.316702
     12          6           0        1.975082   -2.613623    1.909104
     13          6           0        1.267465   -3.959649    2.031547
     14          6           0        0.221675   -4.403121    0.990233
     15          8           0        0.352691   -5.232269    0.125005
     16          8           0       -0.926046   -3.645418    1.019015
     17          7           0        3.950637    2.783352    0.334412
     18          6           0        2.592459    2.785340    0.295102
     19          6           0        2.165315    4.149504    0.316355
     20          6           0        3.332318    4.957156    0.321709
     21          6           0        4.488440    4.063952    0.263705
     22          6           0        0.675418    4.458846    0.270532
     23          6           0        3.510040    6.464211    0.266447
     24          8           0        4.596490    7.067922    0.230995
     25          6           0        2.315934    7.313060    0.154099
     26          7           0        6.988855    2.250219   -0.194275
     27          6           0        6.971016    3.608736   -0.257328
     28          6           0        8.411412    4.145509   -0.318805
     29          6           0        9.333568    2.815914   -0.370273
     30          6           0        8.269586    1.759322   -0.238770
     31          6           0        8.772779    5.119821   -1.464654
     32          6           0       10.482312    2.806556    0.743514
     33          6           0       11.902518    3.200367    0.294916
     34          7           0        6.397225   -0.518243   -0.118064
     35          6           0        7.759826   -0.683098   -0.253980
     36          6           0        8.178565   -1.991575   -0.356856
     37          6           0        6.981798   -2.670351   -0.126350
     38          6           0        5.931135   -1.726318   -0.102930
     39          6           0        9.579511   -2.513313   -0.620072
     40          6           0        6.482670   -3.962539    0.102223
     41          8           0        7.125886   -4.994470    0.284732
     42          6           0        4.915972   -3.825454    0.221452
     43          6           0        4.279012   -4.663443   -0.737938
     44          8           0        3.990809   -4.311704   -1.911787
     45          8           0        4.019715   -5.878825   -0.093758
     46          6           0        3.101605   -6.752357   -0.819397
     47          6           0       -1.902897   -3.876315    0.032527
     48          6           0       -2.858535   -2.716396   -0.008028
     49          6           0       -3.634550   -2.296741   -0.997031
     50          6           0       -3.837301   -3.002185   -2.285718
     51          6           0       -4.630538   -1.277132   -0.632974
     52          6           0       -6.025231   -1.767337   -0.392689
     53          6           0       -6.559126   -1.294439    0.985940
     54          6           0       -7.830869   -0.452544    0.956206
     55          6           0       -7.988948    0.182106    2.371637
     56          6           0       -9.118807   -1.150914    0.576230
     57          6           0      -10.201414   -0.222039   -0.076693
     58          6           0      -11.537692   -0.753088    0.202546
     59          6           0      -12.518325    0.468381    0.410163
     60          6           0      -12.345054    1.063455    1.855368
     61          6           0      -13.939763    0.074975   -0.045733
     62          6           0      -14.577355    1.053362   -1.048970
     63          6           0      -16.093539    1.099499   -0.988953
     64          6           0      -16.573918    2.596531   -0.652102
     65          6           0      -18.004952    2.750519    0.149796
     66          6           0      -16.651415    3.508112   -1.911654
     67          1           0        0.770755    1.666003    0.239749
     68          1           0        6.129241    5.454288    0.014578
     69          1           0        9.702889    0.239667   -0.555720
     70          1           0        1.864831   -2.773670   -0.341428
     71          1           0        0.427176   -0.542124    0.856552
     72          1           0       -0.630747   -1.308793   -1.298319
     73          1           0        0.897446   -1.673923   -1.987998
     74          1           0        0.475011    0.057105   -1.674898
     75          1           0        1.409515   -1.986336    2.597303
     76          1           0        2.962066   -2.778629    2.343334
     77          1           0        0.863833   -3.978630    3.044148
     78          1           0        2.044614   -4.715696    2.140734
     79          1           0        0.324520    4.461195   -0.761805
     80          1           0        0.499697    5.446539    0.696884
     81          1           0        0.076594    3.789601    0.886433
     82          1           0        2.725910    8.318776    0.065506
     83          1           0        1.761212    7.262444    1.091528
     84          1           0        1.614714    7.177371   -0.669714
     85          1           0        8.589612    4.594694    0.658468
     86          1           0        9.693733    2.741748   -1.395697
     87          1           0        9.796834    5.178084   -1.833065
     88          1           0        8.709193    6.056467   -0.909258
     89          1           0        8.028696    5.048819   -2.258459
     90          1           0       10.457794    1.836885    1.238969
     91          1           0       10.246269    3.570762    1.483683
     92          1           0       11.945180    3.733392   -0.655095
     93          1           0       12.418112    2.247719    0.169016
     94          1           0       12.386096    3.823149    1.047615
     95          1           0       10.243469   -1.923461   -1.251954
     96          1           0        9.182979   -3.367635   -1.167709
     97          1           0       10.069802   -2.708641    0.333381
     98          1           0        4.610019   -4.210180    1.194680
     99          1           0        3.682902   -7.192654   -1.629748
    100          1           0        2.235761   -6.311356   -1.312936
    101          1           0        2.699495   -7.502697   -0.139301
    102          1           0       -2.461654   -4.724341    0.429222
    103          1           0       -1.462866   -4.041115   -0.950806
    104          1           0       -2.822061   -2.004931    0.816930
    105          1           0       -3.057903   -2.651088   -2.962177
    106          1           0       -4.763832   -2.789110   -2.819861
    107          1           0       -3.716711   -4.080144   -2.183611
    108          1           0       -4.617016   -0.649890   -1.524983
    109          1           0       -4.162788   -0.667085    0.139631
    110          1           0       -6.007188   -2.857790   -0.397095
    111          1           0       -6.658734   -1.524975   -1.245464
    112          1           0       -5.866964   -0.688581    1.570656
    113          1           0       -6.747933   -2.133730    1.655660
    114          1           0       -7.636634    0.362786    0.258947
    115          1           0       -8.831701    0.872805    2.401617
    116          1           0       -7.110335    0.776948    2.621383
    117          1           0       -8.029745   -0.526271    3.198139
    118          1           0       -9.537715   -1.720929    1.404700
    119          1           0       -8.991888   -1.878280   -0.226034
    120          1           0      -10.108798   -0.244643   -1.161808
    121          1           0      -10.079521    0.750669    0.399539
    122          1           0      -11.560827   -1.283299    1.155518
    123          1           0      -11.891202   -1.327204   -0.653457
    124          1           0      -12.155108    1.133475   -0.374133
    125          1           0      -11.753648    0.388695    2.475603
    126          1           0      -13.343309    1.264125    2.243420
    127          1           0      -11.889530    2.046474    1.740598
    128          1           0      -14.554936   -0.101256    0.837362
    129          1           0      -14.089119   -0.865726   -0.575268
    130          1           0      -14.348852    0.711264   -2.057727
    131          1           0      -14.154851    2.049049   -0.915798
    132          1           0      -16.342099    0.444456   -0.153727
    133          1           0      -16.490255    0.688903   -1.917817
    134          1           0      -15.889911    2.957732    0.116378
    135          1           0      -17.927836    3.394010    1.025674
    136          1           0      -18.391732    1.757782    0.380073
    137          1           0      -18.801640    3.161898   -0.470063
    138          1           0      -16.484286    4.537499   -1.595828
    139          1           0      -17.535499    3.379312   -2.536071
    140          1           0      -15.758060    3.388203   -2.523294
 ---------------------------------------------------------------------

 SCF Done:  E(RB-LYP) =  -3007.35566933     A.U. after   22 cycles

 Excitation energies and oscillator strengths:

 Excited State   1:      Singlet-A      1.8399 eV  673.85 nm  f=0.3114  <S**2>=0.000
     245 -> 248       -0.20250
     246 -> 247        0.68265
     246 <- 247       -0.14375
 This state for optimization and/or second-order correction.
 Total Energy, E(TD-HF/TD-DFT) =  -3007.28805323
 Copying the excited state density for this state as the 1-particle RhoCI density.

 Excited State   2:      Singlet-A      1.9013 eV  652.09 nm  f=0.0040  <S**2>=0.000
     243 -> 247        0.68379
     245 -> 247       -0.16930

 Excited State   3:      Singlet-A      1.9128 eV  648.17 nm  f=0.0021  <S**2>=0.000
     244 -> 247        0.69419
     245 -> 247       -0.11467

 Excited State   4:      Singlet-A      2.0143 eV  615.53 nm  f=0.0682  <S**2>=0.000
     243 -> 247        0.17103
     244 -> 247        0.12768
     245 -> 247        0.61535
     246 -> 248        0.24396

 Excited State   5:      Singlet-A      2.4271 eV  510.83 nm  f=0.0001  <S**2>=0.000
     241 -> 247        0.63848
     242 -> 247        0.30320

 The electronic state is 1-A.
 Alpha  occ. eigenvalues --  -46.26598 -18.82224 -18.81461 -18.77720 -18.76171
 Alpha  occ. eigenvalues --  -18.75388 -18.75334 -14.03282 -14.02910 -14.00783
 Alpha  occ. eigenvalues --  -14.00451 -10.05051 -10.03096  -9.99485  -9.98935
 Alpha  occ. eigenvalues --   -9.98034  -9.97023  -9.96150  -9.96000  -9.95984
 Alpha  occ. eigenvalues --   -9.95859  -9.95656  -9.94975  -9.94637  -9.94439
 Alpha  occ. eigenvalues --   -9.94359  -9.94329  -9.94158  -9.93921  -9.93647
 Alpha  occ. eigenvalues --   -9.93560  -9.93422  -9.93407  -9.93198  -9.93097
 Alpha  occ. eigenvalues --   -9.93043  -9.93020  -9.93014  -9.92714  -9.92537
 Alpha  occ. eigenvalues --   -9.92515  -9.92496  -9.92405  -9.92273  -9.92182
 Alpha  occ. eigenvalues --   -9.92096  -9.92060  -9.92049  -9.92024  -9.91869
 Alpha  occ. eigenvalues --   -9.91744  -9.91694  -9.91458  -9.91442  -9.91253
 Alpha  occ. eigenvalues --   -9.91173  -9.91167  -9.91073  -9.91068  -9.90850
 Alpha  occ. eigenvalues --   -9.90841  -9.90801  -9.90685  -9.90629  -9.90517
 Alpha  occ. eigenvalues --   -9.90337  -2.91328  -1.71748  -1.71211  -1.71039
 Alpha  occ. eigenvalues --   -0.99664  -0.95643  -0.91297  -0.90765  -0.90528
 Alpha  occ. eigenvalues --   -0.88210  -0.87997  -0.85993  -0.85394  -0.84629
 Alpha  occ. eigenvalues --   -0.75691  -0.75179  -0.73668  -0.73072  -0.72306
 Alpha  occ. eigenvalues --   -0.72151  -0.71340  -0.71230  -0.70673  -0.70572
 Alpha  occ. eigenvalues --   -0.69741  -0.69222  -0.68252  -0.67563  -0.67286
 Alpha  occ. eigenvalues --   -0.66824  -0.65996  -0.65492  -0.65204  -0.64552
 Alpha  occ. eigenvalues --   -0.64413  -0.62926  -0.62188  -0.61694  -0.61352
 Alpha  occ. eigenvalues --   -0.60261  -0.59913  -0.59638  -0.59473  -0.59172
 Alpha  occ. eigenvalues --   -0.58828  -0.58185  -0.56807  -0.56156  -0.54221
 Alpha  occ. eigenvalues --   -0.54197  -0.53818  -0.52900  -0.52664  -0.51628
 Alpha  occ. eigenvalues --   -0.51097  -0.50971  -0.50759  -0.50398  -0.50198
 Alpha  occ. eigenvalues --   -0.49999  -0.49243  -0.48281  -0.47755  -0.47001
 Alpha  occ. eigenvalues --   -0.46284  -0.46084  -0.45702  -0.45327  -0.44237
 Alpha  occ. eigenvalues --   -0.44143  -0.43944  -0.43433  -0.43165  -0.42817
 Alpha  occ. eigenvalues --   -0.42318  -0.41970  -0.41859  -0.41409  -0.41054
 Alpha  occ. eigenvalues --   -0.40895  -0.40820  -0.40627  -0.40518  -0.40130
 Alpha  occ. eigenvalues --   -0.40061  -0.39757  -0.39736  -0.39427  -0.39334
 Alpha  occ. eigenvalues --   -0.39290  -0.38918  -0.38872  -0.38607  -0.38231
 Alpha  occ. eigenvalues --   -0.37977  -0.37657  -0.37546  -0.37354  -0.37123
 Alpha  occ. eigenvalues --   -0.36936  -0.36774  -0.36543  -0.36453  -0.36348
 Alpha  occ. eigenvalues --   -0.36047  -0.35941  -0.35858  -0.35673  -0.35437
 Alpha  occ. eigenvalues --   -0.35322  -0.35119  -0.34919  -0.34861  -0.34820
 Alpha  occ. eigenvalues --   -0.34684  -0.34612  -0.34247  -0.34217  -0.34113
 Alpha  occ. eigenvalues --   -0.33899  -0.33725  -0.33572  -0.33464  -0.33252
 Alpha  occ. eigenvalues --   -0.32993  -0.32790  -0.32654  -0.32382  -0.32031
 Alpha  occ. eigenvalues --   -0.31805  -0.31637  -0.31631  -0.31613  -0.31360
 Alpha  occ. eigenvalues --   -0.31014  -0.30938  -0.30741  -0.30571  -0.30465
 Alpha  occ. eigenvalues --   -0.30279  -0.30210  -0.30123  -0.29825  -0.29742
 Alpha  occ. eigenvalues --   -0.29622  -0.29546  -0.29478  -0.29187  -0.29077
 Alpha  occ. eigenvalues --   -0.28815  -0.28469  -0.28326  -0.28017  -0.27669
 Alpha  occ. eigenvalues --   -0.27641  -0.27149  -0.27064  -0.26719  -0.26502
 Alpha  occ. eigenvalues --   -0.26217  -0.26132  -0.25859  -0.25793  -0.25496
 Alpha  occ. eigenvalues --   -0.25377  -0.25211  -0.23907  -0.23866  -0.23351
 Alpha  occ. eigenvalues --   -0.22703  -0.22571  -0.22138  -0.21095  -0.20930
 Alpha  occ. eigenvalues --   -0.20476  -0.20377  -0.18473  -0.18445  -0.17199
 Alpha  occ. eigenvalues --   -0.15952
 Alpha virt. eigenvalues --   -0.11543  -0.06918  -0.06241  -0.04624  -0.03730
 Alpha virt. eigenvalues --   -0.02933  -0.02599  -0.01665  -0.01327   0.00354
 Alpha virt. eigenvalues --    0.01543   0.01920   0.02230   0.02525   0.02865

 Mulliken charges:
               1
     1  Mg   0.696821
     2  C   -0.019397
     3  C   -0.051135
     4  C   -0.022285
     5  C   -0.108059
     6  N   -0.225596
     7  C   -0.096171
     8  C    0.063932
     9  C   -0.058702
    10  C    0.059362
    11  C    0.077694
    12  C    0.135231
    13  C    0.113113
    14  C    0.093107
    15  O   -0.174972
    16  O   -0.273137
    17  N   -0.297874
    18  C    0.122762
    19  C   -0.134373
    20  C    0.048234
    21  C    0.110746
    22  C    0.170757
    23  C   -0.069840
    24  O   -0.179120
    25  C    0.116880
    26  N   -0.216764
    27  C    0.000884
    28  C   -0.015961
    29  C    0.042047
    30  C   -0.009162
    31  C    0.127995
    32  C    0.085858
    33  C    0.059961
    34  N   -0.211292
    35  C    0.168564
    36  C   -0.194202
    37  C    0.110048
    38  C    0.108176
    39  C    0.168188
    40  C   -0.110913
    41  O   -0.134704
    42  C    0.065367
    43  C    0.144762
    44  O   -0.217918
    45  O   -0.286443
    46  C    0.235236
    47  C    0.347259
    48  C   -0.119911
    49  C   -0.205677
    50  C    0.152540
    51  C    0.154267
    52  C    0.155259
    53  C    0.099554
    54  C   -0.036168
    55  C    0.082662
    56  C    0.095696
    57  C    0.082006
    58  C    0.079775
    59  C   -0.097370
    60  C    0.133650
    61  C    0.091427
    62  C    0.042545
    63  C    0.118335
    64  C   -0.090455
    65  C    0.067667
    66  C    0.110862
    67  H   -0.062905
    68  H   -0.039102
    69  H   -0.063931
    70  H    0.007806
    71  H   -0.017122
    72  H    0.006160
    73  H    0.009331
    74  H   -0.013245
    75  H   -0.013734
    76  H   -0.008983
    77  H   -0.016489
    78  H   -0.008767
    79  H    0.009304
    80  H   -0.026234
    81  H   -0.001685
    82  H   -0.015045
    83  H    0.009927
    84  H    0.012303
    85  H   -0.015554
    86  H   -0.021274
    87  H   -0.006901
    88  H   -0.007801
    89  H    0.007112
    90  H   -0.016669
    91  H   -0.024851
    92  H   -0.005037
    93  H   -0.005365
    94  H   -0.003197
    95  H   -0.003175
    96  H    0.027500
    97  H    0.018337
    98  H   -0.005411
    99  H   -0.004396
   100  H    0.018939
   101  H    0.008416
   102  H   -0.009826
   103  H    0.006794
   104  H   -0.041109
   105  H   -0.003532
   106  H   -0.013888
   107  H    0.001647
   108  H   -0.053386
   109  H   -0.035085
   110  H   -0.032570
   111  H   -0.026241
   112  H   -0.042387
   113  H   -0.044992
   114  H   -0.046082
   115  H   -0.016488
   116  H   -0.027776
   117  H   -0.018523
   118  H   -0.038757
   119  H   -0.049299
   120  H   -0.024184
   121  H   -0.027044
   122  H   -0.034216
   123  H   -0.039695
   124  H   -0.034466
   125  H    0.003076
   126  H   -0.016968
   127  H   -0.007825
   128  H   -0.042950
   129  H   -0.040978
   130  H   -0.034085
   131  H   -0.022308
   132  H   -0.037553
   133  H   -0.030178
   134  H   -0.028146
   135  H   -0.005702
   136  H   -0.021136
   137  H   -0.024365
   138  H   -0.020711
   139  H    0.003642
   140  H   -0.032597
 Sum of Mulliken charges =  -0.00000

 Dipole moment (field-independent basis, Debye):
    X=             -3.7589    Y=              2.1772    Z=              2.0168  Tot=              4.7893
 Quadrupole moment (field-independent basis, Debye-Ang):
   XX=           -389.3953   YY=           -445.3279   ZZ=           -400.8893
   XY=             25.8152   XZ=             11.4034   YZ=             -5.2000

 Normal termination of Gaussian 16 at Wed Apr 27 21:25:53 2022.
