 Gaussian 16, Revision A.03,
 Gaussian 16:  ES64L-G16RevA.03 25-Dec-2016

 -----------------------------------
 #p cam-b3lyp/Def2SVP td=(nstates=5)
 -----------------------------------

 --------------------------------------------------------
 step_1301_chromophore_21 TDDFT with cam-b3lyp functional
 --------------------------------------------------------
 Symbolic Z-matrix:
 Charge =  0 Multiplicity = 1

                         Standard orientation:
 ---------------------------------------------------------------------
 Center     Atomic      Atomic             Coordinates (Angstroms)
 Number     Number       Type             X           Y           Z
 ---------------------------------------------------------------------
      1         12           0        5.218337    1.097537    0.254403
      2          6           0        4.711127   -2.305634    0.103856
      3          6           0        1.855174    1.601863    0.129676
      4          6           0        5.846210    4.400686    0.055875
      5          6           0        8.637590    0.408020   -0.387484
      6          7           0        3.535557   -0.218112   -0.017117
      7          6           0        3.486505   -1.541009    0.201255
      8          6           0        2.088780   -2.048984    0.441625
      9          6           0        1.172802   -0.784781    0.099454
     10          6           0        2.249265    0.313751   -0.042112
     11          6           0        0.404866   -0.969979   -1.316702
     12          6           0        1.975082   -2.613623    1.909104
     13          6           0        1.267465   -3.959649    2.031547
     14          6           0        0.221675   -4.403121    0.990233
     15          8           0        0.352691   -5.232269    0.125005
     16          8           0       -0.926046   -3.645418    1.019015
     17          7           0        3.950637    2.783352    0.334412
     18          6           0        2.592459    2.785340    0.295102
     19          6           0        2.165315    4.149504    0.316355
     20          6           0        3.332318    4.957156    0.321709
     21          6           0        4.488440    4.063952    0.263705
     22          6           0        0.675418    4.458846    0.270532
     23          6           0        3.510040    6.464211    0.266447
     24          8           0        4.596490    7.067922    0.230995
     25          6           0        2.315934    7.313060    0.154099
     26          7           0        6.988855    2.250219   -0.194275
     27          6           0        6.971016    3.608736   -0.257328
     28          6           0        8.411412    4.145509   -0.318805
     29          6           0        9.333568    2.815914   -0.370273
     30          6           0        8.269586    1.759322   -0.238770
     31          6           0        8.772779    5.119821   -1.464654
     32          6           0       10.482312    2.806556    0.743514
     33          6           0       11.902518    3.200367    0.294916
     34          7           0        6.397225   -0.518243   -0.118064
     35          6           0        7.759826   -0.683098   -0.253980
     36          6           0        8.178565   -1.991575   -0.356856
     37          6           0        6.981798   -2.670351   -0.126350
     38          6           0        5.931135   -1.726318   -0.102930
     39          6           0        9.579511   -2.513313   -0.620072
     40          6           0        6.482670   -3.962539    0.102223
     41          8           0        7.125886   -4.994470    0.284732
     42          6           0        4.915972   -3.825454    0.221452
     43          6           0        4.279012   -4.663443   -0.737938
     44          8           0        3.990809   -4.311704   -1.911787
     45          8           0        4.019715   -5.878825   -0.093758
     46          6           0        3.101605   -6.752357   -0.819397
     47          6           0       -1.902897   -3.876315    0.032527
     48          6           0       -2.858535   -2.716396   -0.008028
     49          6           0       -3.634550   -2.296741   -0.997031
     50          6           0       -3.837301   -3.002185   -2.285718
     51          6           0       -4.630538   -1.277132   -0.632974
     52          6           0       -6.025231   -1.767337   -0.392689
     53          6           0       -6.559126   -1.294439    0.985940
     54          6           0       -7.830869   -0.452544    0.956206
     55          6           0       -7.988948    0.182106    2.371637
     56          6           0       -9.118807   -1.150914    0.576230
     57          6           0      -10.201414   -0.222039   -0.076693
     58          6           0      -11.537692   -0.753088    0.202546
     59          6           0      -12.518325    0.468381    0.410163
     60          6           0      -12.345054    1.063455    1.855368
     61          6           0      -13.939763    0.074975   -0.045733
     62          6           0      -14.577355    1.053362   -1.048970
     63          6           0      -16.093539    1.099499   -0.988953
     64          6           0      -16.573918    2.596531   -0.652102
     65          6           0      -18.004952    2.750519    0.149796
     66          6           0      -16.651415    3.508112   -1.911654
     67          1           0        0.770755    1.666003    0.239749
     68          1           0        6.129241    5.454288    0.014578
     69          1           0        9.702889    0.239667   -0.555720
     70          1           0        1.864831   -2.773670   -0.341428
     71          1           0        0.427176   -0.542124    0.856552
     72          1           0       -0.630747   -1.308793   -1.298319
     73          1           0        0.897446   -1.673923   -1.987998
     74          1           0        0.475011    0.057105   -1.674898
     75          1           0        1.409515   -1.986336    2.597303
     76          1           0        2.962066   -2.778629    2.343334
     77          1           0        0.863833   -3.978630    3.044148
     78          1           0        2.044614   -4.715696    2.140734
     79          1           0        0.324520    4.461195   -0.761805
     80          1           0        0.499697    5.446539    0.696884
     81          1           0        0.076594    3.789601    0.886433
     82          1           0        2.725910    8.318776    0.065506
     83          1           0        1.761212    7.262444    1.091528
     84          1           0        1.614714    7.177371   -0.669714
     85          1           0        8.589612    4.594694    0.658468
     86          1           0        9.693733    2.741748   -1.395697
     87          1           0        9.796834    5.178084   -1.833065
     88          1           0        8.709193    6.056467   -0.909258
     89          1           0        8.028696    5.048819   -2.258459
     90          1           0       10.457794    1.836885    1.238969
     91          1           0       10.246269    3.570762    1.483683
     92          1           0       11.945180    3.733392   -0.655095
     93          1           0       12.418112    2.247719    0.169016
     94          1           0       12.386096    3.823149    1.047615
     95          1           0       10.243469   -1.923461   -1.251954
     96          1           0        9.182979   -3.367635   -1.167709
     97          1           0       10.069802   -2.708641    0.333381
     98          1           0        4.610019   -4.210180    1.194680
     99          1           0        3.682902   -7.192654   -1.629748
    100          1           0        2.235761   -6.311356   -1.312936
    101          1           0        2.699495   -7.502697   -0.139301
    102          1           0       -2.461654   -4.724341    0.429222
    103          1           0       -1.462866   -4.041115   -0.950806
    104          1           0       -2.822061   -2.004931    0.816930
    105          1           0       -3.057903   -2.651088   -2.962177
    106          1           0       -4.763832   -2.789110   -2.819861
    107          1           0       -3.716711   -4.080144   -2.183611
    108          1           0       -4.617016   -0.649890   -1.524983
    109          1           0       -4.162788   -0.667085    0.139631
    110          1           0       -6.007188   -2.857790   -0.397095
    111          1           0       -6.658734   -1.524975   -1.245464
    112          1           0       -5.866964   -0.688581    1.570656
    113          1           0       -6.747933   -2.133730    1.655660
    114          1           0       -7.636634    0.362786    0.258947
    115          1           0       -8.831701    0.872805    2.401617
    116          1           0       -7.110335    0.776948    2.621383
    117          1           0       -8.029745   -0.526271    3.198139
    118          1           0       -9.537715   -1.720929    1.404700
    119          1           0       -8.991888   -1.878280   -0.226034
    120          1           0      -10.108798   -0.244643   -1.161808
    121          1           0      -10.079521    0.750669    0.399539
    122          1           0      -11.560827   -1.283299    1.155518
    123          1           0      -11.891202   -1.327204   -0.653457
    124          1           0      -12.155108    1.133475   -0.374133
    125          1           0      -11.753648    0.388695    2.475603
    126          1           0      -13.343309    1.264125    2.243420
    127          1           0      -11.889530    2.046474    1.740598
    128          1           0      -14.554936   -0.101256    0.837362
    129          1           0      -14.089119   -0.865726   -0.575268
    130          1           0      -14.348852    0.711264   -2.057727
    131          1           0      -14.154851    2.049049   -0.915798
    132          1           0      -16.342099    0.444456   -0.153727
    133          1           0      -16.490255    0.688903   -1.917817
    134          1           0      -15.889911    2.957732    0.116378
    135          1           0      -17.927836    3.394010    1.025674
    136          1           0      -18.391732    1.757782    0.380073
    137          1           0      -18.801640    3.161898   -0.470063
    138          1           0      -16.484286    4.537499   -1.595828
    139          1           0      -17.535499    3.379312   -2.536071
    140          1           0      -15.758060    3.388203   -2.523294
 ---------------------------------------------------------------------

 SCF Done:  E(RCAM-B3LYP) =  -3007.15809000     A.U. after   19 cycles

 Excitation energies and oscillator strengths:

 Excited State   1:      Singlet-A      1.7431 eV  711.29 nm  f=0.3904  <S**2>=0.000
     245 -> 248        0.18624
     246 -> 247        0.68253
     245 <- 248        0.10740
 This state for optimization and/or second-order correction.
 Total Energy, E(TD-HF/TD-DFT) =  -3007.09403276
 Copying the excited state density for this state as the 1-particle RhoCI density.

 Excited State   2:      Singlet-A      2.2195 eV  558.61 nm  f=0.1139  <S**2>=0.000
     245 -> 247        0.64141
     246 -> 248       -0.28453

 Excited State   3:      Singlet-A      3.3171 eV  373.78 nm  f=0.0003  <S**2>=0.000
     240 -> 247       -0.24879
     240 -> 249       -0.13336
     241 -> 247        0.26994
     241 -> 249        0.14241
     242 -> 247        0.47980
     242 -> 249        0.19855

 Excited State   4:      Singlet-A      3.4476 eV  359.62 nm  f=0.0315  <S**2>=0.000
     240 -> 247       -0.12065
     242 -> 247       -0.10486
     244 -> 247        0.63832
     246 -> 248        0.20653

 Excited State   5:      Singlet-A      3.5172 eV  352.51 nm  f=0.3593  <S**2>=0.000
     240 -> 247        0.23498
     241 -> 247       -0.23372
     242 -> 247        0.29432
     245 -> 247        0.19040
     246 -> 248        0.49694

 The electronic state is 1-A.
 Alpha  occ. eigenvalues --  -46.88116 -19.25077 -19.24621 -19.20851 -19.19528
 Alpha  occ. eigenvalues --  -19.18715 -19.18371 -14.42111 -14.41849 -14.39112
 Alpha  occ. eigenvalues --  -14.38908 -10.40446 -10.38910 -10.34536 -10.34468
 Alpha  occ. eigenvalues --  -10.31957 -10.31814 -10.30550 -10.30377 -10.30211
 Alpha  occ. eigenvalues --  -10.29931 -10.29721 -10.29089 -10.28869 -10.28483
 Alpha  occ. eigenvalues --  -10.28461 -10.28422 -10.28386 -10.28253 -10.27876
 Alpha  occ. eigenvalues --  -10.27828 -10.27688 -10.27651 -10.27467 -10.27410
 Alpha  occ. eigenvalues --  -10.26875 -10.26815 -10.26748 -10.26673 -10.26660
 Alpha  occ. eigenvalues --  -10.26609 -10.26439 -10.26301 -10.26233 -10.26110
 Alpha  occ. eigenvalues --  -10.25769 -10.25697 -10.25686 -10.25665 -10.25499
 Alpha  occ. eigenvalues --  -10.25462 -10.25298 -10.25193 -10.25090 -10.25070
 Alpha  occ. eigenvalues --  -10.25052 -10.24776 -10.24775 -10.24758 -10.24670
 Alpha  occ. eigenvalues --  -10.24515 -10.24484 -10.24413 -10.24342 -10.24256
 Alpha  occ. eigenvalues --  -10.23956  -3.16752  -1.91647  -1.91207  -1.91057
 Alpha  occ. eigenvalues --   -1.18220  -1.14321  -1.09302  -1.09256  -1.08733
 Alpha  occ. eigenvalues --   -1.06291  -1.06002  -1.03656  -1.03008  -1.01965
 Alpha  occ. eigenvalues --   -0.93006  -0.92133  -0.90503  -0.89908  -0.89110
 Alpha  occ. eigenvalues --   -0.88847  -0.87984  -0.87842  -0.87236  -0.87118
 Alpha  occ. eigenvalues --   -0.86187  -0.85533  -0.84518  -0.83870  -0.83417
 Alpha  occ. eigenvalues --   -0.82921  -0.82077  -0.81405  -0.81145  -0.80385
 Alpha  occ. eigenvalues --   -0.80254  -0.78698  -0.77756  -0.77197  -0.76738
 Alpha  occ. eigenvalues --   -0.75630  -0.75202  -0.75000  -0.74776  -0.74391
 Alpha  occ. eigenvalues --   -0.73923  -0.73324  -0.71683  -0.71032  -0.68928
 Alpha  occ. eigenvalues --   -0.68794  -0.68317  -0.67332  -0.67044  -0.65843
 Alpha  occ. eigenvalues --   -0.65178  -0.65016  -0.64960  -0.64369  -0.64224
 Alpha  occ. eigenvalues --   -0.63908  -0.63177  -0.62116  -0.61644  -0.60720
 Alpha  occ. eigenvalues --   -0.59919  -0.59678  -0.59136  -0.58713  -0.57915
 Alpha  occ. eigenvalues --   -0.57525  -0.57279  -0.56785  -0.56054  -0.55886
 Alpha  occ. eigenvalues --   -0.55634  -0.55501  -0.54971  -0.54193  -0.53880
 Alpha  occ. eigenvalues --   -0.53799  -0.53576  -0.53447  -0.53189  -0.53055
 Alpha  occ. eigenvalues --   -0.52850  -0.52473  -0.52306  -0.52256  -0.51991
 Alpha  occ. eigenvalues --   -0.51845  -0.51601  -0.51291  -0.51179  -0.50697
 Alpha  occ. eigenvalues --   -0.50215  -0.50145  -0.49809  -0.49452  -0.49387
 Alpha  occ. eigenvalues --   -0.49184  -0.49074  -0.49020  -0.48850  -0.48653
 Alpha  occ. eigenvalues --   -0.48464  -0.48197  -0.47900  -0.47773  -0.47527
 Alpha  occ. eigenvalues --   -0.47494  -0.47307  -0.47231  -0.46990  -0.46720
 Alpha  occ. eigenvalues --   -0.46600  -0.46387  -0.46214  -0.46005  -0.45907
 Alpha  occ. eigenvalues --   -0.45773  -0.45530  -0.45203  -0.45198  -0.44799
 Alpha  occ. eigenvalues --   -0.44594  -0.44519  -0.44465  -0.44090  -0.43652
 Alpha  occ. eigenvalues --   -0.43502  -0.43253  -0.43157  -0.42997  -0.42940
 Alpha  occ. eigenvalues --   -0.42693  -0.42478  -0.42344  -0.42179  -0.41982
 Alpha  occ. eigenvalues --   -0.41786  -0.41577  -0.41448  -0.41352  -0.41165
 Alpha  occ. eigenvalues --   -0.40963  -0.40891  -0.40805  -0.40559  -0.40241
 Alpha  occ. eigenvalues --   -0.39885  -0.39491  -0.39390  -0.38952  -0.38624
 Alpha  occ. eigenvalues --   -0.38468  -0.37939  -0.37833  -0.37479  -0.37424
 Alpha  occ. eigenvalues --   -0.37168  -0.37123  -0.36893  -0.36641  -0.36407
 Alpha  occ. eigenvalues --   -0.36074  -0.35761  -0.35644  -0.34970  -0.34303
 Alpha  occ. eigenvalues --   -0.33730  -0.33286  -0.32830  -0.31313  -0.30670
 Alpha  occ. eigenvalues --   -0.30626  -0.30435  -0.30051  -0.29526  -0.23928
 Alpha  occ. eigenvalues --   -0.21274
 Alpha virt. eigenvalues --   -0.08642  -0.01735   0.00260   0.02198   0.02371
 Alpha virt. eigenvalues --    0.03993   0.04594   0.05811   0.05933   0.07252
 Alpha virt. eigenvalues --    0.07779   0.08264   0.08633   0.08803   0.09272

 Mulliken charges:
               1
     1  Mg   0.830091
     2  C   -0.044596
     3  C   -0.062179
     4  C   -0.039247
     5  C   -0.108425
     6  N   -0.297894
     7  C   -0.043456
     8  C    0.000269
     9  C   -0.104536
    10  C    0.072120
    11  C    0.034819
    12  C    0.086577
    13  C    0.049545
    14  C    0.164799
    15  O   -0.215447
    16  O   -0.334988
    17  N   -0.383893
    18  C    0.130388
    19  C   -0.145110
    20  C   -0.024361
    21  C    0.130273
    22  C    0.117591
    23  C    0.012962
    24  O   -0.223046
    25  C    0.030420
    26  N   -0.287404
    27  C    0.023769
    28  C   -0.069361
    29  C   -0.019827
    30  C    0.013613
    31  C    0.067685
    32  C    0.031099
    33  C    0.001792
    34  N   -0.305919
    35  C    0.168186
    36  C   -0.180651
    37  C    0.024754
    38  C    0.143299
    39  C    0.121378
    40  C   -0.013234
    41  O   -0.172383
    42  C   -0.009472
    43  C    0.235526
    44  O   -0.252609
    45  O   -0.348912
    46  C    0.190831
    47  C    0.312447
    48  C   -0.141455
    49  C   -0.218801
    50  C    0.082965
    51  C    0.090438
    52  C    0.092837
    53  C    0.049012
    54  C   -0.097159
    55  C    0.026695
    56  C    0.041506
    57  C    0.027794
    58  C    0.031209
    59  C   -0.155573
    60  C    0.073664
    61  C    0.040120
    62  C   -0.011121
    63  C    0.063788
    64  C   -0.149742
    65  C    0.012251
    66  C    0.049727
    67  H   -0.029022
    68  H    0.002118
    69  H   -0.027229
    70  H    0.039449
    71  H    0.016292
    72  H    0.025635
    73  H    0.031617
    74  H    0.011130
    75  H    0.017495
    76  H    0.021299
    77  H    0.019070
    78  H    0.022079
    79  H    0.035427
    80  H   -0.001138
    81  H    0.023380
    82  H    0.021095
    83  H    0.036219
    84  H    0.040995
    85  H    0.017730
    86  H    0.013669
    87  H    0.016825
    88  H    0.016085
    89  H    0.032420
    90  H    0.011936
    91  H    0.003869
    92  H    0.016302
    93  H    0.016272
    94  H    0.020742
    95  H    0.023295
    96  H    0.052606
    97  H    0.045829
    98  H    0.037442
    99  H    0.021202
   100  H    0.043528
   101  H    0.033066
   102  H    0.019429
   103  H    0.033677
   104  H   -0.007263
   105  H    0.022190
   106  H    0.013322
   107  H    0.026050
   108  H   -0.022072
   109  H   -0.005245
   110  H   -0.001505
   111  H    0.001956
   112  H   -0.013335
   113  H   -0.015655
   114  H   -0.013857
   115  H    0.006025
   116  H   -0.002193
   117  H    0.005727
   118  H   -0.010251
   119  H   -0.019264
   120  H    0.003959
   121  H   -0.001616
   122  H   -0.006614
   123  H   -0.009448
   124  H   -0.002362
   125  H    0.023970
   126  H    0.008019
   127  H    0.015252
   128  H   -0.014745
   129  H   -0.010389
   130  H   -0.005652
   131  H    0.003553
   132  H   -0.008623
   133  H   -0.001329
   134  H    0.002613
   135  H    0.017230
   136  H    0.002556
   137  H   -0.000703
   138  H    0.004504
   139  H    0.026269
   140  H   -0.008344
 Sum of Mulliken charges =  -0.00000

 Dipole moment (field-independent basis, Debye):
    X=             -3.7338    Y=              2.0100    Z=              2.1530  Tot=              4.7557
 Quadrupole moment (field-independent basis, Debye-Ang):
   XX=           -385.8999   YY=           -442.9587   ZZ=           -400.6096
   XY=             24.4942   XZ=             11.7593   YZ=             -5.4219

 Normal termination of Gaussian 16 at Wed Apr 27 20:30:52 2022.
