 Gaussian 16, Revision A.03,
 Gaussian 16:  ES64L-G16RevA.03 25-Dec-2016

 ---------------------------------
 #p PBE1PBE/Def2SVP td=(nstates=5)
 ---------------------------------

 ------------------------------------------------------
 step_1301_chromophore_21 TDDFT with PBE1PBE functional
 ------------------------------------------------------
 Symbolic Z-matrix:
 Charge =  0 Multiplicity = 1

                         Standard orientation:
 ---------------------------------------------------------------------
 Center     Atomic      Atomic             Coordinates (Angstroms)
 Number     Number       Type             X           Y           Z
 ---------------------------------------------------------------------
      1         12           0        5.218337    1.097537    0.254403
      2          6           0        4.711127   -2.305634    0.103856
      3          6           0        1.855174    1.601863    0.129676
      4          6           0        5.846210    4.400686    0.055875
      5          6           0        8.637590    0.408020   -0.387484
      6          7           0        3.535557   -0.218112   -0.017117
      7          6           0        3.486505   -1.541009    0.201255
      8          6           0        2.088780   -2.048984    0.441625
      9          6           0        1.172802   -0.784781    0.099454
     10          6           0        2.249265    0.313751   -0.042112
     11          6           0        0.404866   -0.969979   -1.316702
     12          6           0        1.975082   -2.613623    1.909104
     13          6           0        1.267465   -3.959649    2.031547
     14          6           0        0.221675   -4.403121    0.990233
     15          8           0        0.352691   -5.232269    0.125005
     16          8           0       -0.926046   -3.645418    1.019015
     17          7           0        3.950637    2.783352    0.334412
     18          6           0        2.592459    2.785340    0.295102
     19          6           0        2.165315    4.149504    0.316355
     20          6           0        3.332318    4.957156    0.321709
     21          6           0        4.488440    4.063952    0.263705
     22          6           0        0.675418    4.458846    0.270532
     23          6           0        3.510040    6.464211    0.266447
     24          8           0        4.596490    7.067922    0.230995
     25          6           0        2.315934    7.313060    0.154099
     26          7           0        6.988855    2.250219   -0.194275
     27          6           0        6.971016    3.608736   -0.257328
     28          6           0        8.411412    4.145509   -0.318805
     29          6           0        9.333568    2.815914   -0.370273
     30          6           0        8.269586    1.759322   -0.238770
     31          6           0        8.772779    5.119821   -1.464654
     32          6           0       10.482312    2.806556    0.743514
     33          6           0       11.902518    3.200367    0.294916
     34          7           0        6.397225   -0.518243   -0.118064
     35          6           0        7.759826   -0.683098   -0.253980
     36          6           0        8.178565   -1.991575   -0.356856
     37          6           0        6.981798   -2.670351   -0.126350
     38          6           0        5.931135   -1.726318   -0.102930
     39          6           0        9.579511   -2.513313   -0.620072
     40          6           0        6.482670   -3.962539    0.102223
     41          8           0        7.125886   -4.994470    0.284732
     42          6           0        4.915972   -3.825454    0.221452
     43          6           0        4.279012   -4.663443   -0.737938
     44          8           0        3.990809   -4.311704   -1.911787
     45          8           0        4.019715   -5.878825   -0.093758
     46          6           0        3.101605   -6.752357   -0.819397
     47          6           0       -1.902897   -3.876315    0.032527
     48          6           0       -2.858535   -2.716396   -0.008028
     49          6           0       -3.634550   -2.296741   -0.997031
     50          6           0       -3.837301   -3.002185   -2.285718
     51          6           0       -4.630538   -1.277132   -0.632974
     52          6           0       -6.025231   -1.767337   -0.392689
     53          6           0       -6.559126   -1.294439    0.985940
     54          6           0       -7.830869   -0.452544    0.956206
     55          6           0       -7.988948    0.182106    2.371637
     56          6           0       -9.118807   -1.150914    0.576230
     57          6           0      -10.201414   -0.222039   -0.076693
     58          6           0      -11.537692   -0.753088    0.202546
     59          6           0      -12.518325    0.468381    0.410163
     60          6           0      -12.345054    1.063455    1.855368
     61          6           0      -13.939763    0.074975   -0.045733
     62          6           0      -14.577355    1.053362   -1.048970
     63          6           0      -16.093539    1.099499   -0.988953
     64          6           0      -16.573918    2.596531   -0.652102
     65          6           0      -18.004952    2.750519    0.149796
     66          6           0      -16.651415    3.508112   -1.911654
     67          1           0        0.770755    1.666003    0.239749
     68          1           0        6.129241    5.454288    0.014578
     69          1           0        9.702889    0.239667   -0.555720
     70          1           0        1.864831   -2.773670   -0.341428
     71          1           0        0.427176   -0.542124    0.856552
     72          1           0       -0.630747   -1.308793   -1.298319
     73          1           0        0.897446   -1.673923   -1.987998
     74          1           0        0.475011    0.057105   -1.674898
     75          1           0        1.409515   -1.986336    2.597303
     76          1           0        2.962066   -2.778629    2.343334
     77          1           0        0.863833   -3.978630    3.044148
     78          1           0        2.044614   -4.715696    2.140734
     79          1           0        0.324520    4.461195   -0.761805
     80          1           0        0.499697    5.446539    0.696884
     81          1           0        0.076594    3.789601    0.886433
     82          1           0        2.725910    8.318776    0.065506
     83          1           0        1.761212    7.262444    1.091528
     84          1           0        1.614714    7.177371   -0.669714
     85          1           0        8.589612    4.594694    0.658468
     86          1           0        9.693733    2.741748   -1.395697
     87          1           0        9.796834    5.178084   -1.833065
     88          1           0        8.709193    6.056467   -0.909258
     89          1           0        8.028696    5.048819   -2.258459
     90          1           0       10.457794    1.836885    1.238969
     91          1           0       10.246269    3.570762    1.483683
     92          1           0       11.945180    3.733392   -0.655095
     93          1           0       12.418112    2.247719    0.169016
     94          1           0       12.386096    3.823149    1.047615
     95          1           0       10.243469   -1.923461   -1.251954
     96          1           0        9.182979   -3.367635   -1.167709
     97          1           0       10.069802   -2.708641    0.333381
     98          1           0        4.610019   -4.210180    1.194680
     99          1           0        3.682902   -7.192654   -1.629748
    100          1           0        2.235761   -6.311356   -1.312936
    101          1           0        2.699495   -7.502697   -0.139301
    102          1           0       -2.461654   -4.724341    0.429222
    103          1           0       -1.462866   -4.041115   -0.950806
    104          1           0       -2.822061   -2.004931    0.816930
    105          1           0       -3.057903   -2.651088   -2.962177
    106          1           0       -4.763832   -2.789110   -2.819861
    107          1           0       -3.716711   -4.080144   -2.183611
    108          1           0       -4.617016   -0.649890   -1.524983
    109          1           0       -4.162788   -0.667085    0.139631
    110          1           0       -6.007188   -2.857790   -0.397095
    111          1           0       -6.658734   -1.524975   -1.245464
    112          1           0       -5.866964   -0.688581    1.570656
    113          1           0       -6.747933   -2.133730    1.655660
    114          1           0       -7.636634    0.362786    0.258947
    115          1           0       -8.831701    0.872805    2.401617
    116          1           0       -7.110335    0.776948    2.621383
    117          1           0       -8.029745   -0.526271    3.198139
    118          1           0       -9.537715   -1.720929    1.404700
    119          1           0       -8.991888   -1.878280   -0.226034
    120          1           0      -10.108798   -0.244643   -1.161808
    121          1           0      -10.079521    0.750669    0.399539
    122          1           0      -11.560827   -1.283299    1.155518
    123          1           0      -11.891202   -1.327204   -0.653457
    124          1           0      -12.155108    1.133475   -0.374133
    125          1           0      -11.753648    0.388695    2.475603
    126          1           0      -13.343309    1.264125    2.243420
    127          1           0      -11.889530    2.046474    1.740598
    128          1           0      -14.554936   -0.101256    0.837362
    129          1           0      -14.089119   -0.865726   -0.575268
    130          1           0      -14.348852    0.711264   -2.057727
    131          1           0      -14.154851    2.049049   -0.915798
    132          1           0      -16.342099    0.444456   -0.153727
    133          1           0      -16.490255    0.688903   -1.917817
    134          1           0      -15.889911    2.957732    0.116378
    135          1           0      -17.927836    3.394010    1.025674
    136          1           0      -18.391732    1.757782    0.380073
    137          1           0      -18.801640    3.161898   -0.470063
    138          1           0      -16.484286    4.537499   -1.595828
    139          1           0      -17.535499    3.379312   -2.536071
    140          1           0      -15.758060    3.388203   -2.523294
 ---------------------------------------------------------------------

 SCF Done:  E(RPBE1PBE) =  -3005.34671307     A.U. after   15 cycles

 Excitation energies and oscillator strengths:

 Excited State   1:      Singlet-A      1.8895 eV  656.18 nm  f=0.3780  <S**2>=0.000
     245 -> 248       -0.18203
     246 -> 247        0.68874
     246 <- 247       -0.10250
 This state for optimization and/or second-order correction.
 Total Energy, E(TD-HF/TD-DFT) =  -3005.27727606
 Copying the excited state density for this state as the 1-particle RhoCI density.

 Excited State   2:      Singlet-A      2.2220 eV  557.97 nm  f=0.1075  <S**2>=0.000
     245 -> 247        0.65153
     246 -> 248        0.26040

 Excited State   3:      Singlet-A      2.8651 eV  432.74 nm  f=0.0001  <S**2>=0.000
     243 -> 247        0.61664
     243 -> 249       -0.14625
     244 -> 247        0.27483

 Excited State   4:      Singlet-A      3.0464 eV  406.98 nm  f=0.0011  <S**2>=0.000
     241 -> 247        0.44429
     241 -> 249        0.13207
     242 -> 247        0.18993
     243 -> 247        0.17835
     244 -> 247       -0.43804

 Excited State   5:      Singlet-A      3.1043 eV  399.40 nm  f=0.0040  <S**2>=0.000
     241 -> 247        0.50107
     243 -> 247       -0.19366
     244 -> 247        0.42689

 The electronic state is 1-A.
 Alpha  occ. eigenvalues --  -46.91507 -19.25713 -19.25186 -19.21033 -19.19651
 Alpha  occ. eigenvalues --  -19.18829 -19.18727 -14.41658 -14.41316 -14.38853
 Alpha  occ. eigenvalues --  -14.38475 -10.37428 -10.35778 -10.31764 -10.31465
 Alpha  occ. eigenvalues --  -10.29383 -10.29328 -10.28248 -10.28165 -10.28065
 Alpha  occ. eigenvalues --  -10.27634 -10.27090 -10.26764 -10.26573 -10.26320
 Alpha  occ. eigenvalues --  -10.26242 -10.25949 -10.25867 -10.25736 -10.25681
 Alpha  occ. eigenvalues --  -10.25480 -10.25336 -10.25278 -10.25245 -10.25205
 Alpha  occ. eigenvalues --  -10.24595 -10.24509 -10.24434 -10.24295 -10.24190
 Alpha  occ. eigenvalues --  -10.24142 -10.23952 -10.23937 -10.23921 -10.23494
 Alpha  occ. eigenvalues --  -10.23376 -10.23290 -10.23251 -10.23222 -10.23104
 Alpha  occ. eigenvalues --  -10.22983 -10.22760 -10.22718 -10.22675 -10.22634
 Alpha  occ. eigenvalues --  -10.22410 -10.22333 -10.22318 -10.22215 -10.22051
 Alpha  occ. eigenvalues --  -10.22051 -10.21946 -10.21935 -10.21922 -10.21795
 Alpha  occ. eigenvalues --  -10.21525  -3.13718  -1.86555  -1.86092  -1.85946
 Alpha  occ. eigenvalues --   -1.13000  -1.08965  -1.04079  -1.03914  -1.03553
 Alpha  occ. eigenvalues --   -1.00951  -1.00611  -0.98263  -0.97630  -0.96752
 Alpha  occ. eigenvalues --   -0.87280  -0.86309  -0.84617  -0.84051  -0.83410
 Alpha  occ. eigenvalues --   -0.82966  -0.82236  -0.82202  -0.81545  -0.81228
 Alpha  occ. eigenvalues --   -0.80565  -0.79787  -0.78744  -0.78102  -0.77657
 Alpha  occ. eigenvalues --   -0.77144  -0.76337  -0.75645  -0.75424  -0.74692
 Alpha  occ. eigenvalues --   -0.74463  -0.72937  -0.72049  -0.71530  -0.70936
 Alpha  occ. eigenvalues --   -0.69929  -0.69344  -0.69275  -0.68850  -0.68583
 Alpha  occ. eigenvalues --   -0.68225  -0.67742  -0.66128  -0.65305  -0.63368
 Alpha  occ. eigenvalues --   -0.63117  -0.62612  -0.61672  -0.61429  -0.60329
 Alpha  occ. eigenvalues --   -0.59626  -0.59540  -0.59182  -0.58922  -0.58443
 Alpha  occ. eigenvalues --   -0.58231  -0.57343  -0.56359  -0.56124  -0.55111
 Alpha  occ. eigenvalues --   -0.54416  -0.54228  -0.53750  -0.53282  -0.52233
 Alpha  occ. eigenvalues --   -0.51944  -0.51753  -0.51291  -0.50500  -0.50392
 Alpha  occ. eigenvalues --   -0.50133  -0.49901  -0.49617  -0.48672  -0.48403
 Alpha  occ. eigenvalues --   -0.48311  -0.48054  -0.47954  -0.47718  -0.47570
 Alpha  occ. eigenvalues --   -0.47429  -0.47087  -0.46739  -0.46648  -0.46553
 Alpha  occ. eigenvalues --   -0.46333  -0.46102  -0.45805  -0.45752  -0.45266
 Alpha  occ. eigenvalues --   -0.44828  -0.44705  -0.44412  -0.44022  -0.43974
 Alpha  occ. eigenvalues --   -0.43843  -0.43693  -0.43646  -0.43359  -0.43209
 Alpha  occ. eigenvalues --   -0.43053  -0.42922  -0.42508  -0.42390  -0.42201
 Alpha  occ. eigenvalues --   -0.42147  -0.41900  -0.41863  -0.41701  -0.41389
 Alpha  occ. eigenvalues --   -0.41293  -0.41039  -0.40966  -0.40703  -0.40536
 Alpha  occ. eigenvalues --   -0.40448  -0.40215  -0.40046  -0.39893  -0.39600
 Alpha  occ. eigenvalues --   -0.39327  -0.39211  -0.39188  -0.38844  -0.38423
 Alpha  occ. eigenvalues --   -0.38250  -0.38090  -0.37896  -0.37711  -0.37684
 Alpha  occ. eigenvalues --   -0.37420  -0.37341  -0.37022  -0.36974  -0.36780
 Alpha  occ. eigenvalues --   -0.36495  -0.36371  -0.36208  -0.36092  -0.35949
 Alpha  occ. eigenvalues --   -0.35835  -0.35703  -0.35667  -0.35495  -0.35024
 Alpha  occ. eigenvalues --   -0.34655  -0.34276  -0.34244  -0.33744  -0.33584
 Alpha  occ. eigenvalues --   -0.33318  -0.32782  -0.32648  -0.32436  -0.32287
 Alpha  occ. eigenvalues --   -0.32159  -0.32010  -0.31957  -0.31492  -0.31285
 Alpha  occ. eigenvalues --   -0.31143  -0.30688  -0.30449  -0.29723  -0.29492
 Alpha  occ. eigenvalues --   -0.28990  -0.28257  -0.27850  -0.26986  -0.26117
 Alpha  occ. eigenvalues --   -0.25506  -0.25372  -0.25302  -0.25240  -0.20864
 Alpha  occ. eigenvalues --   -0.18895
 Alpha virt. eigenvalues --   -0.11125  -0.05247  -0.03952  -0.02057  -0.00602
 Alpha virt. eigenvalues --   -0.00477   0.00145   0.01352   0.01530   0.03394
 Alpha virt. eigenvalues --    0.04457   0.04640   0.05134   0.05464   0.05814

 Mulliken charges:
               1
     1  Mg   0.977266
     2  C   -0.037580
     3  C   -0.059444
     4  C   -0.040225
     5  C   -0.083545
     6  N   -0.402752
     7  C    0.026789
     8  C   -0.070011
     9  C   -0.178864
    10  C    0.106823
    11  C   -0.020792
    12  C    0.037626
    13  C   -0.019096
    14  C    0.223967
    15  O   -0.250286
    16  O   -0.367537
    17  N   -0.501074
    18  C    0.166502
    19  C   -0.177122
    20  C   -0.078086
    21  C    0.168640
    22  C    0.060840
    23  C    0.062893
    24  O   -0.260043
    25  C   -0.040753
    26  N   -0.394001
    27  C    0.074448
    28  C   -0.151531
    29  C   -0.094741
    30  C    0.053972
    31  C    0.008591
    32  C   -0.028513
    33  C   -0.069683
    34  N   -0.441845
    35  C    0.164446
    36  C   -0.177814
    37  C   -0.030556
    38  C    0.183590
    39  C    0.066566
    40  C    0.079510
    41  O   -0.219611
    42  C   -0.114741
    43  C    0.325290
    44  O   -0.287786
    45  O   -0.380945
    46  C    0.135740
    47  C    0.277390
    48  C   -0.155471
    49  C   -0.264747
    50  C    0.022262
    51  C    0.023435
    52  C    0.030346
    53  C   -0.000182
    54  C   -0.194202
    55  C   -0.033220
    56  C   -0.005513
    57  C   -0.040460
    58  C   -0.021440
    59  C   -0.243263
    60  C    0.011929
    61  C   -0.007366
    62  C   -0.076220
    63  C    0.008894
    64  C   -0.242134
    65  C   -0.046965
    66  C   -0.012639
    67  H    0.002000
    68  H    0.034748
    69  H    0.003303
    70  H    0.080039
    71  H    0.049995
    72  H    0.059901
    73  H    0.057745
    74  H    0.039470
    75  H    0.047608
    76  H    0.054407
    77  H    0.050803
    78  H    0.054818
    79  H    0.064290
    80  H    0.028587
    81  H    0.050512
    82  H    0.049459
    83  H    0.062960
    84  H    0.066973
    85  H    0.055228
    86  H    0.051282
    87  H    0.044666
    88  H    0.043375
    89  H    0.060188
    90  H    0.044216
    91  H    0.035754
    92  H    0.043568
    93  H    0.044334
    94  H    0.047958
    95  H    0.048402
    96  H    0.079625
    97  H    0.072360
    98  H    0.074894
    99  H    0.044402
   100  H    0.065535
   101  H    0.054454
   102  H    0.048553
   103  H    0.057912
   104  H    0.022145
   105  H    0.050552
   106  H    0.040054
   107  H    0.052903
   108  H    0.014110
   109  H    0.025045
   110  H    0.032464
   111  H    0.032423
   112  H    0.017947
   113  H    0.017321
   114  H    0.025523
   115  H    0.034709
   116  H    0.026334
   117  H    0.033379
   118  H    0.020766
   119  H    0.015168
   120  H    0.037244
   121  H    0.032768
   122  H    0.026467
   123  H    0.023734
   124  H    0.037579
   125  H    0.050161
   126  H    0.036236
   127  H    0.042137
   128  H    0.016896
   129  H    0.021615
   130  H    0.028059
   131  H    0.035274
   132  H    0.024563
   133  H    0.030417
   134  H    0.040410
   135  H    0.043803
   136  H    0.029865
   137  H    0.026418
   138  H    0.033193
   139  H    0.052662
   140  H    0.020377
 Sum of Mulliken charges =  -0.00000

 Dipole moment (field-independent basis, Debye):
    X=             -3.9217    Y=              2.3389    Z=              2.1460  Tot=              5.0453
 Quadrupole moment (field-independent basis, Debye-Ang):
   XX=           -382.0536   YY=           -439.6591   ZZ=           -398.0284
   XY=             26.7705   XZ=             11.9139   YZ=             -5.4451

 Normal termination of Gaussian 16 at Wed Apr 27 20:46:31 2022.
