 Gaussian 16, Revision A.03,
 Gaussian 16:  ES64L-G16RevA.03 25-Dec-2016

 --------------------------------
 #p wB97XD/Def2SVP td=(nstates=5)
 --------------------------------

 -----------------------------------------------------
 step_1301_chromophore_21 TDDFT with wB97XD functional
 -----------------------------------------------------
 Symbolic Z-matrix:
 Charge =  0 Multiplicity = 1

                         Standard orientation:
 ---------------------------------------------------------------------
 Center     Atomic      Atomic             Coordinates (Angstroms)
 Number     Number       Type             X           Y           Z
 ---------------------------------------------------------------------
      1         12           0        5.218337    1.097537    0.254403
      2          6           0        4.711127   -2.305634    0.103856
      3          6           0        1.855174    1.601863    0.129676
      4          6           0        5.846210    4.400686    0.055875
      5          6           0        8.637590    0.408020   -0.387484
      6          7           0        3.535557   -0.218112   -0.017117
      7          6           0        3.486505   -1.541009    0.201255
      8          6           0        2.088780   -2.048984    0.441625
      9          6           0        1.172802   -0.784781    0.099454
     10          6           0        2.249265    0.313751   -0.042112
     11          6           0        0.404866   -0.969979   -1.316702
     12          6           0        1.975082   -2.613623    1.909104
     13          6           0        1.267465   -3.959649    2.031547
     14          6           0        0.221675   -4.403121    0.990233
     15          8           0        0.352691   -5.232269    0.125005
     16          8           0       -0.926046   -3.645418    1.019015
     17          7           0        3.950637    2.783352    0.334412
     18          6           0        2.592459    2.785340    0.295102
     19          6           0        2.165315    4.149504    0.316355
     20          6           0        3.332318    4.957156    0.321709
     21          6           0        4.488440    4.063952    0.263705
     22          6           0        0.675418    4.458846    0.270532
     23          6           0        3.510040    6.464211    0.266447
     24          8           0        4.596490    7.067922    0.230995
     25          6           0        2.315934    7.313060    0.154099
     26          7           0        6.988855    2.250219   -0.194275
     27          6           0        6.971016    3.608736   -0.257328
     28          6           0        8.411412    4.145509   -0.318805
     29          6           0        9.333568    2.815914   -0.370273
     30          6           0        8.269586    1.759322   -0.238770
     31          6           0        8.772779    5.119821   -1.464654
     32          6           0       10.482312    2.806556    0.743514
     33          6           0       11.902518    3.200367    0.294916
     34          7           0        6.397225   -0.518243   -0.118064
     35          6           0        7.759826   -0.683098   -0.253980
     36          6           0        8.178565   -1.991575   -0.356856
     37          6           0        6.981798   -2.670351   -0.126350
     38          6           0        5.931135   -1.726318   -0.102930
     39          6           0        9.579511   -2.513313   -0.620072
     40          6           0        6.482670   -3.962539    0.102223
     41          8           0        7.125886   -4.994470    0.284732
     42          6           0        4.915972   -3.825454    0.221452
     43          6           0        4.279012   -4.663443   -0.737938
     44          8           0        3.990809   -4.311704   -1.911787
     45          8           0        4.019715   -5.878825   -0.093758
     46          6           0        3.101605   -6.752357   -0.819397
     47          6           0       -1.902897   -3.876315    0.032527
     48          6           0       -2.858535   -2.716396   -0.008028
     49          6           0       -3.634550   -2.296741   -0.997031
     50          6           0       -3.837301   -3.002185   -2.285718
     51          6           0       -4.630538   -1.277132   -0.632974
     52          6           0       -6.025231   -1.767337   -0.392689
     53          6           0       -6.559126   -1.294439    0.985940
     54          6           0       -7.830869   -0.452544    0.956206
     55          6           0       -7.988948    0.182106    2.371637
     56          6           0       -9.118807   -1.150914    0.576230
     57          6           0      -10.201414   -0.222039   -0.076693
     58          6           0      -11.537692   -0.753088    0.202546
     59          6           0      -12.518325    0.468381    0.410163
     60          6           0      -12.345054    1.063455    1.855368
     61          6           0      -13.939763    0.074975   -0.045733
     62          6           0      -14.577355    1.053362   -1.048970
     63          6           0      -16.093539    1.099499   -0.988953
     64          6           0      -16.573918    2.596531   -0.652102
     65          6           0      -18.004952    2.750519    0.149796
     66          6           0      -16.651415    3.508112   -1.911654
     67          1           0        0.770755    1.666003    0.239749
     68          1           0        6.129241    5.454288    0.014578
     69          1           0        9.702889    0.239667   -0.555720
     70          1           0        1.864831   -2.773670   -0.341428
     71          1           0        0.427176   -0.542124    0.856552
     72          1           0       -0.630747   -1.308793   -1.298319
     73          1           0        0.897446   -1.673923   -1.987998
     74          1           0        0.475011    0.057105   -1.674898
     75          1           0        1.409515   -1.986336    2.597303
     76          1           0        2.962066   -2.778629    2.343334
     77          1           0        0.863833   -3.978630    3.044148
     78          1           0        2.044614   -4.715696    2.140734
     79          1           0        0.324520    4.461195   -0.761805
     80          1           0        0.499697    5.446539    0.696884
     81          1           0        0.076594    3.789601    0.886433
     82          1           0        2.725910    8.318776    0.065506
     83          1           0        1.761212    7.262444    1.091528
     84          1           0        1.614714    7.177371   -0.669714
     85          1           0        8.589612    4.594694    0.658468
     86          1           0        9.693733    2.741748   -1.395697
     87          1           0        9.796834    5.178084   -1.833065
     88          1           0        8.709193    6.056467   -0.909258
     89          1           0        8.028696    5.048819   -2.258459
     90          1           0       10.457794    1.836885    1.238969
     91          1           0       10.246269    3.570762    1.483683
     92          1           0       11.945180    3.733392   -0.655095
     93          1           0       12.418112    2.247719    0.169016
     94          1           0       12.386096    3.823149    1.047615
     95          1           0       10.243469   -1.923461   -1.251954
     96          1           0        9.182979   -3.367635   -1.167709
     97          1           0       10.069802   -2.708641    0.333381
     98          1           0        4.610019   -4.210180    1.194680
     99          1           0        3.682902   -7.192654   -1.629748
    100          1           0        2.235761   -6.311356   -1.312936
    101          1           0        2.699495   -7.502697   -0.139301
    102          1           0       -2.461654   -4.724341    0.429222
    103          1           0       -1.462866   -4.041115   -0.950806
    104          1           0       -2.822061   -2.004931    0.816930
    105          1           0       -3.057903   -2.651088   -2.962177
    106          1           0       -4.763832   -2.789110   -2.819861
    107          1           0       -3.716711   -4.080144   -2.183611
    108          1           0       -4.617016   -0.649890   -1.524983
    109          1           0       -4.162788   -0.667085    0.139631
    110          1           0       -6.007188   -2.857790   -0.397095
    111          1           0       -6.658734   -1.524975   -1.245464
    112          1           0       -5.866964   -0.688581    1.570656
    113          1           0       -6.747933   -2.133730    1.655660
    114          1           0       -7.636634    0.362786    0.258947
    115          1           0       -8.831701    0.872805    2.401617
    116          1           0       -7.110335    0.776948    2.621383
    117          1           0       -8.029745   -0.526271    3.198139
    118          1           0       -9.537715   -1.720929    1.404700
    119          1           0       -8.991888   -1.878280   -0.226034
    120          1           0      -10.108798   -0.244643   -1.161808
    121          1           0      -10.079521    0.750669    0.399539
    122          1           0      -11.560827   -1.283299    1.155518
    123          1           0      -11.891202   -1.327204   -0.653457
    124          1           0      -12.155108    1.133475   -0.374133
    125          1           0      -11.753648    0.388695    2.475603
    126          1           0      -13.343309    1.264125    2.243420
    127          1           0      -11.889530    2.046474    1.740598
    128          1           0      -14.554936   -0.101256    0.837362
    129          1           0      -14.089119   -0.865726   -0.575268
    130          1           0      -14.348852    0.711264   -2.057727
    131          1           0      -14.154851    2.049049   -0.915798
    132          1           0      -16.342099    0.444456   -0.153727
    133          1           0      -16.490255    0.688903   -1.917817
    134          1           0      -15.889911    2.957732    0.116378
    135          1           0      -17.927836    3.394010    1.025674
    136          1           0      -18.391732    1.757782    0.380073
    137          1           0      -18.801640    3.161898   -0.470063
    138          1           0      -16.484286    4.537499   -1.595828
    139          1           0      -17.535499    3.379312   -2.536071
    140          1           0      -15.758060    3.388203   -2.523294
 ---------------------------------------------------------------------

 SCF Done:  E(RwB97XD) =  -3007.85608950     A.U. after   19 cycles

 Excitation energies and oscillator strengths:

 Excited State   1:      Singlet-A      1.6908 eV  733.27 nm  f=0.3888  <S**2>=0.000
     245 -> 248        0.19147
     246 -> 247        0.68070
     245 <- 248        0.11637
 This state for optimization and/or second-order correction.
 Total Energy, E(TD-HF/TD-DFT) =  -3007.79395226
 Copying the excited state density for this state as the 1-particle RhoCI density.

 Excited State   2:      Singlet-A      2.1657 eV  572.49 nm  f=0.1113  <S**2>=0.000
     245 -> 247        0.64031
     246 -> 248       -0.28594

 Excited State   3:      Singlet-A      3.3357 eV  371.69 nm  f=0.0003  <S**2>=0.000
     240 -> 247       -0.13465
     240 -> 249       -0.10651
     241 -> 247        0.48515
     241 -> 249        0.23868
     241 -> 250       -0.13416
     242 -> 247       -0.31855
     242 -> 249       -0.14423

 Excited State   4:      Singlet-A      3.4783 eV  356.45 nm  f=0.0265  <S**2>=0.000
     240 -> 247       -0.23109
     244 -> 247        0.61449
     246 -> 248        0.17880

 Excited State   5:      Singlet-A      3.5195 eV  352.28 nm  f=0.3575  <S**2>=0.000
     240 -> 247        0.40369
     242 -> 247       -0.15793
     245 -> 247        0.18674
     246 -> 248        0.50597

 The electronic state is 1-A.
 Alpha  occ. eigenvalues --  -46.94470 -19.30290 -19.29863 -19.25740 -19.24504
 Alpha  occ. eigenvalues --  -19.23841 -19.23348 -14.46700 -14.46456 -14.43681
 Alpha  occ. eigenvalues --  -14.43537 -10.44246 -10.42770 -10.38536 -10.38444
 Alpha  occ. eigenvalues --  -10.35875 -10.35819 -10.34598 -10.34358 -10.34202
 Alpha  occ. eigenvalues --  -10.33705 -10.33687 -10.33155 -10.32809 -10.32556
 Alpha  occ. eigenvalues --  -10.32515 -10.32451 -10.32362 -10.32152 -10.32063
 Alpha  occ. eigenvalues --  -10.31888 -10.31793 -10.31753 -10.31499 -10.31480
 Alpha  occ. eigenvalues --  -10.30856 -10.30777 -10.30743 -10.30633 -10.30627
 Alpha  occ. eigenvalues --  -10.30603 -10.30430 -10.30280 -10.30259 -10.29934
 Alpha  occ. eigenvalues --  -10.29658 -10.29632 -10.29597 -10.29521 -10.29494
 Alpha  occ. eigenvalues --  -10.29307 -10.29131 -10.29127 -10.29033 -10.28990
 Alpha  occ. eigenvalues --  -10.28872 -10.28864 -10.28668 -10.28630 -10.28484
 Alpha  occ. eigenvalues --  -10.28419 -10.28337 -10.28322 -10.28270 -10.28151
 Alpha  occ. eigenvalues --  -10.27871  -3.20524  -1.94112  -1.93650  -1.93502
 Alpha  occ. eigenvalues --   -1.20376  -1.16505  -1.11592  -1.11434  -1.10883
 Alpha  occ. eigenvalues --   -1.08477  -1.08129  -1.05654  -1.05005  -1.03964
 Alpha  occ. eigenvalues --   -0.95033  -0.93945  -0.92268  -0.91744  -0.91082
 Alpha  occ. eigenvalues --   -0.90618  -0.89902  -0.89772  -0.89131  -0.88888
 Alpha  occ. eigenvalues --   -0.88074  -0.87411  -0.86384  -0.85787  -0.85273
 Alpha  occ. eigenvalues --   -0.84778  -0.83992  -0.83280  -0.83057  -0.82308
 Alpha  occ. eigenvalues --   -0.82119  -0.80654  -0.79642  -0.79107  -0.78587
 Alpha  occ. eigenvalues --   -0.77576  -0.77018  -0.76925  -0.76554  -0.76232
 Alpha  occ. eigenvalues --   -0.75823  -0.75324  -0.73644  -0.72944  -0.70932
 Alpha  occ. eigenvalues --   -0.70709  -0.70212  -0.69226  -0.68975  -0.67826
 Alpha  occ. eigenvalues --   -0.67118  -0.66978  -0.66811  -0.66367  -0.66044
 Alpha  occ. eigenvalues --   -0.65820  -0.64993  -0.63967  -0.63652  -0.62652
 Alpha  occ. eigenvalues --   -0.61904  -0.61670  -0.61100  -0.60685  -0.59869
 Alpha  occ. eigenvalues --   -0.59401  -0.59222  -0.58707  -0.57895  -0.57867
 Alpha  occ. eigenvalues --   -0.57562  -0.57431  -0.56946  -0.56087  -0.55850
 Alpha  occ. eigenvalues --   -0.55697  -0.55449  -0.55374  -0.55087  -0.54956
 Alpha  occ. eigenvalues --   -0.54766  -0.54381  -0.54286  -0.54123  -0.53881
 Alpha  occ. eigenvalues --   -0.53734  -0.53525  -0.53160  -0.53072  -0.52570
 Alpha  occ. eigenvalues --   -0.52183  -0.52024  -0.51721  -0.51340  -0.51308
 Alpha  occ. eigenvalues --   -0.51106  -0.50999  -0.50943  -0.50791  -0.50534
 Alpha  occ. eigenvalues --   -0.50362  -0.50129  -0.49819  -0.49647  -0.49477
 Alpha  occ. eigenvalues --   -0.49401  -0.49242  -0.49123  -0.48910  -0.48611
 Alpha  occ. eigenvalues --   -0.48517  -0.48259  -0.48131  -0.47910  -0.47753
 Alpha  occ. eigenvalues --   -0.47678  -0.47410  -0.47105  -0.47067  -0.46727
 Alpha  occ. eigenvalues --   -0.46556  -0.46389  -0.46345  -0.46039  -0.45605
 Alpha  occ. eigenvalues --   -0.45482  -0.45162  -0.45014  -0.44891  -0.44848
 Alpha  occ. eigenvalues --   -0.44591  -0.44439  -0.44275  -0.44083  -0.43892
 Alpha  occ. eigenvalues --   -0.43734  -0.43467  -0.43308  -0.43211  -0.43043
 Alpha  occ. eigenvalues --   -0.42887  -0.42792  -0.42702  -0.42486  -0.42095
 Alpha  occ. eigenvalues --   -0.41729  -0.41335  -0.41280  -0.40805  -0.40532
 Alpha  occ. eigenvalues --   -0.40314  -0.39812  -0.39671  -0.39377  -0.39294
 Alpha  occ. eigenvalues --   -0.39139  -0.39052  -0.38957  -0.38503  -0.38256
 Alpha  occ. eigenvalues --   -0.37988  -0.37639  -0.37609  -0.36859  -0.36287
 Alpha  occ. eigenvalues --   -0.35749  -0.35460  -0.34663  -0.33552  -0.32817
 Alpha  occ. eigenvalues --   -0.32531  -0.32495  -0.32082  -0.31649  -0.25858
 Alpha  occ. eigenvalues --   -0.23093
 Alpha virt. eigenvalues --   -0.06992   0.00197   0.02332   0.04455   0.05336
 Alpha virt. eigenvalues --    0.06269   0.06744   0.08067   0.08283   0.10056
 Alpha virt. eigenvalues --    0.10639   0.11426   0.11891   0.12197   0.12565

 Mulliken charges:
               1
     1  Mg   0.967370
     2  C   -0.051179
     3  C   -0.074016
     4  C   -0.049128
     5  C   -0.108862
     6  N   -0.368708
     7  C    0.002910
     8  C   -0.046045
     9  C   -0.154523
    10  C    0.094983
    11  C   -0.001964
    12  C    0.045937
    13  C   -0.004404
    14  C    0.212151
    15  O   -0.246048
    16  O   -0.363984
    17  N   -0.466157
    18  C    0.150577
    19  C   -0.167111
    20  C   -0.071031
    21  C    0.153274
    22  C    0.073258
    23  C    0.060823
    24  O   -0.255478
    25  C   -0.033151
    26  N   -0.358705
    27  C    0.050411
    28  C   -0.119784
    29  C   -0.071741
    30  C    0.041752
    31  C    0.017517
    32  C   -0.013956
    33  C   -0.053755
    34  N   -0.401600
    35  C    0.169678
    36  C   -0.178282
    37  C   -0.027482
    38  C    0.174118
    39  C    0.077544
    40  C    0.061749
    41  O   -0.207643
    42  C   -0.073362
    43  C    0.299770
    44  O   -0.280500
    45  O   -0.379293
    46  C    0.148295
    47  C    0.286502
    48  C   -0.163215
    49  C   -0.243980
    50  C    0.028805
    51  C    0.045541
    52  C    0.041374
    53  C    0.015456
    54  C   -0.158937
    55  C   -0.019802
    56  C    0.004786
    57  C   -0.019365
    58  C   -0.005122
    59  C   -0.208672
    60  C    0.023765
    61  C    0.004089
    62  C   -0.057138
    63  C    0.021797
    64  C   -0.211934
    65  C   -0.034262
    66  C   -0.001068
    67  H   -0.005191
    68  H    0.029577
    69  H   -0.001981
    70  H    0.062376
    71  H    0.042357
    72  H    0.044588
    73  H    0.052544
    74  H    0.031555
    75  H    0.042630
    76  H    0.045030
    77  H    0.046564
    78  H    0.048243
    79  H    0.059128
    80  H    0.020506
    81  H    0.045243
    82  H    0.047149
    83  H    0.057442
    84  H    0.063373
    85  H    0.042964
    86  H    0.040056
    87  H    0.038776
    88  H    0.037409
    89  H    0.055200
    90  H    0.035756
    91  H    0.027848
    92  H    0.036980
    93  H    0.037653
    94  H    0.043155
    95  H    0.045508
    96  H    0.074530
    97  H    0.069777
    98  H    0.066071
    99  H    0.040987
   100  H    0.061472
   101  H    0.052553
   102  H    0.043773
   103  H    0.052946
   104  H    0.017670
   105  H    0.045320
   106  H    0.036027
   107  H    0.048024
   108  H    0.005026
   109  H    0.016033
   110  H    0.023286
   111  H    0.025108
   112  H    0.007125
   113  H    0.008721
   114  H    0.013113
   115  H    0.027282
   116  H    0.019826
   117  H    0.026810
   118  H    0.010790
   119  H    0.005875
   120  H    0.030368
   121  H    0.016397
   122  H    0.013986
   123  H    0.015645
   124  H    0.020993
   125  H    0.043045
   126  H    0.030335
   127  H    0.036712
   128  H    0.006579
   129  H    0.013416
   130  H    0.020231
   131  H    0.022657
   132  H    0.013561
   133  H    0.024275
   134  H    0.028369
   135  H    0.038846
   136  H    0.023691
   137  H    0.019756
   138  H    0.027131
   139  H    0.047229
   140  H    0.013350
 Sum of Mulliken charges =  -0.00000

 Dipole moment (field-independent basis, Debye):
    X=             -3.7014    Y=              1.9548    Z=              2.1773  Tot=              4.7183
 Quadrupole moment (field-independent basis, Debye-Ang):
   XX=           -379.6320   YY=           -439.1422   ZZ=           -397.6794
   XY=             24.1896   XZ=             11.9609   YZ=             -5.4749

 Normal termination of Gaussian 16 at Wed Apr 27 21:13:31 2022.
