 Gaussian 16, Revision A.03,
 Gaussian 16:  ES64L-G16RevA.03 25-Dec-2016

 --------------------
 #p ZINDO=(nstates=5)
 --------------------

 ------------------------------
 step_1301_chromophore_21 ZINDO
 ------------------------------
 Symbolic Z-matrix:
 Charge =  0 Multiplicity = 1

                         Standard orientation:
 ---------------------------------------------------------------------
 Center     Atomic      Atomic             Coordinates (Angstroms)
 Number     Number       Type             X           Y           Z
 ---------------------------------------------------------------------
      1         12           0        5.218337    1.097537    0.254403
      2          6           0        4.711127   -2.305634    0.103856
      3          6           0        1.855174    1.601863    0.129676
      4          6           0        5.846210    4.400686    0.055875
      5          6           0        8.637590    0.408020   -0.387484
      6          7           0        3.535557   -0.218112   -0.017117
      7          6           0        3.486505   -1.541009    0.201255
      8          6           0        2.088780   -2.048984    0.441625
      9          6           0        1.172802   -0.784781    0.099454
     10          6           0        2.249265    0.313751   -0.042112
     11          6           0        0.404866   -0.969979   -1.316702
     12          6           0        1.975082   -2.613623    1.909104
     13          6           0        1.267465   -3.959649    2.031547
     14          6           0        0.221675   -4.403121    0.990233
     15          8           0        0.352691   -5.232269    0.125005
     16          8           0       -0.926046   -3.645418    1.019015
     17          7           0        3.950637    2.783352    0.334412
     18          6           0        2.592459    2.785340    0.295102
     19          6           0        2.165315    4.149504    0.316355
     20          6           0        3.332318    4.957156    0.321709
     21          6           0        4.488440    4.063952    0.263705
     22          6           0        0.675418    4.458846    0.270532
     23          6           0        3.510040    6.464211    0.266447
     24          8           0        4.596490    7.067922    0.230995
     25          6           0        2.315934    7.313060    0.154099
     26          7           0        6.988855    2.250219   -0.194275
     27          6           0        6.971016    3.608736   -0.257328
     28          6           0        8.411412    4.145509   -0.318805
     29          6           0        9.333568    2.815914   -0.370273
     30          6           0        8.269586    1.759322   -0.238770
     31          6           0        8.772779    5.119821   -1.464654
     32          6           0       10.482312    2.806556    0.743514
     33          6           0       11.902518    3.200367    0.294916
     34          7           0        6.397225   -0.518243   -0.118064
     35          6           0        7.759826   -0.683098   -0.253980
     36          6           0        8.178565   -1.991575   -0.356856
     37          6           0        6.981798   -2.670351   -0.126350
     38          6           0        5.931135   -1.726318   -0.102930
     39          6           0        9.579511   -2.513313   -0.620072
     40          6           0        6.482670   -3.962539    0.102223
     41          8           0        7.125886   -4.994470    0.284732
     42          6           0        4.915972   -3.825454    0.221452
     43          6           0        4.279012   -4.663443   -0.737938
     44          8           0        3.990809   -4.311704   -1.911787
     45          8           0        4.019715   -5.878825   -0.093758
     46          6           0        3.101605   -6.752357   -0.819397
     47          6           0       -1.902897   -3.876315    0.032527
     48          6           0       -2.858535   -2.716396   -0.008028
     49          6           0       -3.634550   -2.296741   -0.997031
     50          6           0       -3.837301   -3.002185   -2.285718
     51          6           0       -4.630538   -1.277132   -0.632974
     52          6           0       -6.025231   -1.767337   -0.392689
     53          6           0       -6.559126   -1.294439    0.985940
     54          6           0       -7.830869   -0.452544    0.956206
     55          6           0       -7.988948    0.182106    2.371637
     56          6           0       -9.118807   -1.150914    0.576230
     57          6           0      -10.201414   -0.222039   -0.076693
     58          6           0      -11.537692   -0.753088    0.202546
     59          6           0      -12.518325    0.468381    0.410163
     60          6           0      -12.345054    1.063455    1.855368
     61          6           0      -13.939763    0.074975   -0.045733
     62          6           0      -14.577355    1.053362   -1.048970
     63          6           0      -16.093539    1.099499   -0.988953
     64          6           0      -16.573918    2.596531   -0.652102
     65          6           0      -18.004952    2.750519    0.149796
     66          6           0      -16.651415    3.508112   -1.911654
     67          1           0        0.770755    1.666003    0.239749
     68          1           0        6.129241    5.454288    0.014578
     69          1           0        9.702889    0.239667   -0.555720
     70          1           0        1.864831   -2.773670   -0.341428
     71          1           0        0.427176   -0.542124    0.856552
     72          1           0       -0.630747   -1.308793   -1.298319
     73          1           0        0.897446   -1.673923   -1.987998
     74          1           0        0.475011    0.057105   -1.674898
     75          1           0        1.409515   -1.986336    2.597303
     76          1           0        2.962066   -2.778629    2.343334
     77          1           0        0.863833   -3.978630    3.044148
     78          1           0        2.044614   -4.715696    2.140734
     79          1           0        0.324520    4.461195   -0.761805
     80          1           0        0.499697    5.446539    0.696884
     81          1           0        0.076594    3.789601    0.886433
     82          1           0        2.725910    8.318776    0.065506
     83          1           0        1.761212    7.262444    1.091528
     84          1           0        1.614714    7.177371   -0.669714
     85          1           0        8.589612    4.594694    0.658468
     86          1           0        9.693733    2.741748   -1.395697
     87          1           0        9.796834    5.178084   -1.833065
     88          1           0        8.709193    6.056467   -0.909258
     89          1           0        8.028696    5.048819   -2.258459
     90          1           0       10.457794    1.836885    1.238969
     91          1           0       10.246269    3.570762    1.483683
     92          1           0       11.945180    3.733392   -0.655095
     93          1           0       12.418112    2.247719    0.169016
     94          1           0       12.386096    3.823149    1.047615
     95          1           0       10.243469   -1.923461   -1.251954
     96          1           0        9.182979   -3.367635   -1.167709
     97          1           0       10.069802   -2.708641    0.333381
     98          1           0        4.610019   -4.210180    1.194680
     99          1           0        3.682902   -7.192654   -1.629748
    100          1           0        2.235761   -6.311356   -1.312936
    101          1           0        2.699495   -7.502697   -0.139301
    102          1           0       -2.461654   -4.724341    0.429222
    103          1           0       -1.462866   -4.041115   -0.950806
    104          1           0       -2.822061   -2.004931    0.816930
    105          1           0       -3.057903   -2.651088   -2.962177
    106          1           0       -4.763832   -2.789110   -2.819861
    107          1           0       -3.716711   -4.080144   -2.183611
    108          1           0       -4.617016   -0.649890   -1.524983
    109          1           0       -4.162788   -0.667085    0.139631
    110          1           0       -6.007188   -2.857790   -0.397095
    111          1           0       -6.658734   -1.524975   -1.245464
    112          1           0       -5.866964   -0.688581    1.570656
    113          1           0       -6.747933   -2.133730    1.655660
    114          1           0       -7.636634    0.362786    0.258947
    115          1           0       -8.831701    0.872805    2.401617
    116          1           0       -7.110335    0.776948    2.621383
    117          1           0       -8.029745   -0.526271    3.198139
    118          1           0       -9.537715   -1.720929    1.404700
    119          1           0       -8.991888   -1.878280   -0.226034
    120          1           0      -10.108798   -0.244643   -1.161808
    121          1           0      -10.079521    0.750669    0.399539
    122          1           0      -11.560827   -1.283299    1.155518
    123          1           0      -11.891202   -1.327204   -0.653457
    124          1           0      -12.155108    1.133475   -0.374133
    125          1           0      -11.753648    0.388695    2.475603
    126          1           0      -13.343309    1.264125    2.243420
    127          1           0      -11.889530    2.046474    1.740598
    128          1           0      -14.554936   -0.101256    0.837362
    129          1           0      -14.089119   -0.865726   -0.575268
    130          1           0      -14.348852    0.711264   -2.057727
    131          1           0      -14.154851    2.049049   -0.915798
    132          1           0      -16.342099    0.444456   -0.153727
    133          1           0      -16.490255    0.688903   -1.917817
    134          1           0      -15.889911    2.957732    0.116378
    135          1           0      -17.927836    3.394010    1.025674
    136          1           0      -18.391732    1.757782    0.380073
    137          1           0      -18.801640    3.161898   -0.470063
    138          1           0      -16.484286    4.537499   -1.595828
    139          1           0      -17.535499    3.379312   -2.536071
    140          1           0      -15.758060    3.388203   -2.523294
 ---------------------------------------------------------------------

 SCF Done:  E(RZINDO/S) =  -474.596284592     A.U. after   19 cycles

 Excitation energies and oscillator strengths:

 Excited State   1:      Singlet-A      1.2896 eV  961.43 nm  f=0.5910  <S**2>=0.000
     175 ->178         0.19175
     176 ->177         0.66390
 This state for optimization and/or second-order correction.
 Total Energy, E(CIS/TDA) =  -474.548893587
 Copying the excited state density for this state as the 1-particle RhoCI density.

 Excited State   2:      Singlet-A      1.9026 eV  651.66 nm  f=0.0622  <S**2>=0.000
     175 ->177         0.56331
     176 ->178        -0.39911

 Excited State   3:      Singlet-A      2.8288 eV  438.29 nm  f=0.0018  <S**2>=0.000
     169 ->177         0.40583
     169 ->178        -0.10364
     169 ->179        -0.36085
     169 ->180         0.13067
     169 ->183        -0.15923
     169 ->186        -0.17593
     171 ->177         0.14481

 Excited State   4:      Singlet-A      2.9343 eV  422.53 nm  f=0.0089  <S**2>=0.000
     170 ->177         0.25715
     170 ->178        -0.10392
     170 ->179         0.29227
     170 ->180         0.36024
     170 ->183        -0.20758
     170 ->186         0.20794
     170 ->187         0.17298

 Excited State   5:      Singlet-A      3.0029 eV  412.88 nm  f=0.9957  <S**2>=0.000
     171 ->177         0.14495
     175 ->177         0.34926
     176 ->178         0.53150
     176 ->179         0.11206

 The electronic state is 1-A.
 Alpha  occ. eigenvalues --   -1.89721  -1.80723  -1.79321  -1.76098  -1.71761
 Alpha  occ. eigenvalues --   -1.70855  -1.67227  -1.62395  -1.58731  -1.58333
 Alpha  occ. eigenvalues --   -1.57006  -1.51613  -1.49735  -1.48960  -1.46069
 Alpha  occ. eigenvalues --   -1.44941  -1.43692  -1.39580  -1.39514  -1.38498
 Alpha  occ. eigenvalues --   -1.36429  -1.35011  -1.33041  -1.32015  -1.28786
 Alpha  occ. eigenvalues --   -1.28061  -1.24997  -1.21443  -1.20564  -1.19243
 Alpha  occ. eigenvalues --   -1.18408  -1.16370  -1.15424  -1.14568  -1.13990
 Alpha  occ. eigenvalues --   -1.13142  -1.10832  -1.10620  -1.05221  -1.04148
 Alpha  occ. eigenvalues --   -1.02925  -1.01373  -0.99164  -0.98398  -0.96423
 Alpha  occ. eigenvalues --   -0.95578  -0.95003  -0.93930  -0.93066  -0.92051
 Alpha  occ. eigenvalues --   -0.90863  -0.90569  -0.89570  -0.88346  -0.85690
 Alpha  occ. eigenvalues --   -0.85180  -0.83998  -0.83615  -0.82437  -0.80768
 Alpha  occ. eigenvalues --   -0.79913  -0.79618  -0.78843  -0.77056  -0.75769
 Alpha  occ. eigenvalues --   -0.75086  -0.74999  -0.74769  -0.73811  -0.73261
 Alpha  occ. eigenvalues --   -0.72565  -0.72240  -0.71509  -0.70852  -0.70479
 Alpha  occ. eigenvalues --   -0.69986  -0.69900  -0.69254  -0.69092  -0.68374
 Alpha  occ. eigenvalues --   -0.67943  -0.67581  -0.66745  -0.65796  -0.65613
 Alpha  occ. eigenvalues --   -0.65019  -0.64956  -0.64571  -0.64210  -0.64101
 Alpha  occ. eigenvalues --   -0.63627  -0.62664  -0.62483  -0.62130  -0.61605
 Alpha  occ. eigenvalues --   -0.60991  -0.60898  -0.60463  -0.59904  -0.59477
 Alpha  occ. eigenvalues --   -0.59437  -0.59123  -0.58923  -0.58796  -0.58563
 Alpha  occ. eigenvalues --   -0.58032  -0.57790  -0.57214  -0.57000  -0.56646
 Alpha  occ. eigenvalues --   -0.56439  -0.55422  -0.55084  -0.54994  -0.54670
 Alpha  occ. eigenvalues --   -0.54397  -0.53559  -0.53486  -0.53164  -0.52918
 Alpha  occ. eigenvalues --   -0.52311  -0.51832  -0.51660  -0.51414  -0.51211
 Alpha  occ. eigenvalues --   -0.50890  -0.50738  -0.50460  -0.50379  -0.50203
 Alpha  occ. eigenvalues --   -0.50118  -0.49811  -0.49658  -0.49372  -0.48749
 Alpha  occ. eigenvalues --   -0.48583  -0.48169  -0.48057  -0.47873  -0.47795
 Alpha  occ. eigenvalues --   -0.47428  -0.47404  -0.47186  -0.46858  -0.46520
 Alpha  occ. eigenvalues --   -0.46015  -0.45903  -0.45648  -0.45232  -0.45202
 Alpha  occ. eigenvalues --   -0.45119  -0.44851  -0.44709  -0.44288  -0.43962
 Alpha  occ. eigenvalues --   -0.43590  -0.43370  -0.43279  -0.42115  -0.41907
 Alpha  occ. eigenvalues --   -0.41448  -0.41413  -0.40030  -0.39226  -0.39129
 Alpha  occ. eigenvalues --   -0.38501  -0.36939  -0.35170  -0.35030  -0.34182
 Alpha  occ. eigenvalues --   -0.33481  -0.32464  -0.32237  -0.32004  -0.26496
 Alpha  occ. eigenvalues --   -0.22047
 Alpha virt. eigenvalues --   -0.08538  -0.02105  -0.00692   0.01203   0.01620
 Alpha virt. eigenvalues --    0.02045   0.02268   0.03030   0.04857   0.04992
 Alpha virt. eigenvalues --    0.06396   0.07076   0.07836   0.08185   0.08279

 Mulliken charges:
               1
     1  Mg   0.423887
     2  C   -0.073861
     3  C   -0.056426
     4  C   -0.042912
     5  C   -0.073456
     6  N   -0.282313
     7  C    0.170341
     8  C    0.007105
     9  C   -0.010137
    10  C    0.097340
    11  C   -0.064217
    12  C   -0.014355
    13  C    0.003109
    14  C    0.470620
    15  O   -0.507275
    16  O   -0.278911
    17  N   -0.319988
    18  C    0.088477
    19  C   -0.008178
    20  C   -0.049430
    21  C    0.110849
    22  C   -0.044334
    23  C    0.330123
    24  O   -0.538662
    25  C   -0.033301
    26  N   -0.261370
    27  C    0.104079
    28  C   -0.000255
    29  C   -0.013404
    30  C    0.139014
    31  C   -0.057378
    32  C   -0.030003
    33  C   -0.055975
    34  N   -0.327107
    35  C    0.117807
    36  C    0.056304
    37  C   -0.048372
    38  C    0.155524
    39  C   -0.046043
    40  C    0.330863
    41  O   -0.527743
    42  C    0.058432
    43  C    0.495588
    44  O   -0.534274
    45  O   -0.262329
    46  C    0.071709
    47  C    0.113238
    48  C   -0.099329
    49  C   -0.003474
    50  C   -0.041371
    51  C   -0.014411
    52  C   -0.018472
    53  C   -0.032946
    54  C   -0.003929
    55  C   -0.060492
    56  C   -0.039099
    57  C   -0.036454
    58  C   -0.039085
    59  C   -0.026599
    60  C   -0.054637
    61  C   -0.038334
    62  C   -0.035841
    63  C   -0.035311
    64  C   -0.020353
    65  C   -0.073013
    66  C   -0.054117
    67  H    0.018351
    68  H    0.049876
    69  H    0.031744
    70  H    0.052527
    71  H    0.035145
    72  H    0.025464
    73  H    0.030773
    74  H    0.022486
    75  H    0.029650
    76  H    0.026417
    77  H    0.030894
    78  H    0.031001
    79  H    0.033500
    80  H    0.015356
    81  H    0.025980
    82  H    0.029478
    83  H    0.034241
    84  H    0.038332
    85  H    0.033076
    86  H    0.038122
    87  H    0.026813
    88  H    0.015858
    89  H    0.032825
    90  H    0.024567
    91  H    0.020808
    92  H    0.023039
    93  H    0.016818
    94  H    0.023548
    95  H    0.032541
    96  H    0.046987
    97  H    0.044484
    98  H    0.053301
    99  H    0.038612
   100  H    0.052258
   101  H    0.033510
   102  H    0.047056
   103  H    0.057956
   104  H    0.026601
   105  H    0.025941
   106  H    0.021658
   107  H    0.024935
   108  H    0.007275
   109  H    0.022467
   110  H    0.016584
   111  H    0.024993
   112  H    0.018854
   113  H    0.014534
   114  H    0.017123
   115  H    0.015159
   116  H    0.007500
   117  H    0.022409
   118  H    0.023190
   119  H    0.006629
   120  H    0.025459
   121  H    0.024147
   122  H    0.021267
   123  H    0.020069
   124  H    0.017256
   125  H    0.032094
   126  H    0.020698
   127  H    0.019370
   128  H    0.013701
   129  H    0.016452
   130  H    0.013484
   131  H    0.019661
   132  H    0.018699
   133  H    0.025432
   134  H    0.024343
   135  H    0.024946
   136  H    0.016876
   137  H    0.015262
   138  H    0.015470
   139  H    0.032608
   140  H    0.008326
 Sum of Mulliken charges =  -0.00000

 Dipole moment (field-independent basis, Debye):
    X=             -4.0709    Y=              1.0940    Z=              3.6254  Tot=              5.5599
 N-N= 4.293656182498D+03 E-N= 0.000000000000D+00  KE=-9.261914714390D+03
 Leave Link  601 at Wed Apr 27 21:26:00 2022, MaxMem=  6710886400 cpu:               0.7 elap:               0.0
 (Enter /sw/apps/gaussian-16.0/g16/l9999.exe)
 1\1\GINC-BP1-COMPUTE175\SP\RZINDO CIS\STO-3G\C55H74Mg1N4O6\OF15641\27-
 Apr-2022\0\\#p ZINDO=(nstates=5)\\step_1301_chromophore_21 ZINDO\\0,1\
 Mg,0,15.957,53.276,24.993\C,0,17.459,51.96,27.799\C,0,13.345,54.344,26
 .895\C,0,14.426,54.213,22.143\C,0,18.345,51.45,23.111\N,0,15.433,53.01
 4,27.065\C,0,16.249,52.701,28.083\C,0,15.707,53.119,29.425\C,0,14.214,
 53.582,29.092\C,0,14.254,53.575,27.548\C,0,13.124,52.497,29.606\C,0,16
 .649,54.212,30.06\C,0,16.988,53.998,31.532\C,0,16.035,53.22,32.46\O,0,

 Normal termination of Gaussian 16 at Wed Apr 27 21:26:00 2022.
