 Gaussian 16, Revision A.03,
 Gaussian 16:  ES64L-G16RevA.03 25-Dec-2016

 ------------------------------
 #p blyp/Def2SVP td=(nstates=5)
 ------------------------------

 ---------------------------------------------------
 step_1101_chromophore_17 TDDFT with blyp functional
 ---------------------------------------------------
 Symbolic Z-matrix:
 Charge =  0 Multiplicity = 1

                         Standard orientation:
 ---------------------------------------------------------------------
 Center     Atomic      Atomic             Coordinates (Angstroms)
 Number     Number       Type             X           Y           Z
 ---------------------------------------------------------------------
      1         12           0        4.703390    1.424367   -0.558557
      2          6           0        4.848361   -2.080535   -0.347061
      3          6           0        2.002109    1.182754   -2.619269
      4          6           0        4.128006    4.715550   -0.003795
      5          6           0        7.124130    1.473204    2.128078
      6          7           0        3.543021   -0.224419   -1.328650
      7          6           0        3.817087   -1.550761   -1.236888
      8          6           0        2.701648   -2.398629   -1.786465
      9          6           0        2.054931   -1.431257   -2.792128
     10          6           0        2.498437   -0.081245   -2.256264
     11          6           0        2.492065   -1.625022   -4.302737
     12          6           0        1.804489   -2.973359   -0.805423
     13          6           0        0.946435   -4.108532   -1.430706
     14          6           0        0.373950   -4.953722   -0.360332
     15          8           0        1.042154   -5.671490    0.391799
     16          8           0       -1.032428   -4.815383   -0.391444
     17          7           0        3.258179    2.796597   -1.232960
     18          6           0        2.280764    2.506474   -2.092437
     19          6           0        1.585333    3.716245   -2.418101
     20          6           0        2.238263    4.767853   -1.790363
     21          6           0        3.203498    4.126863   -0.933462
     22          6           0        0.408865    3.846609   -3.386105
     23          6           0        1.920422    6.195158   -2.025112
     24          8           0        1.122895    6.510601   -2.903893
     25          6           0        2.489249    7.386344   -1.262321
     26          7           0        5.434469    2.773779    0.846802
     27          6           0        5.080528    4.124835    0.753890
     28          6           0        5.788273    4.957829    1.812056
     29          6           0        6.662175    3.971194    2.565223
     30          6           0        6.388471    2.670196    1.883652
     31          6           0        6.586078    6.275402    1.383186
     32          6           0        6.627682    3.878181    4.159181
     33          6           0        7.948364    3.699682    4.827411
     34          7           0        5.937369    0.015961    0.569830
     35          6           0        6.773288    0.186050    1.588719
     36          6           0        7.257342   -1.101289    2.090589
     37          6           0        6.513366   -2.033395    1.335537
     38          6           0        5.756667   -1.296938    0.446237
     39          6           0        8.321995   -1.283569    3.089903
     40          6           0        6.338647   -3.436075    1.089516
     41          8           0        6.813088   -4.421821    1.599588
     42          6           0        5.242012   -3.541015   -0.080358
     43          6           0        5.935645   -4.177363   -1.220127
     44          8           0        7.126269   -3.939679   -1.566239
     45          8           0        5.160865   -5.054867   -1.869161
     46          6           0        5.609387   -5.266385   -3.289586
     47          6           0       -1.760209   -5.367259    0.704274
     48          6           0       -3.244973   -4.915486    0.651718
     49          6           0       -4.252759   -4.962578    1.556626
     50          6           0       -4.174188   -5.847536    2.844977
     51          6           0       -5.690170   -4.541679    1.137504
     52          6           0       -5.902212   -3.384233    0.109415
     53          6           0       -5.830282   -1.941205    0.758488
     54          6           0       -7.251453   -1.190846    1.029477
     55          6           0       -7.482276   -0.849724    2.549597
     56          6           0       -7.460760   -0.006520    0.048281
     57          6           0       -8.565554    0.980176    0.404938
     58          6           0       -8.996483    1.852754   -0.780514
     59          6           0      -10.476253    1.822041   -1.093355
     60          6           0      -10.834192    2.698940   -2.281596
     61          6           0      -11.405372    2.185600    0.101610
     62          6           0      -12.289122    0.950872    0.600365
     63          6           0      -13.791178    1.149053    0.201338
     64          6           0      -14.809218    1.451420    1.377344
     65          6           0      -16.089242    0.666091    1.178966
     66          6           0      -14.975181    3.012643    1.485926
     67          1           0        1.191889    1.168609   -3.351679
     68          1           0        4.122406    5.797674    0.138256
     69          1           0        7.781162    1.554416    2.997354
     70          1           0        3.267127   -3.229202   -2.209418
     71          1           0        0.978386   -1.384197   -2.622366
     72          1           0        2.822509   -2.660669   -4.387329
     73          1           0        3.082117   -0.752255   -4.581091
     74          1           0        1.545617   -1.528087   -4.834742
     75          1           0        1.157433   -2.169414   -0.453976
     76          1           0        2.230460   -3.341351    0.128216
     77          1           0        1.442658   -4.593966   -2.269809
     78          1           0        0.255830   -3.477491   -1.989838
     79          1           0        0.906957    4.195611   -4.290215
     80          1           0       -0.390950    4.481719   -3.002588
     81          1           0       -0.082224    2.875409   -3.446364
     82          1           0        2.563329    7.152872   -0.200341
     83          1           0        1.836514    8.259227   -1.271531
     84          1           0        3.486123    7.568383   -1.663781
     85          1           0        5.042946    5.316304    2.521755
     86          1           0        7.641273    4.250774    2.176360
     87          1           0        6.106100    6.808111    0.561421
     88          1           0        7.647526    6.083455    1.231695
     89          1           0        6.499067    6.990865    2.200986
     90          1           0        5.929613    3.096373    4.454731
     91          1           0        6.308626    4.880163    4.447719
     92          1           0        7.865867    3.261130    5.821632
     93          1           0        8.349235    4.706233    4.943167
     94          1           0        8.687802    3.146170    4.248340
     95          1           0        7.855051   -1.418189    4.065735
     96          1           0        8.946463   -0.390327    3.104756
     97          1           0        8.895584   -2.203237    2.968177
     98          1           0        4.383118   -4.112544    0.269753
     99          1           0        6.562245   -5.789146   -3.206438
    100          1           0        5.634066   -4.345956   -3.873700
    101          1           0        4.890279   -5.926078   -3.774779
    102          1           0       -1.276759   -5.128205    1.651533
    103          1           0       -1.603298   -6.445596    0.725602
    104          1           0       -3.463707   -4.508165   -0.334909
    105          1           0       -3.292183   -6.478873    2.736675
    106          1           0       -5.039212   -6.487853    3.015506
    107          1           0       -3.923425   -5.115052    3.611723
    108          1           0       -5.977569   -4.172687    2.121465
    109          1           0       -6.245239   -5.411643    0.785196
    110          1           0       -6.852887   -3.610636   -0.371651
    111          1           0       -5.229232   -3.358501   -0.748097
    112          1           0       -5.193606   -1.288564    0.159758
    113          1           0       -5.406927   -1.983086    1.762230
    114          1           0       -7.918984   -2.013258    0.772882
    115          1           0       -8.510540   -1.038410    2.859648
    116          1           0       -7.334734    0.224600    2.652601
    117          1           0       -6.733107   -1.333942    3.177296
    118          1           0       -7.558697   -0.358197   -0.978986
    119          1           0       -6.524356    0.521336    0.228497
    120          1           0       -8.068834    1.606824    1.146228
    121          1           0       -9.413352    0.510454    0.902770
    122          1           0       -8.370653    1.650958   -1.649440
    123          1           0       -8.865427    2.900554   -0.509300
    124          1           0      -10.714171    0.842196   -1.508094
    125          1           0      -11.659095    2.156809   -2.742706
    126          1           0      -10.034796    2.651213   -3.021589
    127          1           0      -11.007834    3.769866   -2.180009
    128          1           0      -12.090968    2.985872   -0.177069
    129          1           0      -10.840046    2.637275    0.915822
    130          1           0      -12.151795    0.805906    1.672369
    131          1           0      -12.064524    0.062608    0.008409
    132          1           0      -14.061639    0.180323   -0.218537
    133          1           0      -13.727604    1.853096   -0.628544
    134          1           0      -14.312914    1.115916    2.287662
    135          1           0      -16.625478    0.949123    0.272798
    136          1           0      -16.735200    1.025596    1.979543
    137          1           0      -15.931100   -0.411589    1.153209
    138          1           0      -14.720986    3.351458    2.489788
    139          1           0      -15.945051    3.334461    1.107552
    140          1           0      -14.332254    3.628587    0.857327
 ---------------------------------------------------------------------

 SCF Done:  E(RB-LYP) =  -3007.36117242     A.U. after   21 cycles

 Excitation energies and oscillator strengths:

 Excited State   1:      Singlet-A      1.6440 eV  754.15 nm  f=0.0003  <S**2>=0.000
     244 -> 247        0.70277
 This state for optimization and/or second-order correction.
 Total Energy, E(TD-HF/TD-DFT) =  -3007.30075559
 Copying the excited state density for this state as the 1-particle RhoCI density.

 Excited State   2:      Singlet-A      1.7673 eV  701.54 nm  f=0.3010  <S**2>=0.000
     245 -> 248        0.17980
     246 -> 247        0.69648
     246 <- 247       -0.16202

 Excited State   3:      Singlet-A      1.8568 eV  667.73 nm  f=0.0101  <S**2>=0.000
     243 -> 247        0.66230
     245 -> 247       -0.23334

 Excited State   4:      Singlet-A      2.0429 eV  606.91 nm  f=0.0877  <S**2>=0.000
     243 -> 247        0.23556
     245 -> 247        0.60383
     246 -> 248       -0.25410

 Excited State   5:      Singlet-A      2.2739 eV  545.26 nm  f=0.0000  <S**2>=0.000
     242 -> 247        0.70710

 The electronic state is 1-A.
 Alpha  occ. eigenvalues --  -46.27720 -18.82654 -18.82576 -18.78236 -18.75739
 Alpha  occ. eigenvalues --  -18.75517 -18.74570 -14.03964 -14.03225 -14.01050
 Alpha  occ. eigenvalues --  -14.00776 -10.05101 -10.03673  -9.99245  -9.99181
 Alpha  occ. eigenvalues --   -9.98367  -9.98043  -9.97115  -9.96880  -9.96865
 Alpha  occ. eigenvalues --   -9.96005  -9.95765  -9.95644  -9.95297  -9.94787
 Alpha  occ. eigenvalues --   -9.94526  -9.94434  -9.93974  -9.93700  -9.93691
 Alpha  occ. eigenvalues --   -9.93674  -9.93639  -9.93566  -9.93531  -9.93528
 Alpha  occ. eigenvalues --   -9.93463  -9.93328  -9.93310  -9.93229  -9.92932
 Alpha  occ. eigenvalues --   -9.92728  -9.92665  -9.92633  -9.92339  -9.92305
 Alpha  occ. eigenvalues --   -9.92288  -9.92274  -9.92103  -9.92051  -9.91962
 Alpha  occ. eigenvalues --   -9.91808  -9.91639  -9.91466  -9.91392  -9.91381
 Alpha  occ. eigenvalues --   -9.91122  -9.91090  -9.91009  -9.90992  -9.90921
 Alpha  occ. eigenvalues --   -9.90912  -9.90650  -9.90629  -9.90561  -9.90555
 Alpha  occ. eigenvalues --   -9.90291  -2.92303  -1.72719  -1.72159  -1.72041
 Alpha  occ. eigenvalues --   -0.97921  -0.97491  -0.91761  -0.90893  -0.90778
 Alpha  occ. eigenvalues --   -0.87696  -0.87519  -0.86751  -0.86103  -0.84509
 Alpha  occ. eigenvalues --   -0.75240  -0.74761  -0.73093  -0.72825  -0.72421
 Alpha  occ. eigenvalues --   -0.71752  -0.71265  -0.71035  -0.70444  -0.70219
 Alpha  occ. eigenvalues --   -0.69712  -0.69576  -0.68208  -0.67759  -0.67323
 Alpha  occ. eigenvalues --   -0.66482  -0.65834  -0.65274  -0.64946  -0.64476
 Alpha  occ. eigenvalues --   -0.64048  -0.62900  -0.62416  -0.61955  -0.60860
 Alpha  occ. eigenvalues --   -0.60312  -0.60014  -0.59923  -0.59446  -0.58624
 Alpha  occ. eigenvalues --   -0.58381  -0.57773  -0.56860  -0.55921  -0.54854
 Alpha  occ. eigenvalues --   -0.54433  -0.54142  -0.53285  -0.52129  -0.51842
 Alpha  occ. eigenvalues --   -0.51547  -0.51345  -0.51182  -0.50589  -0.50452
 Alpha  occ. eigenvalues --   -0.49198  -0.48801  -0.48550  -0.48155  -0.47801
 Alpha  occ. eigenvalues --   -0.46099  -0.45946  -0.45237  -0.45211  -0.44515
 Alpha  occ. eigenvalues --   -0.44319  -0.43778  -0.43254  -0.42743  -0.42325
 Alpha  occ. eigenvalues --   -0.42222  -0.42121  -0.42082  -0.41491  -0.41019
 Alpha  occ. eigenvalues --   -0.40700  -0.40644  -0.40411  -0.40330  -0.39966
 Alpha  occ. eigenvalues --   -0.39798  -0.39701  -0.39535  -0.39497  -0.39382
 Alpha  occ. eigenvalues --   -0.39329  -0.38812  -0.38745  -0.38436  -0.38270
 Alpha  occ. eigenvalues --   -0.38054  -0.37875  -0.37744  -0.37550  -0.37411
 Alpha  occ. eigenvalues --   -0.37191  -0.37009  -0.36937  -0.36684  -0.36437
 Alpha  occ. eigenvalues --   -0.36300  -0.36086  -0.36028  -0.35729  -0.35649
 Alpha  occ. eigenvalues --   -0.35432  -0.35171  -0.34890  -0.34698  -0.34676
 Alpha  occ. eigenvalues --   -0.34620  -0.34431  -0.34190  -0.34042  -0.33703
 Alpha  occ. eigenvalues --   -0.33689  -0.33553  -0.33514  -0.33284  -0.33216
 Alpha  occ. eigenvalues --   -0.33194  -0.32660  -0.32475  -0.32239  -0.32164
 Alpha  occ. eigenvalues --   -0.32073  -0.32005  -0.31776  -0.31674  -0.31527
 Alpha  occ. eigenvalues --   -0.31351  -0.31268  -0.31172  -0.30688  -0.30594
 Alpha  occ. eigenvalues --   -0.30542  -0.30333  -0.30180  -0.30101  -0.29902
 Alpha  occ. eigenvalues --   -0.29837  -0.29762  -0.29587  -0.29415  -0.29331
 Alpha  occ. eigenvalues --   -0.29119  -0.28873  -0.28467  -0.28220  -0.28066
 Alpha  occ. eigenvalues --   -0.27569  -0.27363  -0.26870  -0.26665  -0.26582
 Alpha  occ. eigenvalues --   -0.26323  -0.26054  -0.25719  -0.25447  -0.25256
 Alpha  occ. eigenvalues --   -0.24812  -0.24512  -0.24377  -0.23972  -0.23635
 Alpha  occ. eigenvalues --   -0.23583  -0.23094  -0.22078  -0.20975  -0.20652
 Alpha  occ. eigenvalues --   -0.20438  -0.20134  -0.18540  -0.17774  -0.17359
 Alpha  occ. eigenvalues --   -0.15821
 Alpha virt. eigenvalues --   -0.11778  -0.06701  -0.05900  -0.04686  -0.04424
 Alpha virt. eigenvalues --   -0.03461  -0.03058  -0.02118  -0.01906  -0.00023
 Alpha virt. eigenvalues --    0.00896   0.01616   0.01854   0.02262   0.02908

 Mulliken charges:
               1
     1  Mg   0.713658
     2  C   -0.049990
     3  C   -0.065193
     4  C   -0.075018
     5  C   -0.071052
     6  N   -0.245179
     7  C   -0.044615
     8  C    0.031277
     9  C    0.008879
    10  C    0.000545
    11  C    0.167410
    12  C    0.084874
    13  C    0.158667
    14  C    0.130439
    15  O   -0.189522
    16  O   -0.275997
    17  N   -0.246986
    18  C    0.103289
    19  C   -0.183771
    20  C    0.096890
    21  C    0.107083
    22  C    0.219723
    23  C   -0.122091
    24  O   -0.184228
    25  C    0.143350
    26  N   -0.276722
    27  C    0.070690
    28  C   -0.020549
    29  C    0.073013
    30  C   -0.029054
    31  C    0.108149
    32  C    0.132127
    33  C    0.062641
    34  N   -0.162753
    35  C    0.076171
    36  C   -0.175168
    37  C    0.095006
    38  C    0.062668
    39  C    0.181040
    40  C   -0.063607
    41  O   -0.103822
    42  C    0.069400
    43  C    0.122485
    44  O   -0.226541
    45  O   -0.251329
    46  C    0.215437
    47  C    0.292379
    48  C   -0.081199
    49  C   -0.160471
    50  C    0.119011
    51  C    0.116702
    52  C    0.079792
    53  C    0.087589
    54  C   -0.104410
    55  C    0.115916
    56  C    0.082019
    57  C    0.095725
    58  C    0.128986
    59  C   -0.066425
    60  C    0.100188
    61  C    0.101016
    62  C    0.050369
    63  C    0.072640
    64  C   -0.051780
    65  C    0.116683
    66  C    0.092097
    67  H   -0.069282
    68  H   -0.086784
    69  H   -0.064563
    70  H   -0.043691
    71  H   -0.018621
    72  H    0.003052
    73  H    0.010794
    74  H   -0.009777
    75  H   -0.027638
    76  H   -0.002787
    77  H   -0.004328
    78  H   -0.035286
    79  H    0.016699
    80  H    0.001940
    81  H   -0.031083
    82  H   -0.002702
    83  H   -0.004351
    84  H    0.011597
    85  H   -0.024628
    86  H   -0.030432
    87  H   -0.004351
    88  H   -0.002126
    89  H   -0.016052
    90  H   -0.005986
    91  H   -0.025061
    92  H   -0.004001
    93  H   -0.017309
    94  H    0.003012
    95  H   -0.001075
    96  H   -0.000260
    97  H    0.009334
    98  H   -0.002739
    99  H    0.035868
   100  H    0.024071
   101  H    0.008134
   102  H   -0.014807
   103  H   -0.009000
   104  H   -0.026889
   105  H   -0.014216
   106  H    0.013346
   107  H    0.007745
   108  H   -0.018902
   109  H   -0.000692
   110  H   -0.032582
   111  H   -0.026054
   112  H   -0.035805
   113  H   -0.040419
   114  H   -0.045540
   115  H   -0.004890
   116  H   -0.027304
   117  H   -0.013232
   118  H   -0.023788
   119  H   -0.034250
   120  H   -0.038965
   121  H   -0.022662
   122  H   -0.036333
   123  H   -0.045167
   124  H   -0.046554
   125  H   -0.022409
   126  H   -0.041652
   127  H   -0.010419
   128  H   -0.029446
   129  H   -0.039486
   130  H   -0.024558
   131  H   -0.021217
   132  H   -0.055332
   133  H   -0.028965
   134  H   -0.037018
   135  H   -0.018982
   136  H   -0.020499
   137  H   -0.003948
   138  H   -0.011364
   139  H   -0.021857
   140  H   -0.024024
 Sum of Mulliken charges =  -0.00000

 Dipole moment (field-independent basis, Debye):
    X=             -2.1315    Y=              2.5580    Z=              0.4395  Tot=              3.3586
 Quadrupole moment (field-independent basis, Debye-Ang):
   XX=           -409.6726   YY=           -425.2784   ZZ=           -388.9442
   XY=             58.4636   XZ=             -1.1876   YZ=             38.4159

 Normal termination of Gaussian 16 at Wed Apr 27 06:49:26 2022.
