 Gaussian 16, Revision A.03,
 Gaussian 16:  ES64L-G16RevA.03 25-Dec-2016

 -----------------------------------
 #p cam-b3lyp/Def2SVP td=(nstates=5)
 -----------------------------------

 --------------------------------------------------------
 step_1101_chromophore_17 TDDFT with cam-b3lyp functional
 --------------------------------------------------------
 Symbolic Z-matrix:
 Charge =  0 Multiplicity = 1

                         Standard orientation:
 ---------------------------------------------------------------------
 Center     Atomic      Atomic             Coordinates (Angstroms)
 Number     Number       Type             X           Y           Z
 ---------------------------------------------------------------------
      1         12           0        4.703390    1.424367   -0.558557
      2          6           0        4.848361   -2.080535   -0.347061
      3          6           0        2.002109    1.182754   -2.619269
      4          6           0        4.128006    4.715550   -0.003795
      5          6           0        7.124130    1.473204    2.128078
      6          7           0        3.543021   -0.224419   -1.328650
      7          6           0        3.817087   -1.550761   -1.236888
      8          6           0        2.701648   -2.398629   -1.786465
      9          6           0        2.054931   -1.431257   -2.792128
     10          6           0        2.498437   -0.081245   -2.256264
     11          6           0        2.492065   -1.625022   -4.302737
     12          6           0        1.804489   -2.973359   -0.805423
     13          6           0        0.946435   -4.108532   -1.430706
     14          6           0        0.373950   -4.953722   -0.360332
     15          8           0        1.042154   -5.671490    0.391799
     16          8           0       -1.032428   -4.815383   -0.391444
     17          7           0        3.258179    2.796597   -1.232960
     18          6           0        2.280764    2.506474   -2.092437
     19          6           0        1.585333    3.716245   -2.418101
     20          6           0        2.238263    4.767853   -1.790363
     21          6           0        3.203498    4.126863   -0.933462
     22          6           0        0.408865    3.846609   -3.386105
     23          6           0        1.920422    6.195158   -2.025112
     24          8           0        1.122895    6.510601   -2.903893
     25          6           0        2.489249    7.386344   -1.262321
     26          7           0        5.434469    2.773779    0.846802
     27          6           0        5.080528    4.124835    0.753890
     28          6           0        5.788273    4.957829    1.812056
     29          6           0        6.662175    3.971194    2.565223
     30          6           0        6.388471    2.670196    1.883652
     31          6           0        6.586078    6.275402    1.383186
     32          6           0        6.627682    3.878181    4.159181
     33          6           0        7.948364    3.699682    4.827411
     34          7           0        5.937369    0.015961    0.569830
     35          6           0        6.773288    0.186050    1.588719
     36          6           0        7.257342   -1.101289    2.090589
     37          6           0        6.513366   -2.033395    1.335537
     38          6           0        5.756667   -1.296938    0.446237
     39          6           0        8.321995   -1.283569    3.089903
     40          6           0        6.338647   -3.436075    1.089516
     41          8           0        6.813088   -4.421821    1.599588
     42          6           0        5.242012   -3.541015   -0.080358
     43          6           0        5.935645   -4.177363   -1.220127
     44          8           0        7.126269   -3.939679   -1.566239
     45          8           0        5.160865   -5.054867   -1.869161
     46          6           0        5.609387   -5.266385   -3.289586
     47          6           0       -1.760209   -5.367259    0.704274
     48          6           0       -3.244973   -4.915486    0.651718
     49          6           0       -4.252759   -4.962578    1.556626
     50          6           0       -4.174188   -5.847536    2.844977
     51          6           0       -5.690170   -4.541679    1.137504
     52          6           0       -5.902212   -3.384233    0.109415
     53          6           0       -5.830282   -1.941205    0.758488
     54          6           0       -7.251453   -1.190846    1.029477
     55          6           0       -7.482276   -0.849724    2.549597
     56          6           0       -7.460760   -0.006520    0.048281
     57          6           0       -8.565554    0.980176    0.404938
     58          6           0       -8.996483    1.852754   -0.780514
     59          6           0      -10.476253    1.822041   -1.093355
     60          6           0      -10.834192    2.698940   -2.281596
     61          6           0      -11.405372    2.185600    0.101610
     62          6           0      -12.289122    0.950872    0.600365
     63          6           0      -13.791178    1.149053    0.201338
     64          6           0      -14.809218    1.451420    1.377344
     65          6           0      -16.089242    0.666091    1.178966
     66          6           0      -14.975181    3.012643    1.485926
     67          1           0        1.191889    1.168609   -3.351679
     68          1           0        4.122406    5.797674    0.138256
     69          1           0        7.781162    1.554416    2.997354
     70          1           0        3.267127   -3.229202   -2.209418
     71          1           0        0.978386   -1.384197   -2.622366
     72          1           0        2.822509   -2.660669   -4.387329
     73          1           0        3.082117   -0.752255   -4.581091
     74          1           0        1.545617   -1.528087   -4.834742
     75          1           0        1.157433   -2.169414   -0.453976
     76          1           0        2.230460   -3.341351    0.128216
     77          1           0        1.442658   -4.593966   -2.269809
     78          1           0        0.255830   -3.477491   -1.989838
     79          1           0        0.906957    4.195611   -4.290215
     80          1           0       -0.390950    4.481719   -3.002588
     81          1           0       -0.082224    2.875409   -3.446364
     82          1           0        2.563329    7.152872   -0.200341
     83          1           0        1.836514    8.259227   -1.271531
     84          1           0        3.486123    7.568383   -1.663781
     85          1           0        5.042946    5.316304    2.521755
     86          1           0        7.641273    4.250774    2.176360
     87          1           0        6.106100    6.808111    0.561421
     88          1           0        7.647526    6.083455    1.231695
     89          1           0        6.499067    6.990865    2.200986
     90          1           0        5.929613    3.096373    4.454731
     91          1           0        6.308626    4.880163    4.447719
     92          1           0        7.865867    3.261130    5.821632
     93          1           0        8.349235    4.706233    4.943167
     94          1           0        8.687802    3.146170    4.248340
     95          1           0        7.855051   -1.418189    4.065735
     96          1           0        8.946463   -0.390327    3.104756
     97          1           0        8.895584   -2.203237    2.968177
     98          1           0        4.383118   -4.112544    0.269753
     99          1           0        6.562245   -5.789146   -3.206438
    100          1           0        5.634066   -4.345956   -3.873700
    101          1           0        4.890279   -5.926078   -3.774779
    102          1           0       -1.276759   -5.128205    1.651533
    103          1           0       -1.603298   -6.445596    0.725602
    104          1           0       -3.463707   -4.508165   -0.334909
    105          1           0       -3.292183   -6.478873    2.736675
    106          1           0       -5.039212   -6.487853    3.015506
    107          1           0       -3.923425   -5.115052    3.611723
    108          1           0       -5.977569   -4.172687    2.121465
    109          1           0       -6.245239   -5.411643    0.785196
    110          1           0       -6.852887   -3.610636   -0.371651
    111          1           0       -5.229232   -3.358501   -0.748097
    112          1           0       -5.193606   -1.288564    0.159758
    113          1           0       -5.406927   -1.983086    1.762230
    114          1           0       -7.918984   -2.013258    0.772882
    115          1           0       -8.510540   -1.038410    2.859648
    116          1           0       -7.334734    0.224600    2.652601
    117          1           0       -6.733107   -1.333942    3.177296
    118          1           0       -7.558697   -0.358197   -0.978986
    119          1           0       -6.524356    0.521336    0.228497
    120          1           0       -8.068834    1.606824    1.146228
    121          1           0       -9.413352    0.510454    0.902770
    122          1           0       -8.370653    1.650958   -1.649440
    123          1           0       -8.865427    2.900554   -0.509300
    124          1           0      -10.714171    0.842196   -1.508094
    125          1           0      -11.659095    2.156809   -2.742706
    126          1           0      -10.034796    2.651213   -3.021589
    127          1           0      -11.007834    3.769866   -2.180009
    128          1           0      -12.090968    2.985872   -0.177069
    129          1           0      -10.840046    2.637275    0.915822
    130          1           0      -12.151795    0.805906    1.672369
    131          1           0      -12.064524    0.062608    0.008409
    132          1           0      -14.061639    0.180323   -0.218537
    133          1           0      -13.727604    1.853096   -0.628544
    134          1           0      -14.312914    1.115916    2.287662
    135          1           0      -16.625478    0.949123    0.272798
    136          1           0      -16.735200    1.025596    1.979543
    137          1           0      -15.931100   -0.411589    1.153209
    138          1           0      -14.720986    3.351458    2.489788
    139          1           0      -15.945051    3.334461    1.107552
    140          1           0      -14.332254    3.628587    0.857327
 ---------------------------------------------------------------------

 SCF Done:  E(RCAM-B3LYP) =  -3007.15219564     A.U. after   18 cycles

 Excitation energies and oscillator strengths:

 Excited State   1:      Singlet-A      1.6527 eV  750.21 nm  f=0.3741  <S**2>=0.000
     245 -> 248       -0.16291
     246 -> 247        0.69118
     245 <- 248       -0.10556
 This state for optimization and/or second-order correction.
 Total Energy, E(TD-HF/TD-DFT) =  -3007.09146127
 Copying the excited state density for this state as the 1-particle RhoCI density.

 Excited State   2:      Singlet-A      2.2168 eV  559.30 nm  f=0.1382  <S**2>=0.000
     245 -> 247        0.64756
     246 -> 248        0.27447

 Excited State   3:      Singlet-A      3.3318 eV  372.12 nm  f=0.0010  <S**2>=0.000
     240 -> 247        0.11910
     241 -> 247        0.43550
     242 -> 247       -0.25525
     244 -> 247        0.45106

 Excited State   4:      Singlet-A      3.4103 eV  363.56 nm  f=0.0083  <S**2>=0.000
     239 -> 247        0.14282
     240 -> 247        0.58598
     240 -> 249       -0.23713
     240 -> 250        0.11247
     240 -> 251       -0.12856
     246 -> 248        0.10259

 Excited State   5:      Singlet-A      3.4551 eV  358.85 nm  f=0.0031  <S**2>=0.000
     241 -> 247       -0.44378
     244 -> 247        0.49252
     246 -> 248       -0.13331

 The electronic state is 1-A.
 Alpha  occ. eigenvalues --  -46.89340 -19.25799 -19.25472 -19.21349 -19.18998
 Alpha  occ. eigenvalues --  -19.18914 -19.17505 -14.43121 -14.42005 -14.39377
 Alpha  occ. eigenvalues --  -14.39373 -10.40638 -10.39230 -10.34772 -10.34130
 Alpha  occ. eigenvalues --  -10.32604 -10.32058 -10.31989 -10.31655 -10.31178
 Alpha  occ. eigenvalues --  -10.30356 -10.30263 -10.29888 -10.29189 -10.29113
 Alpha  occ. eigenvalues --  -10.29098 -10.28807 -10.28411 -10.28206 -10.27859
 Alpha  occ. eigenvalues --  -10.27796 -10.27701 -10.27665 -10.27652 -10.27519
 Alpha  occ. eigenvalues --  -10.27427 -10.27331 -10.27287 -10.27074 -10.26967
 Alpha  occ. eigenvalues --  -10.26772 -10.26418 -10.26376 -10.26214 -10.26199
 Alpha  occ. eigenvalues --  -10.26085 -10.25999 -10.25959 -10.25828 -10.25755
 Alpha  occ. eigenvalues --  -10.25709 -10.25483 -10.25222 -10.25124 -10.25041
 Alpha  occ. eigenvalues --  -10.24944 -10.24806 -10.24713 -10.24698 -10.24629
 Alpha  occ. eigenvalues --  -10.24498 -10.24467 -10.24258 -10.24235 -10.24174
 Alpha  occ. eigenvalues --  -10.23864  -3.17819  -1.92713  -1.92256  -1.92135
 Alpha  occ. eigenvalues --   -1.16584  -1.15961  -1.10478  -1.09028  -1.08737
 Alpha  occ. eigenvalues --   -1.05731  -1.05532  -1.04354  -1.03730  -1.02054
 Alpha  occ. eigenvalues --   -0.92609  -0.91804  -0.89911  -0.89521  -0.89212
 Alpha  occ. eigenvalues --   -0.88372  -0.87906  -0.87716  -0.87021  -0.86937
 Alpha  occ. eigenvalues --   -0.86092  -0.85949  -0.84403  -0.84051  -0.83542
 Alpha  occ. eigenvalues --   -0.82552  -0.81875  -0.81183  -0.80838  -0.80405
 Alpha  occ. eigenvalues --   -0.79879  -0.78635  -0.78030  -0.77506  -0.76423
 Alpha  occ. eigenvalues --   -0.75645  -0.75330  -0.75186  -0.74723  -0.73806
 Alpha  occ. eigenvalues --   -0.73512  -0.72826  -0.71835  -0.70757  -0.69510
 Alpha  occ. eigenvalues --   -0.69207  -0.68766  -0.67718  -0.66487  -0.66054
 Alpha  occ. eigenvalues --   -0.65827  -0.65486  -0.65204  -0.64598  -0.64372
 Alpha  occ. eigenvalues --   -0.63134  -0.62705  -0.62485  -0.62011  -0.61594
 Alpha  occ. eigenvalues --   -0.59719  -0.59526  -0.58671  -0.58548  -0.58282
 Alpha  occ. eigenvalues --   -0.57843  -0.57095  -0.56366  -0.55974  -0.55497
 Alpha  occ. eigenvalues --   -0.55480  -0.55159  -0.55064  -0.54529  -0.54191
 Alpha  occ. eigenvalues --   -0.53762  -0.53373  -0.53281  -0.52858  -0.52613
 Alpha  occ. eigenvalues --   -0.52541  -0.52356  -0.52197  -0.52098  -0.51845
 Alpha  occ. eigenvalues --   -0.51726  -0.51626  -0.51249  -0.50942  -0.50612
 Alpha  occ. eigenvalues --   -0.50541  -0.50442  -0.49992  -0.49843  -0.49689
 Alpha  occ. eigenvalues --   -0.49552  -0.49328  -0.49142  -0.49000  -0.48814
 Alpha  occ. eigenvalues --   -0.48741  -0.48468  -0.48190  -0.48004  -0.47646
 Alpha  occ. eigenvalues --   -0.47489  -0.47441  -0.47043  -0.46660  -0.46564
 Alpha  occ. eigenvalues --   -0.46460  -0.46437  -0.46184  -0.45996  -0.45783
 Alpha  occ. eigenvalues --   -0.45605  -0.45462  -0.45225  -0.45211  -0.44994
 Alpha  occ. eigenvalues --   -0.44864  -0.44526  -0.44352  -0.44114  -0.43910
 Alpha  occ. eigenvalues --   -0.43723  -0.43480  -0.43399  -0.43230  -0.43100
 Alpha  occ. eigenvalues --   -0.43017  -0.42713  -0.42635  -0.42117  -0.41885
 Alpha  occ. eigenvalues --   -0.41862  -0.41717  -0.41591  -0.41334  -0.41253
 Alpha  occ. eigenvalues --   -0.41148  -0.41067  -0.40890  -0.40704  -0.40565
 Alpha  occ. eigenvalues --   -0.40436  -0.39820  -0.39425  -0.39292  -0.39112
 Alpha  occ. eigenvalues --   -0.38389  -0.38119  -0.37795  -0.37626  -0.37615
 Alpha  occ. eigenvalues --   -0.37365  -0.36930  -0.36860  -0.36356  -0.36075
 Alpha  occ. eigenvalues --   -0.35881  -0.35473  -0.35065  -0.34957  -0.34718
 Alpha  occ. eigenvalues --   -0.34034  -0.33878  -0.32980  -0.31098  -0.30721
 Alpha  occ. eigenvalues --   -0.30167  -0.29944  -0.29802  -0.29636  -0.24212
 Alpha  occ. eigenvalues --   -0.21208
 Alpha virt. eigenvalues --   -0.09067  -0.01470   0.00599   0.01712   0.02499
 Alpha virt. eigenvalues --    0.03183   0.04467   0.04837   0.05418   0.06758
 Alpha virt. eigenvalues --    0.07680   0.08116   0.08222   0.08818   0.09182

 Mulliken charges:
               1
     1  Mg   0.843544
     2  C   -0.077541
     3  C   -0.069439
     4  C   -0.090490
     5  C   -0.077328
     6  N   -0.309349
     7  C    0.008993
     8  C   -0.026758
     9  C   -0.053402
    10  C    0.012191
    11  C    0.112418
    12  C    0.029925
    13  C    0.088911
    14  C    0.211050
    15  O   -0.229596
    16  O   -0.342273
    17  N   -0.333427
    18  C    0.103417
    19  C   -0.188652
    20  C    0.016893
    21  C    0.134798
    22  C    0.165740
    23  C   -0.047165
    24  O   -0.225378
    25  C    0.067148
    26  N   -0.352742
    27  C    0.090293
    28  C   -0.075793
    29  C    0.006541
    30  C    0.007802
    31  C    0.054789
    32  C    0.070441
    33  C    0.001445
    34  N   -0.252334
    35  C    0.084757
    36  C   -0.165043
    37  C    0.015567
    38  C    0.102673
    39  C    0.125313
    40  C    0.038900
    41  O   -0.140470
    42  C   -0.008967
    43  C    0.214276
    44  O   -0.266392
    45  O   -0.314789
    46  C    0.174611
    47  C    0.262684
    48  C   -0.104365
    49  C   -0.180679
    50  C    0.056540
    51  C    0.065890
    52  C    0.021520
    53  C    0.037426
    54  C   -0.151964
    55  C    0.054845
    56  C    0.033111
    57  C    0.036513
    58  C    0.076081
    59  C   -0.120174
    60  C    0.043012
    61  C    0.040708
    62  C   -0.002014
    63  C    0.021634
    64  C   -0.111670
    65  C    0.055092
    66  C    0.032175
    67  H   -0.032771
    68  H   -0.054221
    69  H   -0.033479
    70  H   -0.009718
    71  H    0.016405
    72  H    0.023626
    73  H    0.037243
    74  H    0.015219
    75  H    0.005171
    76  H    0.028506
    77  H    0.029053
    78  H    0.003151
    79  H    0.042805
    80  H    0.029259
    81  H   -0.007779
    82  H    0.022999
    83  H    0.029529
    84  H    0.037629
    85  H    0.010660
    86  H    0.006001
    87  H    0.018698
    88  H    0.021310
    89  H    0.008287
    90  H    0.023259
    91  H    0.004007
    92  H    0.021809
    93  H    0.007115
    94  H    0.022384
    95  H    0.028026
    96  H    0.024341
    97  H    0.038898
    98  H    0.042179
    99  H    0.062363
   100  H    0.045435
   101  H    0.033063
   102  H    0.012551
   103  H    0.018800
   104  H    0.006177
   105  H    0.009230
   106  H    0.037741
   107  H    0.031468
   108  H    0.006609
   109  H    0.026786
   110  H   -0.003353
   111  H    0.001609
   112  H   -0.006043
   113  H   -0.013384
   114  H   -0.014529
   115  H    0.019057
   116  H   -0.003860
   117  H    0.010685
   118  H    0.002734
   119  H   -0.007033
   120  H   -0.009856
   121  H    0.002732
   122  H   -0.007186
   123  H   -0.016109
   124  H   -0.015331
   125  H    0.002307
   126  H   -0.015025
   127  H    0.013570
   128  H   -0.002660
   129  H   -0.008799
   130  H    0.002438
   131  H    0.006156
   132  H   -0.024461
   133  H   -0.003193
   134  H   -0.005209
   135  H    0.004381
   136  H    0.004668
   137  H    0.019650
   138  H    0.012637
   139  H    0.002901
   140  H   -0.000802
 Sum of Mulliken charges =  -0.00000

 Dipole moment (field-independent basis, Debye):
    X=             -1.8450    Y=              2.3939    Z=              0.5562  Tot=              3.0732
 Quadrupole moment (field-independent basis, Debye-Ang):
   XX=           -408.0898   YY=           -423.6827   ZZ=           -387.3944
   XY=             58.7444   XZ=              0.8487   YZ=             40.8836

 Normal termination of Gaussian 16 at Wed Apr 27 05:54:17 2022.
