 Gaussian 16, Revision A.03,
 Gaussian 16:  ES64L-G16RevA.03 25-Dec-2016

 ---------------------------------
 #p PBE1PBE/Def2SVP td=(nstates=5)
 ---------------------------------

 ------------------------------------------------------
 step_1101_chromophore_17 TDDFT with PBE1PBE functional
 ------------------------------------------------------
 Symbolic Z-matrix:
 Charge =  0 Multiplicity = 1

                         Standard orientation:
 ---------------------------------------------------------------------
 Center     Atomic      Atomic             Coordinates (Angstroms)
 Number     Number       Type             X           Y           Z
 ---------------------------------------------------------------------
      1         12           0        4.703390    1.424367   -0.558557
      2          6           0        4.848361   -2.080535   -0.347061
      3          6           0        2.002109    1.182754   -2.619269
      4          6           0        4.128006    4.715550   -0.003795
      5          6           0        7.124130    1.473204    2.128078
      6          7           0        3.543021   -0.224419   -1.328650
      7          6           0        3.817087   -1.550761   -1.236888
      8          6           0        2.701648   -2.398629   -1.786465
      9          6           0        2.054931   -1.431257   -2.792128
     10          6           0        2.498437   -0.081245   -2.256264
     11          6           0        2.492065   -1.625022   -4.302737
     12          6           0        1.804489   -2.973359   -0.805423
     13          6           0        0.946435   -4.108532   -1.430706
     14          6           0        0.373950   -4.953722   -0.360332
     15          8           0        1.042154   -5.671490    0.391799
     16          8           0       -1.032428   -4.815383   -0.391444
     17          7           0        3.258179    2.796597   -1.232960
     18          6           0        2.280764    2.506474   -2.092437
     19          6           0        1.585333    3.716245   -2.418101
     20          6           0        2.238263    4.767853   -1.790363
     21          6           0        3.203498    4.126863   -0.933462
     22          6           0        0.408865    3.846609   -3.386105
     23          6           0        1.920422    6.195158   -2.025112
     24          8           0        1.122895    6.510601   -2.903893
     25          6           0        2.489249    7.386344   -1.262321
     26          7           0        5.434469    2.773779    0.846802
     27          6           0        5.080528    4.124835    0.753890
     28          6           0        5.788273    4.957829    1.812056
     29          6           0        6.662175    3.971194    2.565223
     30          6           0        6.388471    2.670196    1.883652
     31          6           0        6.586078    6.275402    1.383186
     32          6           0        6.627682    3.878181    4.159181
     33          6           0        7.948364    3.699682    4.827411
     34          7           0        5.937369    0.015961    0.569830
     35          6           0        6.773288    0.186050    1.588719
     36          6           0        7.257342   -1.101289    2.090589
     37          6           0        6.513366   -2.033395    1.335537
     38          6           0        5.756667   -1.296938    0.446237
     39          6           0        8.321995   -1.283569    3.089903
     40          6           0        6.338647   -3.436075    1.089516
     41          8           0        6.813088   -4.421821    1.599588
     42          6           0        5.242012   -3.541015   -0.080358
     43          6           0        5.935645   -4.177363   -1.220127
     44          8           0        7.126269   -3.939679   -1.566239
     45          8           0        5.160865   -5.054867   -1.869161
     46          6           0        5.609387   -5.266385   -3.289586
     47          6           0       -1.760209   -5.367259    0.704274
     48          6           0       -3.244973   -4.915486    0.651718
     49          6           0       -4.252759   -4.962578    1.556626
     50          6           0       -4.174188   -5.847536    2.844977
     51          6           0       -5.690170   -4.541679    1.137504
     52          6           0       -5.902212   -3.384233    0.109415
     53          6           0       -5.830282   -1.941205    0.758488
     54          6           0       -7.251453   -1.190846    1.029477
     55          6           0       -7.482276   -0.849724    2.549597
     56          6           0       -7.460760   -0.006520    0.048281
     57          6           0       -8.565554    0.980176    0.404938
     58          6           0       -8.996483    1.852754   -0.780514
     59          6           0      -10.476253    1.822041   -1.093355
     60          6           0      -10.834192    2.698940   -2.281596
     61          6           0      -11.405372    2.185600    0.101610
     62          6           0      -12.289122    0.950872    0.600365
     63          6           0      -13.791178    1.149053    0.201338
     64          6           0      -14.809218    1.451420    1.377344
     65          6           0      -16.089242    0.666091    1.178966
     66          6           0      -14.975181    3.012643    1.485926
     67          1           0        1.191889    1.168609   -3.351679
     68          1           0        4.122406    5.797674    0.138256
     69          1           0        7.781162    1.554416    2.997354
     70          1           0        3.267127   -3.229202   -2.209418
     71          1           0        0.978386   -1.384197   -2.622366
     72          1           0        2.822509   -2.660669   -4.387329
     73          1           0        3.082117   -0.752255   -4.581091
     74          1           0        1.545617   -1.528087   -4.834742
     75          1           0        1.157433   -2.169414   -0.453976
     76          1           0        2.230460   -3.341351    0.128216
     77          1           0        1.442658   -4.593966   -2.269809
     78          1           0        0.255830   -3.477491   -1.989838
     79          1           0        0.906957    4.195611   -4.290215
     80          1           0       -0.390950    4.481719   -3.002588
     81          1           0       -0.082224    2.875409   -3.446364
     82          1           0        2.563329    7.152872   -0.200341
     83          1           0        1.836514    8.259227   -1.271531
     84          1           0        3.486123    7.568383   -1.663781
     85          1           0        5.042946    5.316304    2.521755
     86          1           0        7.641273    4.250774    2.176360
     87          1           0        6.106100    6.808111    0.561421
     88          1           0        7.647526    6.083455    1.231695
     89          1           0        6.499067    6.990865    2.200986
     90          1           0        5.929613    3.096373    4.454731
     91          1           0        6.308626    4.880163    4.447719
     92          1           0        7.865867    3.261130    5.821632
     93          1           0        8.349235    4.706233    4.943167
     94          1           0        8.687802    3.146170    4.248340
     95          1           0        7.855051   -1.418189    4.065735
     96          1           0        8.946463   -0.390327    3.104756
     97          1           0        8.895584   -2.203237    2.968177
     98          1           0        4.383118   -4.112544    0.269753
     99          1           0        6.562245   -5.789146   -3.206438
    100          1           0        5.634066   -4.345956   -3.873700
    101          1           0        4.890279   -5.926078   -3.774779
    102          1           0       -1.276759   -5.128205    1.651533
    103          1           0       -1.603298   -6.445596    0.725602
    104          1           0       -3.463707   -4.508165   -0.334909
    105          1           0       -3.292183   -6.478873    2.736675
    106          1           0       -5.039212   -6.487853    3.015506
    107          1           0       -3.923425   -5.115052    3.611723
    108          1           0       -5.977569   -4.172687    2.121465
    109          1           0       -6.245239   -5.411643    0.785196
    110          1           0       -6.852887   -3.610636   -0.371651
    111          1           0       -5.229232   -3.358501   -0.748097
    112          1           0       -5.193606   -1.288564    0.159758
    113          1           0       -5.406927   -1.983086    1.762230
    114          1           0       -7.918984   -2.013258    0.772882
    115          1           0       -8.510540   -1.038410    2.859648
    116          1           0       -7.334734    0.224600    2.652601
    117          1           0       -6.733107   -1.333942    3.177296
    118          1           0       -7.558697   -0.358197   -0.978986
    119          1           0       -6.524356    0.521336    0.228497
    120          1           0       -8.068834    1.606824    1.146228
    121          1           0       -9.413352    0.510454    0.902770
    122          1           0       -8.370653    1.650958   -1.649440
    123          1           0       -8.865427    2.900554   -0.509300
    124          1           0      -10.714171    0.842196   -1.508094
    125          1           0      -11.659095    2.156809   -2.742706
    126          1           0      -10.034796    2.651213   -3.021589
    127          1           0      -11.007834    3.769866   -2.180009
    128          1           0      -12.090968    2.985872   -0.177069
    129          1           0      -10.840046    2.637275    0.915822
    130          1           0      -12.151795    0.805906    1.672369
    131          1           0      -12.064524    0.062608    0.008409
    132          1           0      -14.061639    0.180323   -0.218537
    133          1           0      -13.727604    1.853096   -0.628544
    134          1           0      -14.312914    1.115916    2.287662
    135          1           0      -16.625478    0.949123    0.272798
    136          1           0      -16.735200    1.025596    1.979543
    137          1           0      -15.931100   -0.411589    1.153209
    138          1           0      -14.720986    3.351458    2.489788
    139          1           0      -15.945051    3.334461    1.107552
    140          1           0      -14.332254    3.628587    0.857327
 ---------------------------------------------------------------------

 SCF Done:  E(RPBE1PBE) =  -3005.34145298     A.U. after   16 cycles

 Excitation energies and oscillator strengths:

 Excited State   1:      Singlet-A      1.8011 eV  688.38 nm  f=0.3615  <S**2>=0.000
     245 -> 248       -0.15923
     246 -> 247        0.69892
     246 <- 247       -0.11936
 This state for optimization and/or second-order correction.
 Total Energy, E(TD-HF/TD-DFT) =  -3005.27526375
 Copying the excited state density for this state as the 1-particle RhoCI density.

 Excited State   2:      Singlet-A      2.2348 eV  554.79 nm  f=0.1291  <S**2>=0.000
     245 -> 247        0.65439
     246 -> 248        0.26133

 Excited State   3:      Singlet-A      2.8795 eV  430.58 nm  f=0.0004  <S**2>=0.000
     244 -> 247        0.68114
     244 -> 249        0.13365

 Excited State   4:      Singlet-A      2.8967 eV  428.02 nm  f=0.0004  <S**2>=0.000
     240 -> 247        0.15639
     241 -> 247        0.50851
     241 -> 249       -0.10325
     242 -> 247        0.43060

 Excited State   5:      Singlet-A      3.0207 eV  410.45 nm  f=0.0015  <S**2>=0.000
     241 -> 247       -0.43433
     242 -> 247        0.54023

 The electronic state is 1-A.
 Alpha  occ. eigenvalues --  -46.92739 -19.26314 -19.26165 -19.21594 -19.19083
 Alpha  occ. eigenvalues --  -19.19037 -19.17928 -14.42528 -14.41658 -14.39117
 Alpha  occ. eigenvalues --  -14.38860 -10.37639 -10.36152 -10.31756 -10.31456
 Alpha  occ. eigenvalues --  -10.29746 -10.29556 -10.29434 -10.29251 -10.29079
 Alpha  occ. eigenvalues --  -10.28102 -10.27784 -10.27779 -10.27109 -10.26890
 Alpha  occ. eigenvalues --  -10.26644 -10.26531 -10.25830 -10.25729 -10.25686
 Alpha  occ. eigenvalues --  -10.25512 -10.25465 -10.25337 -10.25200 -10.25136
 Alpha  occ. eigenvalues --  -10.24937 -10.24926 -10.24832 -10.24737 -10.24715
 Alpha  occ. eigenvalues --  -10.24538 -10.23996 -10.23943 -10.23803 -10.23666
 Alpha  occ. eigenvalues --  -10.23642 -10.23479 -10.23470 -10.23441 -10.23423
 Alpha  occ. eigenvalues --  -10.23363 -10.23125 -10.22836 -10.22728 -10.22570
 Alpha  occ. eigenvalues --  -10.22561 -10.22382 -10.22299 -10.22172 -10.22123
 Alpha  occ. eigenvalues --  -10.21891 -10.21837 -10.21821 -10.21783 -10.21721
 Alpha  occ. eigenvalues --  -10.21275  -3.14799  -1.87631  -1.87154  -1.87035
 Alpha  occ. eigenvalues --   -1.11255  -1.10741  -1.05062  -1.03941  -1.03576
 Alpha  occ. eigenvalues --   -1.00336  -1.00133  -0.99080  -0.98422  -0.96670
 Alpha  occ. eigenvalues --   -0.86798  -0.86022  -0.83995  -0.83808  -0.83329
 Alpha  occ. eigenvalues --   -0.82758  -0.82028  -0.81953  -0.81179  -0.81086
 Alpha  occ. eigenvalues --   -0.80601  -0.80271  -0.78679  -0.78278  -0.77727
 Alpha  occ. eigenvalues --   -0.76810  -0.76048  -0.75402  -0.75131  -0.74625
 Alpha  occ. eigenvalues --   -0.74050  -0.72833  -0.72345  -0.71851  -0.70690
 Alpha  occ. eigenvalues --   -0.69730  -0.69618  -0.69447  -0.68882  -0.68013
 Alpha  occ. eigenvalues --   -0.67778  -0.67239  -0.66217  -0.65106  -0.63814
 Alpha  occ. eigenvalues --   -0.63585  -0.63000  -0.62281  -0.60720  -0.60533
 Alpha  occ. eigenvalues --   -0.60036  -0.59905  -0.59649  -0.59128  -0.58966
 Alpha  occ. eigenvalues --   -0.57292  -0.56959  -0.56864  -0.56191  -0.55993
 Alpha  occ. eigenvalues --   -0.54249  -0.54164  -0.53289  -0.53117  -0.52637
 Alpha  occ. eigenvalues --   -0.52328  -0.51632  -0.50959  -0.50515  -0.49926
 Alpha  occ. eigenvalues --   -0.49833  -0.49620  -0.49489  -0.49069  -0.48748
 Alpha  occ. eigenvalues --   -0.48323  -0.47895  -0.47708  -0.47403  -0.47115
 Alpha  occ. eigenvalues --   -0.47048  -0.46910  -0.46736  -0.46602  -0.46299
 Alpha  occ. eigenvalues --   -0.46191  -0.46156  -0.45843  -0.45523  -0.45238
 Alpha  occ. eigenvalues --   -0.45073  -0.45049  -0.44570  -0.44466  -0.44301
 Alpha  occ. eigenvalues --   -0.44080  -0.43857  -0.43693  -0.43645  -0.43408
 Alpha  occ. eigenvalues --   -0.43298  -0.43139  -0.42927  -0.42603  -0.42245
 Alpha  occ. eigenvalues --   -0.42130  -0.42103  -0.41773  -0.41370  -0.41207
 Alpha  occ. eigenvalues --   -0.41185  -0.41042  -0.40787  -0.40592  -0.40528
 Alpha  occ. eigenvalues --   -0.40291  -0.40126  -0.40000  -0.39840  -0.39756
 Alpha  occ. eigenvalues --   -0.39502  -0.39252  -0.39088  -0.38823  -0.38707
 Alpha  occ. eigenvalues --   -0.38540  -0.38187  -0.38145  -0.37936  -0.37872
 Alpha  occ. eigenvalues --   -0.37857  -0.37580  -0.37331  -0.36896  -0.36852
 Alpha  occ. eigenvalues --   -0.36632  -0.36611  -0.36285  -0.36267  -0.36047
 Alpha  occ. eigenvalues --   -0.36018  -0.35936  -0.35706  -0.35515  -0.35484
 Alpha  occ. eigenvalues --   -0.35277  -0.34844  -0.34237  -0.34158  -0.33938
 Alpha  occ. eigenvalues --   -0.33275  -0.32956  -0.32785  -0.32655  -0.32428
 Alpha  occ. eigenvalues --   -0.32201  -0.31878  -0.31785  -0.31217  -0.31067
 Alpha  occ. eigenvalues --   -0.30744  -0.30326  -0.30045  -0.29868  -0.29722
 Alpha  occ. eigenvalues --   -0.28971  -0.28840  -0.28297  -0.26721  -0.25726
 Alpha  occ. eigenvalues --   -0.25480  -0.25375  -0.25038  -0.24778  -0.21111
 Alpha  occ. eigenvalues --   -0.18797
 Alpha virt. eigenvalues --   -0.11467  -0.05005  -0.03562  -0.02049  -0.01559
 Alpha virt. eigenvalues --   -0.00953  -0.00070   0.00714   0.01006   0.02905
 Alpha virt. eigenvalues --    0.03945   0.04346   0.04647   0.05127   0.05938

 Mulliken charges:
               1
     1  Mg   0.986256
     2  C   -0.083081
     3  C   -0.065172
     4  C   -0.085280
     5  C   -0.060923
     6  N   -0.410743
     7  C    0.090275
     8  C   -0.111708
     9  C   -0.138271
    10  C    0.053224
    11  C    0.055189
    12  C   -0.017197
    13  C    0.017411
    14  C    0.272029
    15  O   -0.262609
    16  O   -0.374376
    17  N   -0.454120
    18  C    0.136782
    19  C   -0.215914
    20  C   -0.034592
    21  C    0.169418
    22  C    0.103884
    23  C    0.003381
    24  O   -0.256829
    25  C   -0.005750
    26  N   -0.454310
    27  C    0.123394
    28  C   -0.149894
    29  C   -0.069344
    30  C    0.048645
    31  C   -0.004933
    32  C   -0.001248
    33  C   -0.068580
    34  N   -0.380972
    35  C    0.101548
    36  C   -0.181918
    37  C   -0.035526
    38  C    0.153933
    39  C    0.070941
    40  C    0.138598
    41  O   -0.188181
    42  C   -0.125318
    43  C    0.306139
    44  O   -0.298201
    45  O   -0.346833
    46  C    0.116631
    47  C    0.229768
    48  C   -0.120155
    49  C   -0.219321
    50  C   -0.010892
    51  C    0.000707
    52  C   -0.042179
    53  C   -0.014026
    54  C   -0.228617
    55  C   -0.010469
    56  C   -0.026208
    57  C   -0.030262
    58  C    0.020498
    59  C   -0.206869
    60  C   -0.016818
    61  C   -0.014444
    62  C   -0.061762
    63  C   -0.033789
    64  C   -0.204187
    65  C   -0.010698
    66  C   -0.025339
    67  H   -0.000681
    68  H   -0.018217
    69  H    0.001607
    70  H    0.036501
    71  H    0.052181
    72  H    0.051529
    73  H    0.064438
    74  H    0.043373
    75  H    0.038990
    76  H    0.061480
    77  H    0.058967
    78  H    0.037182
    79  H    0.072151
    80  H    0.058002
    81  H    0.020911
    82  H    0.048309
    83  H    0.057426
    84  H    0.065283
    85  H    0.049748
    86  H    0.045867
    87  H    0.045144
    88  H    0.048096
    89  H    0.036606
    90  H    0.055241
    91  H    0.038234
    92  H    0.050002
    93  H    0.035458
    94  H    0.047509
    95  H    0.055931
    96  H    0.049344
    97  H    0.065686
    98  H    0.078502
    99  H    0.083835
   100  H    0.066569
   101  H    0.054265
   102  H    0.039370
   103  H    0.044774
   104  H    0.037149
   105  H    0.037914
   106  H    0.063296
   107  H    0.059677
   108  H    0.041591
   109  H    0.058304
   110  H    0.028200
   111  H    0.032729
   112  H    0.025547
   113  H    0.020119
   114  H    0.025684
   115  H    0.046120
   116  H    0.025129
   117  H    0.037503
   118  H    0.034836
   119  H    0.027713
   120  H    0.023406
   121  H    0.039152
   122  H    0.023468
   123  H    0.018442
   124  H    0.023331
   125  H    0.031514
   126  H    0.013788
   127  H    0.040012
   128  H    0.030543
   129  H    0.023405
   130  H    0.032878
   131  H    0.037598
   132  H    0.009322
   133  H    0.029492
   134  H    0.032585
   135  H    0.032546
   136  H    0.033784
   137  H    0.047041
   138  H    0.039513
   139  H    0.029773
   140  H    0.026485
 Sum of Mulliken charges =  -0.00000

 Dipole moment (field-independent basis, Debye):
    X=             -2.0633    Y=              2.8525    Z=              0.4418  Tot=              3.5482
 Quadrupole moment (field-independent basis, Debye-Ang):
   XX=           -405.9368   YY=           -419.5367   ZZ=           -383.6560
   XY=             61.0055   XZ=              1.7509   YZ=             40.9152

 Normal termination of Gaussian 16 at Wed Apr 27 06:12:27 2022.
