 Gaussian 16, Revision A.03,
 Gaussian 16:  ES64L-G16RevA.03 25-Dec-2016

 --------------------------------
 #p wB97XD/Def2SVP td=(nstates=5)
 --------------------------------

 -----------------------------------------------------
 step_1101_chromophore_17 TDDFT with wB97XD functional
 -----------------------------------------------------
 Symbolic Z-matrix:
 Charge =  0 Multiplicity = 1

                         Standard orientation:
 ---------------------------------------------------------------------
 Center     Atomic      Atomic             Coordinates (Angstroms)
 Number     Number       Type             X           Y           Z
 ---------------------------------------------------------------------
      1         12           0        4.703390    1.424367   -0.558557
      2          6           0        4.848361   -2.080535   -0.347061
      3          6           0        2.002109    1.182754   -2.619269
      4          6           0        4.128006    4.715550   -0.003795
      5          6           0        7.124130    1.473204    2.128078
      6          7           0        3.543021   -0.224419   -1.328650
      7          6           0        3.817087   -1.550761   -1.236888
      8          6           0        2.701648   -2.398629   -1.786465
      9          6           0        2.054931   -1.431257   -2.792128
     10          6           0        2.498437   -0.081245   -2.256264
     11          6           0        2.492065   -1.625022   -4.302737
     12          6           0        1.804489   -2.973359   -0.805423
     13          6           0        0.946435   -4.108532   -1.430706
     14          6           0        0.373950   -4.953722   -0.360332
     15          8           0        1.042154   -5.671490    0.391799
     16          8           0       -1.032428   -4.815383   -0.391444
     17          7           0        3.258179    2.796597   -1.232960
     18          6           0        2.280764    2.506474   -2.092437
     19          6           0        1.585333    3.716245   -2.418101
     20          6           0        2.238263    4.767853   -1.790363
     21          6           0        3.203498    4.126863   -0.933462
     22          6           0        0.408865    3.846609   -3.386105
     23          6           0        1.920422    6.195158   -2.025112
     24          8           0        1.122895    6.510601   -2.903893
     25          6           0        2.489249    7.386344   -1.262321
     26          7           0        5.434469    2.773779    0.846802
     27          6           0        5.080528    4.124835    0.753890
     28          6           0        5.788273    4.957829    1.812056
     29          6           0        6.662175    3.971194    2.565223
     30          6           0        6.388471    2.670196    1.883652
     31          6           0        6.586078    6.275402    1.383186
     32          6           0        6.627682    3.878181    4.159181
     33          6           0        7.948364    3.699682    4.827411
     34          7           0        5.937369    0.015961    0.569830
     35          6           0        6.773288    0.186050    1.588719
     36          6           0        7.257342   -1.101289    2.090589
     37          6           0        6.513366   -2.033395    1.335537
     38          6           0        5.756667   -1.296938    0.446237
     39          6           0        8.321995   -1.283569    3.089903
     40          6           0        6.338647   -3.436075    1.089516
     41          8           0        6.813088   -4.421821    1.599588
     42          6           0        5.242012   -3.541015   -0.080358
     43          6           0        5.935645   -4.177363   -1.220127
     44          8           0        7.126269   -3.939679   -1.566239
     45          8           0        5.160865   -5.054867   -1.869161
     46          6           0        5.609387   -5.266385   -3.289586
     47          6           0       -1.760209   -5.367259    0.704274
     48          6           0       -3.244973   -4.915486    0.651718
     49          6           0       -4.252759   -4.962578    1.556626
     50          6           0       -4.174188   -5.847536    2.844977
     51          6           0       -5.690170   -4.541679    1.137504
     52          6           0       -5.902212   -3.384233    0.109415
     53          6           0       -5.830282   -1.941205    0.758488
     54          6           0       -7.251453   -1.190846    1.029477
     55          6           0       -7.482276   -0.849724    2.549597
     56          6           0       -7.460760   -0.006520    0.048281
     57          6           0       -8.565554    0.980176    0.404938
     58          6           0       -8.996483    1.852754   -0.780514
     59          6           0      -10.476253    1.822041   -1.093355
     60          6           0      -10.834192    2.698940   -2.281596
     61          6           0      -11.405372    2.185600    0.101610
     62          6           0      -12.289122    0.950872    0.600365
     63          6           0      -13.791178    1.149053    0.201338
     64          6           0      -14.809218    1.451420    1.377344
     65          6           0      -16.089242    0.666091    1.178966
     66          6           0      -14.975181    3.012643    1.485926
     67          1           0        1.191889    1.168609   -3.351679
     68          1           0        4.122406    5.797674    0.138256
     69          1           0        7.781162    1.554416    2.997354
     70          1           0        3.267127   -3.229202   -2.209418
     71          1           0        0.978386   -1.384197   -2.622366
     72          1           0        2.822509   -2.660669   -4.387329
     73          1           0        3.082117   -0.752255   -4.581091
     74          1           0        1.545617   -1.528087   -4.834742
     75          1           0        1.157433   -2.169414   -0.453976
     76          1           0        2.230460   -3.341351    0.128216
     77          1           0        1.442658   -4.593966   -2.269809
     78          1           0        0.255830   -3.477491   -1.989838
     79          1           0        0.906957    4.195611   -4.290215
     80          1           0       -0.390950    4.481719   -3.002588
     81          1           0       -0.082224    2.875409   -3.446364
     82          1           0        2.563329    7.152872   -0.200341
     83          1           0        1.836514    8.259227   -1.271531
     84          1           0        3.486123    7.568383   -1.663781
     85          1           0        5.042946    5.316304    2.521755
     86          1           0        7.641273    4.250774    2.176360
     87          1           0        6.106100    6.808111    0.561421
     88          1           0        7.647526    6.083455    1.231695
     89          1           0        6.499067    6.990865    2.200986
     90          1           0        5.929613    3.096373    4.454731
     91          1           0        6.308626    4.880163    4.447719
     92          1           0        7.865867    3.261130    5.821632
     93          1           0        8.349235    4.706233    4.943167
     94          1           0        8.687802    3.146170    4.248340
     95          1           0        7.855051   -1.418189    4.065735
     96          1           0        8.946463   -0.390327    3.104756
     97          1           0        8.895584   -2.203237    2.968177
     98          1           0        4.383118   -4.112544    0.269753
     99          1           0        6.562245   -5.789146   -3.206438
    100          1           0        5.634066   -4.345956   -3.873700
    101          1           0        4.890279   -5.926078   -3.774779
    102          1           0       -1.276759   -5.128205    1.651533
    103          1           0       -1.603298   -6.445596    0.725602
    104          1           0       -3.463707   -4.508165   -0.334909
    105          1           0       -3.292183   -6.478873    2.736675
    106          1           0       -5.039212   -6.487853    3.015506
    107          1           0       -3.923425   -5.115052    3.611723
    108          1           0       -5.977569   -4.172687    2.121465
    109          1           0       -6.245239   -5.411643    0.785196
    110          1           0       -6.852887   -3.610636   -0.371651
    111          1           0       -5.229232   -3.358501   -0.748097
    112          1           0       -5.193606   -1.288564    0.159758
    113          1           0       -5.406927   -1.983086    1.762230
    114          1           0       -7.918984   -2.013258    0.772882
    115          1           0       -8.510540   -1.038410    2.859648
    116          1           0       -7.334734    0.224600    2.652601
    117          1           0       -6.733107   -1.333942    3.177296
    118          1           0       -7.558697   -0.358197   -0.978986
    119          1           0       -6.524356    0.521336    0.228497
    120          1           0       -8.068834    1.606824    1.146228
    121          1           0       -9.413352    0.510454    0.902770
    122          1           0       -8.370653    1.650958   -1.649440
    123          1           0       -8.865427    2.900554   -0.509300
    124          1           0      -10.714171    0.842196   -1.508094
    125          1           0      -11.659095    2.156809   -2.742706
    126          1           0      -10.034796    2.651213   -3.021589
    127          1           0      -11.007834    3.769866   -2.180009
    128          1           0      -12.090968    2.985872   -0.177069
    129          1           0      -10.840046    2.637275    0.915822
    130          1           0      -12.151795    0.805906    1.672369
    131          1           0      -12.064524    0.062608    0.008409
    132          1           0      -14.061639    0.180323   -0.218537
    133          1           0      -13.727604    1.853096   -0.628544
    134          1           0      -14.312914    1.115916    2.287662
    135          1           0      -16.625478    0.949123    0.272798
    136          1           0      -16.735200    1.025596    1.979543
    137          1           0      -15.931100   -0.411589    1.153209
    138          1           0      -14.720986    3.351458    2.489788
    139          1           0      -15.945051    3.334461    1.107552
    140          1           0      -14.332254    3.628587    0.857327
 ---------------------------------------------------------------------

 SCF Done:  E(RwB97XD) =  -3007.84966591     A.U. after   19 cycles

 Excitation energies and oscillator strengths:

 Excited State   1:      Singlet-A      1.6015 eV  774.17 nm  f=0.3734  <S**2>=0.000
     245 -> 248       -0.16811
     246 -> 247        0.68877
     245 <- 248       -0.11436
 This state for optimization and/or second-order correction.
 Total Energy, E(TD-HF/TD-DFT) =  -3007.79081120
 Copying the excited state density for this state as the 1-particle RhoCI density.

 Excited State   2:      Singlet-A      2.1642 eV  572.88 nm  f=0.1356  <S**2>=0.000
     245 -> 247        0.64584
     246 -> 248        0.27682

 Excited State   3:      Singlet-A      3.3564 eV  369.40 nm  f=0.0015  <S**2>=0.000
     240 -> 247        0.17644
     241 -> 247        0.51824
     242 -> 247       -0.32619
     244 -> 247        0.23555
     246 -> 248        0.10091

 Excited State   4:      Singlet-A      3.4331 eV  361.15 nm  f=0.0094  <S**2>=0.000
     240 -> 247        0.56862
     240 -> 249       -0.27560
     240 -> 250        0.14424
     241 -> 247       -0.13805

 Excited State   5:      Singlet-A      3.5108 eV  353.15 nm  f=0.0101  <S**2>=0.000
     241 -> 247       -0.35767
     242 -> 247       -0.25867
     244 -> 247        0.47246
     244 -> 249        0.13489
     246 -> 248       -0.17623

 The electronic state is 1-A.
 Alpha  occ. eigenvalues --  -46.95680 -19.31039 -19.30746 -19.26319 -19.24123
 Alpha  occ. eigenvalues --  -19.23935 -19.22457 -14.47758 -14.46615 -14.44000
 Alpha  occ. eigenvalues --  -14.43911 -10.44490 -10.43121 -10.38859 -10.38025
 Alpha  occ. eigenvalues --  -10.36389 -10.36078 -10.35946 -10.35732 -10.35177
 Alpha  occ. eigenvalues --  -10.34463 -10.34236 -10.33846 -10.33415 -10.33178
 Alpha  occ. eigenvalues --  -10.33042 -10.32863 -10.32626 -10.32309 -10.31880
 Alpha  occ. eigenvalues --  -10.31868 -10.31761 -10.31695 -10.31592 -10.31544
 Alpha  occ. eigenvalues --  -10.31299 -10.31269 -10.31268 -10.31134 -10.30843
 Alpha  occ. eigenvalues --  -10.30805 -10.30325 -10.30253 -10.30196 -10.30123
 Alpha  occ. eigenvalues --  -10.30062 -10.29943 -10.29785 -10.29783 -10.29742
 Alpha  occ. eigenvalues --  -10.29519 -10.29466 -10.29247 -10.29174 -10.28995
 Alpha  occ. eigenvalues --  -10.28814 -10.28722 -10.28633 -10.28547 -10.28543
 Alpha  occ. eigenvalues --  -10.28304 -10.28272 -10.28173 -10.28154 -10.28089
 Alpha  occ. eigenvalues --  -10.27688  -3.21611  -1.95191  -1.94713  -1.94592
 Alpha  occ. eigenvalues --   -1.18805  -1.18162  -1.12790  -1.11164  -1.10965
 Alpha  occ. eigenvalues --   -1.07904  -1.07703  -1.06357  -1.05729  -1.04043
 Alpha  occ. eigenvalues --   -0.94637  -0.93701  -0.91656  -0.91379  -0.91022
 Alpha  occ. eigenvalues --   -0.90289  -0.89690  -0.89628  -0.88947  -0.88753
 Alpha  occ. eigenvalues --   -0.87997  -0.87847  -0.86276  -0.85991  -0.85399
 Alpha  occ. eigenvalues --   -0.84462  -0.83712  -0.83049  -0.82769  -0.82293
 Alpha  occ. eigenvalues --   -0.81740  -0.80566  -0.79963  -0.79425  -0.78378
 Alpha  occ. eigenvalues --   -0.77419  -0.77193  -0.77094  -0.76546  -0.75661
 Alpha  occ. eigenvalues --   -0.75416  -0.74810  -0.73806  -0.72698  -0.71454
 Alpha  occ. eigenvalues --   -0.71201  -0.70647  -0.69677  -0.68349  -0.68014
 Alpha  occ. eigenvalues --   -0.67672  -0.67447  -0.67165  -0.66602  -0.66376
 Alpha  occ. eigenvalues --   -0.64939  -0.64519  -0.64509  -0.63836  -0.63535
 Alpha  occ. eigenvalues --   -0.61706  -0.61545  -0.60663  -0.60523  -0.60255
 Alpha  occ. eigenvalues --   -0.59837  -0.59069  -0.58300  -0.57927  -0.57433
 Alpha  occ. eigenvalues --   -0.57384  -0.57034  -0.56988  -0.56494  -0.56147
 Alpha  occ. eigenvalues --   -0.55738  -0.55306  -0.55135  -0.54742  -0.54571
 Alpha  occ. eigenvalues --   -0.54466  -0.54280  -0.54093  -0.53989  -0.53691
 Alpha  occ. eigenvalues --   -0.53607  -0.53562  -0.53166  -0.52885  -0.52563
 Alpha  occ. eigenvalues --   -0.52418  -0.52356  -0.51893  -0.51810  -0.51599
 Alpha  occ. eigenvalues --   -0.51429  -0.51265  -0.51015  -0.50898  -0.50737
 Alpha  occ. eigenvalues --   -0.50612  -0.50407  -0.50096  -0.49874  -0.49534
 Alpha  occ. eigenvalues --   -0.49408  -0.49368  -0.48984  -0.48606  -0.48451
 Alpha  occ. eigenvalues --   -0.48379  -0.48282  -0.48159  -0.47847  -0.47696
 Alpha  occ. eigenvalues --   -0.47526  -0.47454  -0.47136  -0.47076  -0.46948
 Alpha  occ. eigenvalues --   -0.46723  -0.46478  -0.46294  -0.46054  -0.45871
 Alpha  occ. eigenvalues --   -0.45669  -0.45363  -0.45325  -0.45063  -0.45027
 Alpha  occ. eigenvalues --   -0.44932  -0.44635  -0.44486  -0.44012  -0.43807
 Alpha  occ. eigenvalues --   -0.43703  -0.43647  -0.43581  -0.43272  -0.43105
 Alpha  occ. eigenvalues --   -0.43063  -0.42992  -0.42760  -0.42560  -0.42446
 Alpha  occ. eigenvalues --   -0.42347  -0.41703  -0.41281  -0.41190  -0.40975
 Alpha  occ. eigenvalues --   -0.40242  -0.39964  -0.39716  -0.39538  -0.39444
 Alpha  occ. eigenvalues --   -0.39235  -0.39041  -0.38867  -0.38194  -0.38186
 Alpha  occ. eigenvalues --   -0.37715  -0.37417  -0.36961  -0.36895  -0.36568
 Alpha  occ. eigenvalues --   -0.35867  -0.35861  -0.35223  -0.33297  -0.32797
 Alpha  occ. eigenvalues --   -0.32400  -0.31903  -0.31844  -0.31668  -0.26137
 Alpha  occ. eigenvalues --   -0.23014
 Alpha virt. eigenvalues --   -0.07407   0.00462   0.02744   0.04498   0.04874
 Alpha virt. eigenvalues --    0.05473   0.06580   0.07322   0.07717   0.09456
 Alpha virt. eigenvalues --    0.10659   0.10994   0.11352   0.11901   0.12590

 Mulliken charges:
               1
     1  Mg   0.977148
     2  C   -0.088651
     3  C   -0.076579
     4  C   -0.093070
     5  C   -0.079816
     6  N   -0.377379
     7  C    0.053683
     8  C   -0.066741
     9  C   -0.110174
    10  C    0.034309
    11  C    0.065512
    12  C   -0.007496
    13  C    0.031400
    14  C    0.264864
    15  O   -0.259797
    16  O   -0.372867
    17  N   -0.417544
    18  C    0.120541
    19  C   -0.206830
    20  C   -0.031156
    21  C    0.160907
    22  C    0.118234
    23  C   -0.002219
    24  O   -0.254231
    25  C    0.006584
    26  N   -0.427746
    27  C    0.110517
    28  C   -0.125295
    29  C   -0.042422
    30  C    0.041473
    31  C    0.008099
    32  C    0.017047
    33  C   -0.054899
    34  N   -0.340205
    35  C    0.099271
    36  C   -0.176615
    37  C   -0.031033
    38  C    0.139006
    39  C    0.080698
    40  C    0.121080
    41  O   -0.177478
    42  C   -0.083342
    43  C    0.283476
    44  O   -0.294280
    45  O   -0.345886
    46  C    0.132606
    47  C    0.239416
    48  C   -0.123501
    49  C   -0.211313
    50  C    0.003850
    51  C    0.023964
    52  C   -0.026455
    53  C    0.000948
    54  C   -0.205224
    55  C    0.006450
    56  C   -0.005851
    57  C   -0.010638
    58  C    0.036910
    59  C   -0.176136
    60  C   -0.005427
    61  C    0.001687
    62  C   -0.047538
    63  C   -0.015662
    64  C   -0.175196
    65  C    0.002290
    66  C   -0.015934
    67  H   -0.006984
    68  H   -0.036557
    69  H   -0.012865
    70  H    0.010276
    71  H    0.040959
    72  H    0.044916
    73  H    0.058941
    74  H    0.037958
    75  H    0.030959
    76  H    0.050827
    77  H    0.054626
    78  H    0.029741
    79  H    0.066529
    80  H    0.052816
    81  H    0.013316
    82  H    0.042798
    83  H    0.055614
    84  H    0.060099
    85  H    0.038279
    86  H    0.030621
    87  H    0.039781
    88  H    0.042157
    89  H    0.030077
    90  H    0.048340
    91  H    0.029522
    92  H    0.045491
    93  H    0.029783
    94  H    0.041131
    95  H    0.052270
    96  H    0.045272
    97  H    0.063454
    98  H    0.073350
    99  H    0.080397
   100  H    0.062866
   101  H    0.051843
   102  H    0.033869
   103  H    0.040120
   104  H    0.031017
   105  H    0.031561
   106  H    0.059716
   107  H    0.053681
   108  H    0.028416
   109  H    0.052144
   110  H    0.020838
   111  H    0.025005
   112  H    0.018255
   113  H    0.007010
   114  H    0.011251
   115  H    0.041115
   116  H    0.016106
   117  H    0.031668
   118  H    0.026131
   119  H    0.016084
   120  H    0.013680
   121  H    0.024345
   122  H    0.015328
   123  H    0.008246
   124  H    0.009970
   125  H    0.024881
   126  H    0.007405
   127  H    0.035116
   128  H    0.015850
   129  H    0.015931
   130  H    0.025859
   131  H    0.028111
   132  H    0.000567
   133  H    0.017227
   134  H    0.021752
   135  H    0.025763
   136  H    0.027537
   137  H    0.041812
   138  H    0.034791
   139  H    0.024306
   140  H    0.019585
 Sum of Mulliken charges =  -0.00000

 Dipole moment (field-independent basis, Debye):
    X=             -1.7812    Y=              2.3388    Z=              0.5826  Tot=              2.9970
 Quadrupole moment (field-independent basis, Debye-Ang):
   XX=           -403.1135   YY=           -419.8845   ZZ=           -383.3623
   XY=             58.8862   XZ=              1.9435   YZ=             41.3619

 Normal termination of Gaussian 16 at Wed Apr 27 06:37:44 2022.
