 Gaussian 16, Revision A.03,
 Gaussian 16:  ES64L-G16RevA.03 25-Dec-2016

 --------------------
 #p ZINDO=(nstates=5)
 --------------------

 ------------------------------
 step_1101_chromophore_17 ZINDO
 ------------------------------
 Symbolic Z-matrix:
 Charge =  0 Multiplicity = 1

                         Standard orientation:
 ---------------------------------------------------------------------
 Center     Atomic      Atomic             Coordinates (Angstroms)
 Number     Number       Type             X           Y           Z
 ---------------------------------------------------------------------
      1         12           0        4.703390    1.424367   -0.558557
      2          6           0        4.848361   -2.080535   -0.347061
      3          6           0        2.002109    1.182754   -2.619269
      4          6           0        4.128006    4.715550   -0.003795
      5          6           0        7.124130    1.473204    2.128078
      6          7           0        3.543021   -0.224419   -1.328650
      7          6           0        3.817087   -1.550761   -1.236888
      8          6           0        2.701648   -2.398629   -1.786465
      9          6           0        2.054931   -1.431257   -2.792128
     10          6           0        2.498437   -0.081245   -2.256264
     11          6           0        2.492065   -1.625022   -4.302737
     12          6           0        1.804489   -2.973359   -0.805423
     13          6           0        0.946435   -4.108532   -1.430706
     14          6           0        0.373950   -4.953722   -0.360332
     15          8           0        1.042154   -5.671490    0.391799
     16          8           0       -1.032428   -4.815383   -0.391444
     17          7           0        3.258179    2.796597   -1.232960
     18          6           0        2.280764    2.506474   -2.092437
     19          6           0        1.585333    3.716245   -2.418101
     20          6           0        2.238263    4.767853   -1.790363
     21          6           0        3.203498    4.126863   -0.933462
     22          6           0        0.408865    3.846609   -3.386105
     23          6           0        1.920422    6.195158   -2.025112
     24          8           0        1.122895    6.510601   -2.903893
     25          6           0        2.489249    7.386344   -1.262321
     26          7           0        5.434469    2.773779    0.846802
     27          6           0        5.080528    4.124835    0.753890
     28          6           0        5.788273    4.957829    1.812056
     29          6           0        6.662175    3.971194    2.565223
     30          6           0        6.388471    2.670196    1.883652
     31          6           0        6.586078    6.275402    1.383186
     32          6           0        6.627682    3.878181    4.159181
     33          6           0        7.948364    3.699682    4.827411
     34          7           0        5.937369    0.015961    0.569830
     35          6           0        6.773288    0.186050    1.588719
     36          6           0        7.257342   -1.101289    2.090589
     37          6           0        6.513366   -2.033395    1.335537
     38          6           0        5.756667   -1.296938    0.446237
     39          6           0        8.321995   -1.283569    3.089903
     40          6           0        6.338647   -3.436075    1.089516
     41          8           0        6.813088   -4.421821    1.599588
     42          6           0        5.242012   -3.541015   -0.080358
     43          6           0        5.935645   -4.177363   -1.220127
     44          8           0        7.126269   -3.939679   -1.566239
     45          8           0        5.160865   -5.054867   -1.869161
     46          6           0        5.609387   -5.266385   -3.289586
     47          6           0       -1.760209   -5.367259    0.704274
     48          6           0       -3.244973   -4.915486    0.651718
     49          6           0       -4.252759   -4.962578    1.556626
     50          6           0       -4.174188   -5.847536    2.844977
     51          6           0       -5.690170   -4.541679    1.137504
     52          6           0       -5.902212   -3.384233    0.109415
     53          6           0       -5.830282   -1.941205    0.758488
     54          6           0       -7.251453   -1.190846    1.029477
     55          6           0       -7.482276   -0.849724    2.549597
     56          6           0       -7.460760   -0.006520    0.048281
     57          6           0       -8.565554    0.980176    0.404938
     58          6           0       -8.996483    1.852754   -0.780514
     59          6           0      -10.476253    1.822041   -1.093355
     60          6           0      -10.834192    2.698940   -2.281596
     61          6           0      -11.405372    2.185600    0.101610
     62          6           0      -12.289122    0.950872    0.600365
     63          6           0      -13.791178    1.149053    0.201338
     64          6           0      -14.809218    1.451420    1.377344
     65          6           0      -16.089242    0.666091    1.178966
     66          6           0      -14.975181    3.012643    1.485926
     67          1           0        1.191889    1.168609   -3.351679
     68          1           0        4.122406    5.797674    0.138256
     69          1           0        7.781162    1.554416    2.997354
     70          1           0        3.267127   -3.229202   -2.209418
     71          1           0        0.978386   -1.384197   -2.622366
     72          1           0        2.822509   -2.660669   -4.387329
     73          1           0        3.082117   -0.752255   -4.581091
     74          1           0        1.545617   -1.528087   -4.834742
     75          1           0        1.157433   -2.169414   -0.453976
     76          1           0        2.230460   -3.341351    0.128216
     77          1           0        1.442658   -4.593966   -2.269809
     78          1           0        0.255830   -3.477491   -1.989838
     79          1           0        0.906957    4.195611   -4.290215
     80          1           0       -0.390950    4.481719   -3.002588
     81          1           0       -0.082224    2.875409   -3.446364
     82          1           0        2.563329    7.152872   -0.200341
     83          1           0        1.836514    8.259227   -1.271531
     84          1           0        3.486123    7.568383   -1.663781
     85          1           0        5.042946    5.316304    2.521755
     86          1           0        7.641273    4.250774    2.176360
     87          1           0        6.106100    6.808111    0.561421
     88          1           0        7.647526    6.083455    1.231695
     89          1           0        6.499067    6.990865    2.200986
     90          1           0        5.929613    3.096373    4.454731
     91          1           0        6.308626    4.880163    4.447719
     92          1           0        7.865867    3.261130    5.821632
     93          1           0        8.349235    4.706233    4.943167
     94          1           0        8.687802    3.146170    4.248340
     95          1           0        7.855051   -1.418189    4.065735
     96          1           0        8.946463   -0.390327    3.104756
     97          1           0        8.895584   -2.203237    2.968177
     98          1           0        4.383118   -4.112544    0.269753
     99          1           0        6.562245   -5.789146   -3.206438
    100          1           0        5.634066   -4.345956   -3.873700
    101          1           0        4.890279   -5.926078   -3.774779
    102          1           0       -1.276759   -5.128205    1.651533
    103          1           0       -1.603298   -6.445596    0.725602
    104          1           0       -3.463707   -4.508165   -0.334909
    105          1           0       -3.292183   -6.478873    2.736675
    106          1           0       -5.039212   -6.487853    3.015506
    107          1           0       -3.923425   -5.115052    3.611723
    108          1           0       -5.977569   -4.172687    2.121465
    109          1           0       -6.245239   -5.411643    0.785196
    110          1           0       -6.852887   -3.610636   -0.371651
    111          1           0       -5.229232   -3.358501   -0.748097
    112          1           0       -5.193606   -1.288564    0.159758
    113          1           0       -5.406927   -1.983086    1.762230
    114          1           0       -7.918984   -2.013258    0.772882
    115          1           0       -8.510540   -1.038410    2.859648
    116          1           0       -7.334734    0.224600    2.652601
    117          1           0       -6.733107   -1.333942    3.177296
    118          1           0       -7.558697   -0.358197   -0.978986
    119          1           0       -6.524356    0.521336    0.228497
    120          1           0       -8.068834    1.606824    1.146228
    121          1           0       -9.413352    0.510454    0.902770
    122          1           0       -8.370653    1.650958   -1.649440
    123          1           0       -8.865427    2.900554   -0.509300
    124          1           0      -10.714171    0.842196   -1.508094
    125          1           0      -11.659095    2.156809   -2.742706
    126          1           0      -10.034796    2.651213   -3.021589
    127          1           0      -11.007834    3.769866   -2.180009
    128          1           0      -12.090968    2.985872   -0.177069
    129          1           0      -10.840046    2.637275    0.915822
    130          1           0      -12.151795    0.805906    1.672369
    131          1           0      -12.064524    0.062608    0.008409
    132          1           0      -14.061639    0.180323   -0.218537
    133          1           0      -13.727604    1.853096   -0.628544
    134          1           0      -14.312914    1.115916    2.287662
    135          1           0      -16.625478    0.949123    0.272798
    136          1           0      -16.735200    1.025596    1.979543
    137          1           0      -15.931100   -0.411589    1.153209
    138          1           0      -14.720986    3.351458    2.489788
    139          1           0      -15.945051    3.334461    1.107552
    140          1           0      -14.332254    3.628587    0.857327
 ---------------------------------------------------------------------

 SCF Done:  E(RZINDO/S) =  -474.282535281     A.U. after   19 cycles

 Excitation energies and oscillator strengths:

 Excited State   1:      Singlet-A      1.2144 eV 1020.96 nm  f=0.5884  <S**2>=0.000
     175 ->178         0.16921
     176 ->177         0.66915
 This state for optimization and/or second-order correction.
 Total Energy, E(CIS/TDA) =  -474.237907462
 Copying the excited state density for this state as the 1-particle RhoCI density.

 Excited State   2:      Singlet-A      1.8970 eV  653.59 nm  f=0.0638  <S**2>=0.000
     175 ->177         0.56151
     176 ->178        -0.39492

 Excited State   3:      Singlet-A      2.9333 eV  422.68 nm  f=0.0125  <S**2>=0.000
     170 ->177         0.21099
     170 ->179        -0.28495
     170 ->182        -0.41041
     170 ->184        -0.13648
     170 ->186         0.16604
     170 ->187         0.19381
     170 ->188         0.13470
     170 ->202        -0.13361

 Excited State   4:      Singlet-A      2.9436 eV  421.19 nm  f=0.0159  <S**2>=0.000
     168 ->177         0.38222
     168 ->178        -0.17166
     168 ->179         0.35428
     168 ->182        -0.17654
     168 ->183         0.13917
     168 ->186        -0.22052
     168 ->195         0.13936

 Excited State   5:      Singlet-A      2.9800 eV  416.06 nm  f=0.8650  <S**2>=0.000
     171 ->177         0.13582
     175 ->177         0.32572
     176 ->178         0.51568
     176 ->181        -0.24246

 The electronic state is 1-A.
 Alpha  occ. eigenvalues --   -1.86517  -1.82817  -1.81111  -1.73990  -1.73176
 Alpha  occ. eigenvalues --   -1.71423  -1.64970  -1.60312  -1.59269  -1.58653
 Alpha  occ. eigenvalues --   -1.54329  -1.52857  -1.49050  -1.48161  -1.47471
 Alpha  occ. eigenvalues --   -1.45614  -1.41920  -1.40037  -1.37453  -1.37295
 Alpha  occ. eigenvalues --   -1.36289  -1.34865  -1.32694  -1.31344  -1.28177
 Alpha  occ. eigenvalues --   -1.27126  -1.25913  -1.22786  -1.21096  -1.18186
 Alpha  occ. eigenvalues --   -1.16966  -1.16141  -1.15227  -1.14443  -1.12477
 Alpha  occ. eigenvalues --   -1.12361  -1.09747  -1.09264  -1.05462  -1.04770
 Alpha  occ. eigenvalues --   -1.02613  -1.02020  -0.98867  -0.97605  -0.97532
 Alpha  occ. eigenvalues --   -0.95613  -0.94615  -0.93658  -0.93471  -0.92662
 Alpha  occ. eigenvalues --   -0.91200  -0.90202  -0.88862  -0.88701  -0.87475
 Alpha  occ. eigenvalues --   -0.86623  -0.85780  -0.84030  -0.82727  -0.80762
 Alpha  occ. eigenvalues --   -0.79654  -0.78872  -0.77235  -0.76654  -0.75682
 Alpha  occ. eigenvalues --   -0.75358  -0.74669  -0.74090  -0.73206  -0.73031
 Alpha  occ. eigenvalues --   -0.72656  -0.72511  -0.71744  -0.71128  -0.70981
 Alpha  occ. eigenvalues --   -0.70558  -0.70336  -0.68736  -0.68426  -0.67878
 Alpha  occ. eigenvalues --   -0.67393  -0.67004  -0.66562  -0.65734  -0.65619
 Alpha  occ. eigenvalues --   -0.65525  -0.64843  -0.64601  -0.63770  -0.63513
 Alpha  occ. eigenvalues --   -0.63339  -0.63141  -0.62779  -0.62436  -0.61957
 Alpha  occ. eigenvalues --   -0.61934  -0.61301  -0.60993  -0.60769  -0.60098
 Alpha  occ. eigenvalues --   -0.59777  -0.59305  -0.59044  -0.59009  -0.58684
 Alpha  occ. eigenvalues --   -0.58415  -0.57829  -0.57164  -0.57042  -0.56039
 Alpha  occ. eigenvalues --   -0.55758  -0.55193  -0.54900  -0.54626  -0.54418
 Alpha  occ. eigenvalues --   -0.54024  -0.53706  -0.53491  -0.53409  -0.52994
 Alpha  occ. eigenvalues --   -0.52677  -0.52595  -0.52078  -0.51778  -0.51762
 Alpha  occ. eigenvalues --   -0.51454  -0.51289  -0.50994  -0.50811  -0.50602
 Alpha  occ. eigenvalues --   -0.50314  -0.50027  -0.49986  -0.49579  -0.49329
 Alpha  occ. eigenvalues --   -0.49052  -0.48898  -0.48550  -0.48155  -0.47821
 Alpha  occ. eigenvalues --   -0.47452  -0.46899  -0.46580  -0.46492  -0.46410
 Alpha  occ. eigenvalues --   -0.46325  -0.45936  -0.45881  -0.45471  -0.45436
 Alpha  occ. eigenvalues --   -0.45232  -0.45068  -0.44674  -0.44022  -0.43792
 Alpha  occ. eigenvalues --   -0.43660  -0.43189  -0.43114  -0.42744  -0.42610
 Alpha  occ. eigenvalues --   -0.41968  -0.41719  -0.41422  -0.39895  -0.38748
 Alpha  occ. eigenvalues --   -0.38068  -0.37586  -0.35354  -0.34774  -0.33951
 Alpha  occ. eigenvalues --   -0.33373  -0.32660  -0.32539  -0.31926  -0.26905
 Alpha  occ. eigenvalues --   -0.21852
 Alpha virt. eigenvalues --   -0.08904  -0.02023  -0.00273   0.00849   0.00992
 Alpha virt. eigenvalues --    0.01671   0.01892   0.02862   0.03831   0.04403
 Alpha virt. eigenvalues --    0.06213   0.06537   0.07712   0.08034   0.08359

 Mulliken charges:
               1
     1  Mg   0.435399
     2  C   -0.061642
     3  C   -0.065760
     4  C   -0.079387
     5  C   -0.106062
     6  N   -0.275161
     7  C    0.133165
     8  C    0.021277
     9  C    0.001971
    10  C    0.084500
    11  C   -0.055558
    12  C   -0.007155
    13  C   -0.002950
    14  C    0.480371
    15  O   -0.510691
    16  O   -0.273729
    17  N   -0.301422
    18  C    0.078506
    19  C    0.021841
    20  C   -0.053263
    21  C    0.103551
    22  C   -0.042716
    23  C    0.323069
    24  O   -0.540058
    25  C   -0.027900
    26  N   -0.305002
    27  C    0.113087
    28  C    0.000364
    29  C   -0.000775
    30  C    0.156210
    31  C   -0.057062
    32  C   -0.020305
    33  C   -0.051556
    34  N   -0.313335
    35  C    0.145068
    36  C    0.046756
    37  C   -0.038834
    38  C    0.133361
    39  C   -0.031169
    40  C    0.340576
    41  O   -0.499212
    42  C    0.055236
    43  C    0.498146
    44  O   -0.545158
    45  O   -0.264274
    46  C    0.077074
    47  C    0.103662
    48  C   -0.077223
    49  C   -0.025831
    50  C   -0.048667
    51  C   -0.024349
    52  C   -0.034284
    53  C   -0.047853
    54  C   -0.026318
    55  C   -0.058328
    56  C   -0.030432
    57  C   -0.037179
    58  C   -0.029988
    59  C   -0.002354
    60  C   -0.061979
    61  C   -0.037394
    62  C   -0.048849
    63  C   -0.048350
    64  C   -0.004851
    65  C   -0.049805
    66  C   -0.062332
    67  H    0.022687
    68  H    0.024290
    69  H    0.029172
    70  H    0.022675
    71  H    0.031375
    72  H    0.034518
    73  H    0.046530
    74  H    0.015616
    75  H    0.019832
    76  H    0.031490
    77  H    0.050288
    78  H    0.025865
    79  H    0.049153
    80  H    0.039269
    81  H    0.010436
    82  H    0.018569
    83  H    0.040640
    84  H    0.041928
    85  H    0.023790
    86  H    0.034330
    87  H    0.025079
    88  H    0.029133
    89  H    0.012923
    90  H    0.030299
    91  H    0.019986
    92  H    0.021002
    93  H    0.013916
    94  H    0.021630
    95  H    0.034673
    96  H    0.028862
    97  H    0.041157
    98  H    0.057817
    99  H    0.057445
   100  H    0.046441
   101  H    0.026319
   102  H    0.043313
   103  H    0.048195
   104  H    0.029842
   105  H    0.018857
   106  H    0.037950
   107  H    0.032839
   108  H    0.026388
   109  H    0.033648
   110  H    0.016846
   111  H    0.021950
   112  H    0.019093
   113  H    0.019512
   114  H    0.011581
   115  H    0.023328
   116  H    0.016319
   117  H    0.024012
   118  H    0.023681
   119  H    0.018488
   120  H    0.014367
   121  H    0.024927
   122  H    0.022276
   123  H    0.012583
   124  H    0.016930
   125  H    0.013815
   126  H    0.002854
   127  H    0.027176
   128  H    0.018751
   129  H    0.017002
   130  H    0.025686
   131  H    0.022475
   132  H    0.005410
   133  H    0.028686
   134  H    0.022318
   135  H    0.017565
   136  H    0.013346
   137  H    0.025674
   138  H    0.020229
   139  H    0.020685
   140  H    0.015582
 Sum of Mulliken charges =  -0.00000

 Dipole moment (field-independent basis, Debye):
    X=             -1.6100    Y=              2.5889    Z=              2.2006  Tot=              3.7600
 N-N= 4.307137556242D+03 E-N= 0.000000000000D+00  KE=-9.288244303308D+03
 Leave Link  601 at Wed Apr 27 06:49:34 2022, MaxMem=  6710886400 cpu:               1.0 elap:               0.1
 (Enter /sw/apps/gaussian-16.0/g16/l9999.exe)
 1\1\GINC-BP1-COMPUTE174\SP\RZINDO CIS\STO-3G\C55H74Mg1N4O6\OF15641\27-
 Apr-2022\0\\#p ZINDO=(nstates=5)\\step_1101_chromophore_17 ZINDO\\0,1\
 Mg,0,28.869,59.549,41.4\C,0,25.737,58.261,40.461\C,0,30.394,56.839,40.
 01\C,0,31.792,61.252,41.563\C,0,27.127,62.613,42.211\N,0,28.165,57.815
 ,40.325\C,0,26.882,57.408,40.149\C,0,26.786,56.22,39.23\C,0,28.173,55.
 582,39.416\C,0,28.994,56.759,39.913\C,0,28.234,54.366,40.43\C,0,26.409
 ,56.51,37.862\C,0,25.976,55.217,37.116\C,0,25.202,55.57,35.906\O,0,24.

 Normal termination of Gaussian 16 at Wed Apr 27 06:49:35 2022.
