 Gaussian 16, Revision A.03,
 Gaussian 16:  ES64L-G16RevA.03 25-Dec-2016

 ------------------------------
 #p blyp/Def2SVP td=(nstates=5)
 ------------------------------

 ---------------------------------------------------
 step_1201_chromophore_21 TDDFT with blyp functional
 ---------------------------------------------------
 Symbolic Z-matrix:
 Charge =  0 Multiplicity = 1

                         Standard orientation:
 ---------------------------------------------------------------------
 Center     Atomic      Atomic             Coordinates (Angstroms)
 Number     Number       Type             X           Y           Z
 ---------------------------------------------------------------------
      1         12           0        5.091774    1.323732    0.100804
      2          6           0        4.847671   -2.267269    0.249310
      3          6           0        1.579756    1.360568   -0.293700
      4          6           0        5.451744    4.594722   -0.217628
      5          6           0        8.612659    0.847074   -0.019526
      6          7           0        3.409442   -0.328329   -0.067703
      7          6           0        3.568629   -1.665462    0.207039
      8          6           0        2.286207   -2.347134    0.436340
      9          6           0        1.233918   -1.267132   -0.170748
     10          6           0        2.087874   -0.043062   -0.165649
     11          6           0        0.634749   -1.541343   -1.614631
     12          6           0        2.025974   -2.547615    1.935979
     13          6           0        1.004361   -3.714261    2.134956
     14          6           0        0.223346   -4.308595    0.963893
     15          8           0        0.475389   -5.398376    0.447344
     16          8           0       -0.800053   -3.464954    0.530586
     17          7           0        3.696398    2.806686   -0.227940
     18          6           0        2.320081    2.607166   -0.332676
     19          6           0        1.733265    3.889411   -0.358494
     20          6           0        2.786394    4.883284   -0.236006
     21          6           0        4.031828    4.153759   -0.209216
     22          6           0        0.211566    4.090332   -0.352483
     23          6           0        2.695725    6.368319   -0.051861
     24          8           0        3.659794    7.112288    0.057333
     25          6           0        1.327754    7.030917   -0.072452
     26          7           0        6.750325    2.547167    0.024477
     27          6           0        6.620232    3.917425   -0.164905
     28          6           0        8.098432    4.563880   -0.221743
     29          6           0        8.977453    3.331113   -0.027772
     30          6           0        8.079824    2.160249    0.036720
     31          6           0        8.353140    5.378543   -1.498886
     32          6           0        9.887350    3.420400    1.205168
     33          6           0       11.020761    4.444480    0.991977
     34          7           0        6.483314   -0.306107    0.184093
     35          6           0        7.841182   -0.353108    0.013040
     36          6           0        8.368622   -1.737230    0.104993
     37          6           0        7.221449   -2.485477    0.264498
     38          6           0        6.085745   -1.619892    0.177054
     39          6           0        9.847349   -2.200079    0.116433
     40          6           0        6.662365   -3.783259    0.365287
     41          8           0        7.232705   -4.887145    0.253209
     42          6           0        5.101467   -3.720720    0.407478
     43          6           0        4.447315   -4.591470   -0.626492
     44          8           0        3.962967   -4.244060   -1.660799
     45          8           0        4.288323   -5.886397   -0.195771
     46          6           0        3.634771   -6.961063   -1.087283
     47          6           0       -1.630052   -4.048286   -0.552242
     48          6           0       -2.954525   -3.194238   -0.671360
     49          6           0       -3.974244   -3.511514   -1.485491
     50          6           0       -4.189564   -4.666802   -2.379786
     51          6           0       -5.002845   -2.360855   -1.481114
     52          6           0       -6.247605   -2.616870   -0.554931
     53          6           0       -6.275953   -1.703285    0.749124
     54          6           0       -7.335590   -0.700857    0.673710
     55          6           0       -7.084987    0.542602    1.511126
     56          6           0       -8.666847   -1.270372    1.182285
     57          6           0       -9.836197   -0.618643    0.438028
     58          6           0      -11.211076   -0.722829    1.107714
     59          6           0      -12.050861    0.659489    1.238120
     60          6           0      -12.419175    1.087406    2.694670
     61          6           0      -13.382128    0.454139    0.527175
     62          6           0      -13.931822    1.792877   -0.032976
     63          6           0      -15.327709    1.648485   -0.586752
     64          6           0      -16.078239    2.972029   -0.731453
     65          6           0      -17.607567    2.761242   -0.697880
     66          6           0      -15.601468    3.809616   -2.021954
     67          1           0        0.501485    1.458189   -0.440616
     68          1           0        5.682630    5.661579   -0.200911
     69          1           0        9.668804    0.604034   -0.155511
     70          1           0        2.109874   -3.191205   -0.231587
     71          1           0        0.361099   -1.098621    0.460027
     72          1           0        0.497310   -0.620418   -2.181302
     73          1           0       -0.404747   -1.812023   -1.426484
     74          1           0        1.306867   -2.239996   -2.112823
     75          1           0        1.575789   -1.639902    2.336230
     76          1           0        2.934114   -2.869590    2.445930
     77          1           0        0.322441   -3.407109    2.927873
     78          1           0        1.558346   -4.564913    2.532318
     79          1           0       -0.108603    4.970674   -0.910159
     80          1           0       -0.172901    4.076378    0.667148
     81          1           0       -0.314153    3.215239   -0.731809
     82          1           0        1.492913    8.030895    0.328999
     83          1           0        0.661527    6.512398    0.617274
     84          1           0        0.821408    7.051777   -1.037487
     85          1           0        8.305310    5.156887    0.668945
     86          1           0        9.540923    3.286148   -0.959111
     87          1           0        9.005995    6.200897   -1.208245
     88          1           0        7.399615    5.678354   -1.934743
     89          1           0        8.899790    4.909662   -2.317390
     90          1           0       10.277000    2.404557    1.146508
     91          1           0        9.203691    3.608294    2.032820
     92          1           0       10.803809    4.935908    0.043936
     93          1           0       12.032517    4.055762    0.874232
     94          1           0       11.169965    5.127346    1.829413
     95          1           0       10.075651   -2.520672   -0.900172
     96          1           0        9.869255   -3.105039    0.724301
     97          1           0       10.454690   -1.350844    0.429319
     98          1           0        4.822091   -4.161202    1.365383
     99          1           0        4.453262   -7.483984   -1.581559
    100          1           0        2.997673   -6.714876   -1.936569
    101          1           0        3.147867   -7.685771   -0.434804
    102          1           0       -1.987404   -5.050844   -0.315436
    103          1           0       -1.161579   -4.041465   -1.536305
    104          1           0       -3.099410   -2.287426   -0.084918
    105          1           0       -4.949141   -4.443853   -3.128953
    106          1           0       -4.490860   -5.484122   -1.724772
    107          1           0       -3.231001   -4.882929   -2.851170
    108          1           0       -5.400662   -2.394921   -2.494560
    109          1           0       -4.550554   -1.375420   -1.367122
    110          1           0       -6.170009   -3.686963   -0.362908
    111          1           0       -7.061569   -2.458314   -1.263792
    112          1           0       -5.308726   -1.257757    0.980788
    113          1           0       -6.462184   -2.398127    1.568481
    114          1           0       -7.387449   -0.304259   -0.340266
    115          1           0       -7.856318    0.703388    2.264349
    116          1           0       -7.161494    1.408227    0.853054
    117          1           0       -6.122019    0.517203    2.019997
    118          1           0       -8.800947   -1.184040    2.260337
    119          1           0       -8.719995   -2.294509    0.812551
    120          1           0      -10.095270   -1.151884   -0.476361
    121          1           0       -9.590240    0.421636    0.223066
    122          1           0      -11.148130   -1.138347    2.113022
    123          1           0      -11.780768   -1.464308    0.547078
    124          1           0      -11.469212    1.497322    0.853089
    125          1           0      -13.460569    1.317971    2.920593
    126          1           0      -11.901515    1.945456    3.121887
    127          1           0      -12.063320    0.393768    3.456004
    128          1           0      -14.116443   -0.216167    0.973798
    129          1           0      -13.135524   -0.002726   -0.431610
    130          1           0      -13.298563    2.253340   -0.790670
    131          1           0      -13.995897    2.623718    0.669907
    132          1           0      -15.891519    1.025020    0.108169
    133          1           0      -15.278515    1.115788   -1.536521
    134          1           0      -15.829629    3.552252    0.156989
    135          1           0      -18.120782    3.249218   -1.526766
    136          1           0      -18.117722    3.114118    0.198551
    137          1           0      -17.899171    1.711483   -0.743285
    138          1           0      -16.195401    3.704087   -2.928813
    139          1           0      -14.526751    3.656143   -2.117408
    140          1           0      -15.762754    4.853038   -1.748927
 ---------------------------------------------------------------------

 SCF Done:  E(RB-LYP) =  -3007.35607355     A.U. after   21 cycles

 Excitation energies and oscillator strengths:

 Excited State   1:      Singlet-A      1.7502 eV  708.41 nm  f=0.1751  <S**2>=0.000
     243 -> 247        0.14892
     244 -> 247        0.39551
     245 -> 248       -0.15115
     246 -> 247        0.55409
     246 <- 247       -0.12422
 This state for optimization and/or second-order correction.
 Total Energy, E(TD-HF/TD-DFT) =  -3007.29175555
 Copying the excited state density for this state as the 1-particle RhoCI density.

 Excited State   2:      Singlet-A      1.7726 eV  699.44 nm  f=0.0922  <S**2>=0.000
     243 -> 247       -0.13006
     244 -> 247        0.58470
     245 -> 248        0.10574
     246 -> 247       -0.36735

 Excited State   3:      Singlet-A      1.8324 eV  676.62 nm  f=0.0381  <S**2>=0.000
     243 -> 247        0.65693
     245 -> 247        0.16055
     246 -> 247       -0.19251

 Excited State   4:      Singlet-A      2.0067 eV  617.87 nm  f=0.0784  <S**2>=0.000
     243 -> 247       -0.16394
     245 -> 247        0.62750
     246 -> 248        0.24508

 Excited State   5:      Singlet-A      2.3178 eV  534.91 nm  f=0.0001  <S**2>=0.000
     241 -> 247        0.70552

 The electronic state is 1-A.
 Alpha  occ. eigenvalues --  -46.27258 -18.83249 -18.80637 -18.77879 -18.75872
 Alpha  occ. eigenvalues --  -18.75138 -18.74853 -14.03387 -14.02865 -14.01221
 Alpha  occ. eigenvalues --  -14.00896 -10.05081 -10.03230  -9.99367  -9.99007
 Alpha  occ. eigenvalues --   -9.98678  -9.97347  -9.96842  -9.96599  -9.96346
 Alpha  occ. eigenvalues --   -9.96266  -9.96013  -9.95881  -9.95506  -9.94853
 Alpha  occ. eigenvalues --   -9.94564  -9.94256  -9.94181  -9.94083  -9.94034
 Alpha  occ. eigenvalues --   -9.94014  -9.93881  -9.93531  -9.93518  -9.93369
 Alpha  occ. eigenvalues --   -9.93245  -9.93202  -9.92873  -9.92872  -9.92694
 Alpha  occ. eigenvalues --   -9.92656  -9.92563  -9.92291  -9.92255  -9.92201
 Alpha  occ. eigenvalues --   -9.92180  -9.92176  -9.92124  -9.92013  -9.92001
 Alpha  occ. eigenvalues --   -9.91900  -9.91794  -9.91536  -9.91415  -9.91307
 Alpha  occ. eigenvalues --   -9.91200  -9.91177  -9.91159  -9.91065  -9.91027
 Alpha  occ. eigenvalues --   -9.90965  -9.90800  -9.90689  -9.90622  -9.90541
 Alpha  occ. eigenvalues --   -9.90396  -2.91788  -1.72226  -1.71670  -1.71493
 Alpha  occ. eigenvalues --   -0.97682  -0.96763  -0.90881  -0.90146  -0.89899
 Alpha  occ. eigenvalues --   -0.88330  -0.86411  -0.85641  -0.84693  -0.83910
 Alpha  occ. eigenvalues --   -0.76077  -0.74503  -0.73546  -0.73139  -0.73023
 Alpha  occ. eigenvalues --   -0.72657  -0.70963  -0.70646  -0.70487  -0.69740
 Alpha  occ. eigenvalues --   -0.69101  -0.68559  -0.68012  -0.67084  -0.66920
 Alpha  occ. eigenvalues --   -0.66248  -0.65749  -0.65055  -0.64551  -0.64470
 Alpha  occ. eigenvalues --   -0.63695  -0.62817  -0.61982  -0.61822  -0.61344
 Alpha  occ. eigenvalues --   -0.60828  -0.59953  -0.59840  -0.59778  -0.59053
 Alpha  occ. eigenvalues --   -0.58617  -0.57908  -0.56550  -0.56222  -0.54797
 Alpha  occ. eigenvalues --   -0.54403  -0.53535  -0.52532  -0.52242  -0.51345
 Alpha  occ. eigenvalues --   -0.50863  -0.50726  -0.50532  -0.50291  -0.50089
 Alpha  occ. eigenvalues --   -0.49960  -0.49566  -0.48646  -0.47679  -0.46545
 Alpha  occ. eigenvalues --   -0.46324  -0.45710  -0.45540  -0.45085  -0.44300
 Alpha  occ. eigenvalues --   -0.44001  -0.43512  -0.42891  -0.42740  -0.42208
 Alpha  occ. eigenvalues --   -0.42045  -0.41991  -0.41553  -0.41376  -0.41203
 Alpha  occ. eigenvalues --   -0.41098  -0.40866  -0.40287  -0.40192  -0.39768
 Alpha  occ. eigenvalues --   -0.39600  -0.39300  -0.39273  -0.39177  -0.39032
 Alpha  occ. eigenvalues --   -0.38792  -0.38640  -0.38539  -0.38495  -0.38251
 Alpha  occ. eigenvalues --   -0.37910  -0.37867  -0.37413  -0.37326  -0.37108
 Alpha  occ. eigenvalues --   -0.36951  -0.36831  -0.36558  -0.36280  -0.36216
 Alpha  occ. eigenvalues --   -0.36074  -0.35881  -0.35790  -0.35672  -0.35547
 Alpha  occ. eigenvalues --   -0.35427  -0.35318  -0.35272  -0.34927  -0.34743
 Alpha  occ. eigenvalues --   -0.34581  -0.34278  -0.34164  -0.33930  -0.33821
 Alpha  occ. eigenvalues --   -0.33574  -0.33465  -0.33384  -0.33168  -0.33012
 Alpha  occ. eigenvalues --   -0.32922  -0.32738  -0.32676  -0.32560  -0.32184
 Alpha  occ. eigenvalues --   -0.32134  -0.32056  -0.31944  -0.31574  -0.31393
 Alpha  occ. eigenvalues --   -0.31272  -0.31099  -0.30997  -0.30881  -0.30687
 Alpha  occ. eigenvalues --   -0.30411  -0.30294  -0.30064  -0.29979  -0.29820
 Alpha  occ. eigenvalues --   -0.29700  -0.29641  -0.29618  -0.29257  -0.29103
 Alpha  occ. eigenvalues --   -0.28886  -0.28363  -0.27883  -0.27708  -0.27359
 Alpha  occ. eigenvalues --   -0.27048  -0.26773  -0.26665  -0.26593  -0.26399
 Alpha  occ. eigenvalues --   -0.26380  -0.26205  -0.25950  -0.25839  -0.25763
 Alpha  occ. eigenvalues --   -0.25575  -0.25432  -0.23818  -0.23646  -0.23561
 Alpha  occ. eigenvalues --   -0.23317  -0.22594  -0.21884  -0.21201  -0.20995
 Alpha  occ. eigenvalues --   -0.20167  -0.19871  -0.18253  -0.18075  -0.17296
 Alpha  occ. eigenvalues --   -0.15725
 Alpha virt. eigenvalues --   -0.11649  -0.06902  -0.06275  -0.04656  -0.04317
 Alpha virt. eigenvalues --   -0.02199  -0.01948  -0.01720  -0.01415   0.00361
 Alpha virt. eigenvalues --    0.01233   0.01633   0.02164   0.02571   0.02776

 Mulliken charges:
               1
     1  Mg   0.689469
     2  C    0.037299
     3  C   -0.056101
     4  C    0.000695
     5  C   -0.088672
     6  N   -0.167839
     7  C   -0.066194
     8  C   -0.053835
     9  C   -0.040514
    10  C   -0.002953
    11  C    0.124819
    12  C    0.183255
    13  C    0.136843
    14  C    0.089949
    15  O   -0.196053
    16  O   -0.294055
    17  N   -0.337582
    18  C    0.159196
    19  C   -0.145636
    20  C    0.054833
    21  C    0.100778
    22  C    0.164546
    23  C   -0.090418
    24  O   -0.161772
    25  C    0.104983
    26  N   -0.277537
    27  C    0.005291
    28  C    0.029553
    29  C   -0.002778
    30  C    0.077199
    31  C    0.127273
    32  C    0.121434
    33  C    0.082271
    34  N   -0.244083
    35  C    0.072010
    36  C   -0.220245
    37  C    0.162308
    38  C    0.056922
    39  C    0.188669
    40  C   -0.103324
    41  O   -0.160190
    42  C    0.090107
    43  C    0.100661
    44  O   -0.161805
    45  O   -0.291267
    46  C    0.220689
    47  C    0.300651
    48  C   -0.106846
    49  C   -0.219355
    50  C    0.188106
    51  C    0.098606
    52  C    0.085217
    53  C    0.161577
    54  C   -0.098209
    55  C    0.122456
    56  C    0.133167
    57  C    0.041592
    58  C    0.108352
    59  C   -0.017200
    60  C    0.085591
    61  C    0.109760
    62  C    0.039531
    63  C    0.096306
    64  C   -0.064902
    65  C    0.107412
    66  C    0.091740
    67  H   -0.066160
    68  H   -0.040687
    69  H   -0.052877
    70  H    0.026931
    71  H   -0.031054
    72  H   -0.019790
    73  H    0.000369
    74  H    0.025889
    75  H   -0.012176
    76  H   -0.008236
    77  H   -0.011589
    78  H   -0.004637
    79  H    0.001337
    80  H    0.002027
    81  H   -0.025084
    82  H   -0.012483
    83  H   -0.009529
    84  H    0.021575
    85  H   -0.021548
    86  H   -0.037768
    87  H   -0.002359
    88  H   -0.000074
    89  H   -0.015970
    90  H   -0.033712
    91  H   -0.013661
    92  H   -0.012720
    93  H   -0.014347
    94  H   -0.005456
    95  H    0.010559
    96  H    0.014561
    97  H    0.003329
    98  H    0.005080
    99  H    0.009014
   100  H    0.024849
   101  H    0.025770
   102  H    0.008804
   103  H    0.024149
   104  H   -0.028263
   105  H   -0.007446
   106  H    0.016710
   107  H    0.003753
   108  H   -0.052563
   109  H   -0.025259
   110  H   -0.037552
   111  H   -0.021691
   112  H   -0.041307
   113  H   -0.039671
   114  H   -0.040367
   115  H   -0.022418
   116  H   -0.019705
   117  H   -0.024455
   118  H   -0.018409
   119  H   -0.043747
   120  H   -0.026067
   121  H   -0.030732
   122  H   -0.044407
   123  H   -0.037438
   124  H   -0.031394
   125  H   -0.010206
   126  H   -0.035787
   127  H   -0.035233
   128  H   -0.018548
   129  H   -0.044321
   130  H   -0.035844
   131  H   -0.052831
   132  H   -0.041469
   133  H   -0.035934
   134  H   -0.036857
   135  H   -0.028321
   136  H   -0.020807
   137  H   -0.024398
   138  H   -0.004255
   139  H   -0.014514
   140  H   -0.022323
 Sum of Mulliken charges =  -0.00000

 Dipole moment (field-independent basis, Debye):
    X=             -3.6587    Y=             -0.2105    Z=              0.8337  Tot=              3.7584
 Quadrupole moment (field-independent basis, Debye-Ang):
   XX=           -386.3205   YY=           -441.1475   ZZ=           -400.6469
   XY=             24.1254   XZ=              7.0524   YZ=              2.5235

 Normal termination of Gaussian 16 at Wed Apr 27 14:42:34 2022.
