 Gaussian 16, Revision A.03,
 Gaussian 16:  ES64L-G16RevA.03 25-Dec-2016

 -----------------------------------
 #p cam-b3lyp/Def2SVP td=(nstates=5)
 -----------------------------------

 --------------------------------------------------------
 step_1201_chromophore_21 TDDFT with cam-b3lyp functional
 --------------------------------------------------------
 Symbolic Z-matrix:
 Charge =  0 Multiplicity = 1

                         Standard orientation:
 ---------------------------------------------------------------------
 Center     Atomic      Atomic             Coordinates (Angstroms)
 Number     Number       Type             X           Y           Z
 ---------------------------------------------------------------------
      1         12           0        5.091774    1.323732    0.100804
      2          6           0        4.847671   -2.267269    0.249310
      3          6           0        1.579756    1.360568   -0.293700
      4          6           0        5.451744    4.594722   -0.217628
      5          6           0        8.612659    0.847074   -0.019526
      6          7           0        3.409442   -0.328329   -0.067703
      7          6           0        3.568629   -1.665462    0.207039
      8          6           0        2.286207   -2.347134    0.436340
      9          6           0        1.233918   -1.267132   -0.170748
     10          6           0        2.087874   -0.043062   -0.165649
     11          6           0        0.634749   -1.541343   -1.614631
     12          6           0        2.025974   -2.547615    1.935979
     13          6           0        1.004361   -3.714261    2.134956
     14          6           0        0.223346   -4.308595    0.963893
     15          8           0        0.475389   -5.398376    0.447344
     16          8           0       -0.800053   -3.464954    0.530586
     17          7           0        3.696398    2.806686   -0.227940
     18          6           0        2.320081    2.607166   -0.332676
     19          6           0        1.733265    3.889411   -0.358494
     20          6           0        2.786394    4.883284   -0.236006
     21          6           0        4.031828    4.153759   -0.209216
     22          6           0        0.211566    4.090332   -0.352483
     23          6           0        2.695725    6.368319   -0.051861
     24          8           0        3.659794    7.112288    0.057333
     25          6           0        1.327754    7.030917   -0.072452
     26          7           0        6.750325    2.547167    0.024477
     27          6           0        6.620232    3.917425   -0.164905
     28          6           0        8.098432    4.563880   -0.221743
     29          6           0        8.977453    3.331113   -0.027772
     30          6           0        8.079824    2.160249    0.036720
     31          6           0        8.353140    5.378543   -1.498886
     32          6           0        9.887350    3.420400    1.205168
     33          6           0       11.020761    4.444480    0.991977
     34          7           0        6.483314   -0.306107    0.184093
     35          6           0        7.841182   -0.353108    0.013040
     36          6           0        8.368622   -1.737230    0.104993
     37          6           0        7.221449   -2.485477    0.264498
     38          6           0        6.085745   -1.619892    0.177054
     39          6           0        9.847349   -2.200079    0.116433
     40          6           0        6.662365   -3.783259    0.365287
     41          8           0        7.232705   -4.887145    0.253209
     42          6           0        5.101467   -3.720720    0.407478
     43          6           0        4.447315   -4.591470   -0.626492
     44          8           0        3.962967   -4.244060   -1.660799
     45          8           0        4.288323   -5.886397   -0.195771
     46          6           0        3.634771   -6.961063   -1.087283
     47          6           0       -1.630052   -4.048286   -0.552242
     48          6           0       -2.954525   -3.194238   -0.671360
     49          6           0       -3.974244   -3.511514   -1.485491
     50          6           0       -4.189564   -4.666802   -2.379786
     51          6           0       -5.002845   -2.360855   -1.481114
     52          6           0       -6.247605   -2.616870   -0.554931
     53          6           0       -6.275953   -1.703285    0.749124
     54          6           0       -7.335590   -0.700857    0.673710
     55          6           0       -7.084987    0.542602    1.511126
     56          6           0       -8.666847   -1.270372    1.182285
     57          6           0       -9.836197   -0.618643    0.438028
     58          6           0      -11.211076   -0.722829    1.107714
     59          6           0      -12.050861    0.659489    1.238120
     60          6           0      -12.419175    1.087406    2.694670
     61          6           0      -13.382128    0.454139    0.527175
     62          6           0      -13.931822    1.792877   -0.032976
     63          6           0      -15.327709    1.648485   -0.586752
     64          6           0      -16.078239    2.972029   -0.731453
     65          6           0      -17.607567    2.761242   -0.697880
     66          6           0      -15.601468    3.809616   -2.021954
     67          1           0        0.501485    1.458189   -0.440616
     68          1           0        5.682630    5.661579   -0.200911
     69          1           0        9.668804    0.604034   -0.155511
     70          1           0        2.109874   -3.191205   -0.231587
     71          1           0        0.361099   -1.098621    0.460027
     72          1           0        0.497310   -0.620418   -2.181302
     73          1           0       -0.404747   -1.812023   -1.426484
     74          1           0        1.306867   -2.239996   -2.112823
     75          1           0        1.575789   -1.639902    2.336230
     76          1           0        2.934114   -2.869590    2.445930
     77          1           0        0.322441   -3.407109    2.927873
     78          1           0        1.558346   -4.564913    2.532318
     79          1           0       -0.108603    4.970674   -0.910159
     80          1           0       -0.172901    4.076378    0.667148
     81          1           0       -0.314153    3.215239   -0.731809
     82          1           0        1.492913    8.030895    0.328999
     83          1           0        0.661527    6.512398    0.617274
     84          1           0        0.821408    7.051777   -1.037487
     85          1           0        8.305310    5.156887    0.668945
     86          1           0        9.540923    3.286148   -0.959111
     87          1           0        9.005995    6.200897   -1.208245
     88          1           0        7.399615    5.678354   -1.934743
     89          1           0        8.899790    4.909662   -2.317390
     90          1           0       10.277000    2.404557    1.146508
     91          1           0        9.203691    3.608294    2.032820
     92          1           0       10.803809    4.935908    0.043936
     93          1           0       12.032517    4.055762    0.874232
     94          1           0       11.169965    5.127346    1.829413
     95          1           0       10.075651   -2.520672   -0.900172
     96          1           0        9.869255   -3.105039    0.724301
     97          1           0       10.454690   -1.350844    0.429319
     98          1           0        4.822091   -4.161202    1.365383
     99          1           0        4.453262   -7.483984   -1.581559
    100          1           0        2.997673   -6.714876   -1.936569
    101          1           0        3.147867   -7.685771   -0.434804
    102          1           0       -1.987404   -5.050844   -0.315436
    103          1           0       -1.161579   -4.041465   -1.536305
    104          1           0       -3.099410   -2.287426   -0.084918
    105          1           0       -4.949141   -4.443853   -3.128953
    106          1           0       -4.490860   -5.484122   -1.724772
    107          1           0       -3.231001   -4.882929   -2.851170
    108          1           0       -5.400662   -2.394921   -2.494560
    109          1           0       -4.550554   -1.375420   -1.367122
    110          1           0       -6.170009   -3.686963   -0.362908
    111          1           0       -7.061569   -2.458314   -1.263792
    112          1           0       -5.308726   -1.257757    0.980788
    113          1           0       -6.462184   -2.398127    1.568481
    114          1           0       -7.387449   -0.304259   -0.340266
    115          1           0       -7.856318    0.703388    2.264349
    116          1           0       -7.161494    1.408227    0.853054
    117          1           0       -6.122019    0.517203    2.019997
    118          1           0       -8.800947   -1.184040    2.260337
    119          1           0       -8.719995   -2.294509    0.812551
    120          1           0      -10.095270   -1.151884   -0.476361
    121          1           0       -9.590240    0.421636    0.223066
    122          1           0      -11.148130   -1.138347    2.113022
    123          1           0      -11.780768   -1.464308    0.547078
    124          1           0      -11.469212    1.497322    0.853089
    125          1           0      -13.460569    1.317971    2.920593
    126          1           0      -11.901515    1.945456    3.121887
    127          1           0      -12.063320    0.393768    3.456004
    128          1           0      -14.116443   -0.216167    0.973798
    129          1           0      -13.135524   -0.002726   -0.431610
    130          1           0      -13.298563    2.253340   -0.790670
    131          1           0      -13.995897    2.623718    0.669907
    132          1           0      -15.891519    1.025020    0.108169
    133          1           0      -15.278515    1.115788   -1.536521
    134          1           0      -15.829629    3.552252    0.156989
    135          1           0      -18.120782    3.249218   -1.526766
    136          1           0      -18.117722    3.114118    0.198551
    137          1           0      -17.899171    1.711483   -0.743285
    138          1           0      -16.195401    3.704087   -2.928813
    139          1           0      -14.526751    3.656143   -2.117408
    140          1           0      -15.762754    4.853038   -1.748927
 ---------------------------------------------------------------------

 SCF Done:  E(RCAM-B3LYP) =  -3007.14416470     A.U. after   17 cycles

 Excitation energies and oscillator strengths:

 Excited State   1:      Singlet-A      1.6596 eV  747.07 nm  f=0.3789  <S**2>=0.000
     245 -> 248       -0.17608
     246 -> 247        0.68640
     245 <- 248       -0.10704
 This state for optimization and/or second-order correction.
 Total Energy, E(TD-HF/TD-DFT) =  -3007.08317528
 Copying the excited state density for this state as the 1-particle RhoCI density.

 Excited State   2:      Singlet-A      2.2286 eV  556.34 nm  f=0.1215  <S**2>=0.000
     245 -> 247        0.64098
     246 -> 248        0.28440

 Excited State   3:      Singlet-A      3.2219 eV  384.82 nm  f=0.0020  <S**2>=0.000
     240 -> 247       -0.10436
     241 -> 247       -0.21514
     244 -> 247        0.62525

 Excited State   4:      Singlet-A      3.2763 eV  378.43 nm  f=0.0050  <S**2>=0.000
     239 -> 247        0.17830
     239 -> 249       -0.13931
     240 -> 247        0.33991
     240 -> 249       -0.22154
     241 -> 247        0.33830
     241 -> 249       -0.15299
     244 -> 247        0.27234
     246 -> 248       -0.14520

 Excited State   5:      Singlet-A      3.4871 eV  355.55 nm  f=0.6108  <S**2>=0.000
     239 -> 247        0.17369
     240 -> 247        0.16678
     241 -> 247       -0.14527
     245 -> 247       -0.24741
     246 -> 248        0.58087
     245 <- 247        0.10093

 The electronic state is 1-A.
 Alpha  occ. eigenvalues --  -46.88789 -19.26175 -19.23564 -19.20941 -19.19083
 Alpha  occ. eigenvalues --  -19.18798 -19.17746 -14.42531 -14.41454 -14.39864
 Alpha  occ. eigenvalues --  -14.39142 -10.40485 -10.38749 -10.35084 -10.33902
 Alpha  occ. eigenvalues --  -10.32815 -10.31476 -10.31311 -10.31121 -10.31045
 Alpha  occ. eigenvalues --  -10.30654 -10.30471 -10.30240 -10.29490 -10.29373
 Alpha  occ. eigenvalues --  -10.29181 -10.28652 -10.28627 -10.28543 -10.28121
 Alpha  occ. eigenvalues --  -10.28108 -10.28093 -10.27829 -10.27756 -10.27239
 Alpha  occ. eigenvalues --  -10.27219 -10.26885 -10.26849 -10.26802 -10.26608
 Alpha  occ. eigenvalues --  -10.26365 -10.26335 -10.26101 -10.26071 -10.26040
 Alpha  occ. eigenvalues --  -10.25897 -10.25890 -10.25870 -10.25865 -10.25864
 Alpha  occ. eigenvalues --  -10.25644 -10.25639 -10.25351 -10.25174 -10.25013
 Alpha  occ. eigenvalues --  -10.24839 -10.24825 -10.24824 -10.24803 -10.24783
 Alpha  occ. eigenvalues --  -10.24663 -10.24353 -10.24353 -10.24219 -10.24146
 Alpha  occ. eigenvalues --  -10.24022  -3.17223  -1.92137  -1.91675  -1.91517
 Alpha  occ. eigenvalues --   -1.16130  -1.15452  -1.08993  -1.08673  -1.08014
 Alpha  occ. eigenvalues --   -1.06237  -1.04327  -1.03450  -1.02182  -1.01147
 Alpha  occ. eigenvalues --   -0.93542  -0.91397  -0.90381  -0.89954  -0.89703
 Alpha  occ. eigenvalues --   -0.89425  -0.87541  -0.87264  -0.87218  -0.86237
 Alpha  occ. eigenvalues --   -0.85474  -0.84877  -0.84251  -0.83309  -0.83005
 Alpha  occ. eigenvalues --   -0.82285  -0.81748  -0.80868  -0.80370  -0.80297
 Alpha  occ. eigenvalues --   -0.79564  -0.78599  -0.77522  -0.77327  -0.76749
 Alpha  occ. eigenvalues --   -0.76298  -0.75306  -0.75143  -0.75079  -0.74232
 Alpha  occ. eigenvalues --   -0.73727  -0.73015  -0.71406  -0.71089  -0.69468
 Alpha  occ. eigenvalues --   -0.69076  -0.68095  -0.66876  -0.66568  -0.65580
 Alpha  occ. eigenvalues --   -0.65034  -0.64705  -0.64528  -0.64342  -0.63948
 Alpha  occ. eigenvalues --   -0.63885  -0.63489  -0.62532  -0.61427  -0.60299
 Alpha  occ. eigenvalues --   -0.59873  -0.59131  -0.58828  -0.58715  -0.57805
 Alpha  occ. eigenvalues --   -0.57419  -0.56747  -0.56174  -0.55923  -0.55423
 Alpha  occ. eigenvalues --   -0.55169  -0.54802  -0.54529  -0.54320  -0.53950
 Alpha  occ. eigenvalues --   -0.53860  -0.53631  -0.53340  -0.52916  -0.52620
 Alpha  occ. eigenvalues --   -0.52305  -0.51960  -0.51718  -0.51659  -0.51596
 Alpha  occ. eigenvalues --   -0.51551  -0.51205  -0.51150  -0.51038  -0.50826
 Alpha  occ. eigenvalues --   -0.50714  -0.50076  -0.49712  -0.49569  -0.49371
 Alpha  occ. eigenvalues --   -0.49225  -0.49061  -0.48670  -0.48575  -0.48446
 Alpha  occ. eigenvalues --   -0.48269  -0.48180  -0.48035  -0.47726  -0.47665
 Alpha  occ. eigenvalues --   -0.47500  -0.47472  -0.47238  -0.47130  -0.46800
 Alpha  occ. eigenvalues --   -0.46345  -0.46239  -0.46168  -0.45758  -0.45638
 Alpha  occ. eigenvalues --   -0.45353  -0.45177  -0.45028  -0.44976  -0.44815
 Alpha  occ. eigenvalues --   -0.44521  -0.44513  -0.44431  -0.44288  -0.43778
 Alpha  occ. eigenvalues --   -0.43679  -0.43626  -0.43478  -0.43236  -0.43101
 Alpha  occ. eigenvalues --   -0.42796  -0.42599  -0.42544  -0.42403  -0.42065
 Alpha  occ. eigenvalues --   -0.41647  -0.41575  -0.41482  -0.41355  -0.41162
 Alpha  occ. eigenvalues --   -0.41076  -0.40795  -0.40753  -0.40713  -0.40665
 Alpha  occ. eigenvalues --   -0.39886  -0.39374  -0.38772  -0.38588  -0.38304
 Alpha  occ. eigenvalues --   -0.38095  -0.37793  -0.37649  -0.37450  -0.37416
 Alpha  occ. eigenvalues --   -0.37089  -0.37048  -0.36757  -0.36571  -0.36466
 Alpha  occ. eigenvalues --   -0.36348  -0.36049  -0.35490  -0.34887  -0.34447
 Alpha  occ. eigenvalues --   -0.33886  -0.33756  -0.32682  -0.31247  -0.30995
 Alpha  occ. eigenvalues --   -0.30317  -0.30095  -0.29821  -0.28856  -0.24071
 Alpha  occ. eigenvalues --   -0.21025
 Alpha virt. eigenvalues --   -0.08856  -0.01764   0.00125   0.02336   0.03164
 Alpha virt. eigenvalues --    0.03453   0.05343   0.05459   0.05696   0.06768
 Alpha virt. eigenvalues --    0.08001   0.08538   0.08719   0.08963   0.09139

 Mulliken charges:
               1
     1  Mg   0.820332
     2  C    0.005890
     3  C   -0.057382
     4  C   -0.024093
     5  C   -0.103909
     6  N   -0.226659
     7  C   -0.018704
     8  C   -0.121969
     9  C   -0.081312
    10  C    0.005771
    11  C    0.071976
    12  C    0.133348
    13  C    0.074839
    14  C    0.161330
    15  O   -0.235174
    16  O   -0.356505
    17  N   -0.424898
    18  C    0.159431
    19  C   -0.151450
    20  C   -0.024005
    21  C    0.129495
    22  C    0.105866
    23  C   -0.010873
    24  O   -0.205091
    25  C    0.025334
    26  N   -0.357880
    27  C    0.026957
    28  C   -0.020729
    29  C   -0.064498
    30  C    0.106332
    31  C    0.066224
    32  C    0.062332
    33  C    0.021301
    34  N   -0.328634
    35  C    0.084302
    36  C   -0.208571
    37  C    0.077715
    38  C    0.092019
    39  C    0.141568
    40  C   -0.000989
    41  O   -0.193777
    42  C    0.012951
    43  C    0.192156
    44  O   -0.199131
    45  O   -0.358101
    46  C    0.186291
    47  C    0.270682
    48  C   -0.126596
    49  C   -0.235478
    50  C    0.121629
    51  C    0.038467
    52  C    0.031788
    53  C    0.101433
    54  C   -0.154642
    55  C    0.063814
    56  C    0.072222
    57  C   -0.005596
    58  C    0.059183
    59  C   -0.076614
    60  C    0.028224
    61  C    0.046928
    62  C   -0.006393
    63  C    0.041160
    64  C   -0.127483
    65  C    0.046055
    66  C    0.036338
    67  H   -0.030338
    68  H   -0.002725
    69  H   -0.019018
    70  H    0.058706
    71  H    0.004843
    72  H    0.007328
    73  H    0.020579
    74  H    0.047688
    75  H    0.019797
    76  H    0.021095
    77  H    0.022369
    78  H    0.027858
    79  H    0.025874
    80  H    0.028397
    81  H    0.001116
    82  H    0.022011
    83  H    0.017720
    84  H    0.047313
    85  H    0.013241
    86  H   -0.000390
    87  H    0.020254
    88  H    0.026776
    89  H    0.009258
    90  H   -0.004086
    91  H    0.015385
    92  H    0.007953
    93  H    0.011262
    94  H    0.019401
    95  H    0.038922
    96  H    0.042064
    97  H    0.026593
    98  H    0.047289
    99  H    0.030952
   100  H    0.049389
   101  H    0.048202
   102  H    0.037442
   103  H    0.047647
   104  H    0.003625
   105  H    0.018881
   106  H    0.040185
   107  H    0.027629
   108  H   -0.021732
   109  H    0.004843
   110  H   -0.008281
   111  H    0.005395
   112  H   -0.013264
   113  H   -0.008148
   114  H   -0.007054
   115  H    0.001657
   116  H    0.004295
   117  H    0.001036
   118  H    0.009751
   119  H   -0.014175
   120  H    0.001023
   121  H   -0.005619
   122  H   -0.016090
   123  H   -0.007441
   124  H    0.001253
   125  H    0.013646
   126  H   -0.010341
   127  H   -0.010410
   128  H    0.010839
   129  H   -0.014444
   130  H   -0.009517
   131  H   -0.025791
   132  H   -0.012549
   133  H   -0.007791
   134  H   -0.004281
   135  H   -0.003258
   136  H    0.004198
   137  H    0.000919
   138  H    0.018983
   139  H    0.007049
   140  H    0.002269
 Sum of Mulliken charges =  -0.00000

 Dipole moment (field-independent basis, Debye):
    X=             -3.6885    Y=             -0.6087    Z=              0.9820  Tot=              3.8652
 Quadrupole moment (field-independent basis, Debye-Ang):
   XX=           -380.4812   YY=           -439.9147   ZZ=           -400.3156
   XY=             20.6799   XZ=              7.6045   YZ=              2.6125

 Normal termination of Gaussian 16 at Wed Apr 27 13:49:59 2022.
