 Gaussian 16, Revision A.03,
 Gaussian 16:  ES64L-G16RevA.03 25-Dec-2016

 ---------------------------------
 #p PBE1PBE/Def2SVP td=(nstates=5)
 ---------------------------------

 ------------------------------------------------------
 step_1201_chromophore_21 TDDFT with PBE1PBE functional
 ------------------------------------------------------
 Symbolic Z-matrix:
 Charge =  0 Multiplicity = 1

                         Standard orientation:
 ---------------------------------------------------------------------
 Center     Atomic      Atomic             Coordinates (Angstroms)
 Number     Number       Type             X           Y           Z
 ---------------------------------------------------------------------
      1         12           0        5.091774    1.323732    0.100804
      2          6           0        4.847671   -2.267269    0.249310
      3          6           0        1.579756    1.360568   -0.293700
      4          6           0        5.451744    4.594722   -0.217628
      5          6           0        8.612659    0.847074   -0.019526
      6          7           0        3.409442   -0.328329   -0.067703
      7          6           0        3.568629   -1.665462    0.207039
      8          6           0        2.286207   -2.347134    0.436340
      9          6           0        1.233918   -1.267132   -0.170748
     10          6           0        2.087874   -0.043062   -0.165649
     11          6           0        0.634749   -1.541343   -1.614631
     12          6           0        2.025974   -2.547615    1.935979
     13          6           0        1.004361   -3.714261    2.134956
     14          6           0        0.223346   -4.308595    0.963893
     15          8           0        0.475389   -5.398376    0.447344
     16          8           0       -0.800053   -3.464954    0.530586
     17          7           0        3.696398    2.806686   -0.227940
     18          6           0        2.320081    2.607166   -0.332676
     19          6           0        1.733265    3.889411   -0.358494
     20          6           0        2.786394    4.883284   -0.236006
     21          6           0        4.031828    4.153759   -0.209216
     22          6           0        0.211566    4.090332   -0.352483
     23          6           0        2.695725    6.368319   -0.051861
     24          8           0        3.659794    7.112288    0.057333
     25          6           0        1.327754    7.030917   -0.072452
     26          7           0        6.750325    2.547167    0.024477
     27          6           0        6.620232    3.917425   -0.164905
     28          6           0        8.098432    4.563880   -0.221743
     29          6           0        8.977453    3.331113   -0.027772
     30          6           0        8.079824    2.160249    0.036720
     31          6           0        8.353140    5.378543   -1.498886
     32          6           0        9.887350    3.420400    1.205168
     33          6           0       11.020761    4.444480    0.991977
     34          7           0        6.483314   -0.306107    0.184093
     35          6           0        7.841182   -0.353108    0.013040
     36          6           0        8.368622   -1.737230    0.104993
     37          6           0        7.221449   -2.485477    0.264498
     38          6           0        6.085745   -1.619892    0.177054
     39          6           0        9.847349   -2.200079    0.116433
     40          6           0        6.662365   -3.783259    0.365287
     41          8           0        7.232705   -4.887145    0.253209
     42          6           0        5.101467   -3.720720    0.407478
     43          6           0        4.447315   -4.591470   -0.626492
     44          8           0        3.962967   -4.244060   -1.660799
     45          8           0        4.288323   -5.886397   -0.195771
     46          6           0        3.634771   -6.961063   -1.087283
     47          6           0       -1.630052   -4.048286   -0.552242
     48          6           0       -2.954525   -3.194238   -0.671360
     49          6           0       -3.974244   -3.511514   -1.485491
     50          6           0       -4.189564   -4.666802   -2.379786
     51          6           0       -5.002845   -2.360855   -1.481114
     52          6           0       -6.247605   -2.616870   -0.554931
     53          6           0       -6.275953   -1.703285    0.749124
     54          6           0       -7.335590   -0.700857    0.673710
     55          6           0       -7.084987    0.542602    1.511126
     56          6           0       -8.666847   -1.270372    1.182285
     57          6           0       -9.836197   -0.618643    0.438028
     58          6           0      -11.211076   -0.722829    1.107714
     59          6           0      -12.050861    0.659489    1.238120
     60          6           0      -12.419175    1.087406    2.694670
     61          6           0      -13.382128    0.454139    0.527175
     62          6           0      -13.931822    1.792877   -0.032976
     63          6           0      -15.327709    1.648485   -0.586752
     64          6           0      -16.078239    2.972029   -0.731453
     65          6           0      -17.607567    2.761242   -0.697880
     66          6           0      -15.601468    3.809616   -2.021954
     67          1           0        0.501485    1.458189   -0.440616
     68          1           0        5.682630    5.661579   -0.200911
     69          1           0        9.668804    0.604034   -0.155511
     70          1           0        2.109874   -3.191205   -0.231587
     71          1           0        0.361099   -1.098621    0.460027
     72          1           0        0.497310   -0.620418   -2.181302
     73          1           0       -0.404747   -1.812023   -1.426484
     74          1           0        1.306867   -2.239996   -2.112823
     75          1           0        1.575789   -1.639902    2.336230
     76          1           0        2.934114   -2.869590    2.445930
     77          1           0        0.322441   -3.407109    2.927873
     78          1           0        1.558346   -4.564913    2.532318
     79          1           0       -0.108603    4.970674   -0.910159
     80          1           0       -0.172901    4.076378    0.667148
     81          1           0       -0.314153    3.215239   -0.731809
     82          1           0        1.492913    8.030895    0.328999
     83          1           0        0.661527    6.512398    0.617274
     84          1           0        0.821408    7.051777   -1.037487
     85          1           0        8.305310    5.156887    0.668945
     86          1           0        9.540923    3.286148   -0.959111
     87          1           0        9.005995    6.200897   -1.208245
     88          1           0        7.399615    5.678354   -1.934743
     89          1           0        8.899790    4.909662   -2.317390
     90          1           0       10.277000    2.404557    1.146508
     91          1           0        9.203691    3.608294    2.032820
     92          1           0       10.803809    4.935908    0.043936
     93          1           0       12.032517    4.055762    0.874232
     94          1           0       11.169965    5.127346    1.829413
     95          1           0       10.075651   -2.520672   -0.900172
     96          1           0        9.869255   -3.105039    0.724301
     97          1           0       10.454690   -1.350844    0.429319
     98          1           0        4.822091   -4.161202    1.365383
     99          1           0        4.453262   -7.483984   -1.581559
    100          1           0        2.997673   -6.714876   -1.936569
    101          1           0        3.147867   -7.685771   -0.434804
    102          1           0       -1.987404   -5.050844   -0.315436
    103          1           0       -1.161579   -4.041465   -1.536305
    104          1           0       -3.099410   -2.287426   -0.084918
    105          1           0       -4.949141   -4.443853   -3.128953
    106          1           0       -4.490860   -5.484122   -1.724772
    107          1           0       -3.231001   -4.882929   -2.851170
    108          1           0       -5.400662   -2.394921   -2.494560
    109          1           0       -4.550554   -1.375420   -1.367122
    110          1           0       -6.170009   -3.686963   -0.362908
    111          1           0       -7.061569   -2.458314   -1.263792
    112          1           0       -5.308726   -1.257757    0.980788
    113          1           0       -6.462184   -2.398127    1.568481
    114          1           0       -7.387449   -0.304259   -0.340266
    115          1           0       -7.856318    0.703388    2.264349
    116          1           0       -7.161494    1.408227    0.853054
    117          1           0       -6.122019    0.517203    2.019997
    118          1           0       -8.800947   -1.184040    2.260337
    119          1           0       -8.719995   -2.294509    0.812551
    120          1           0      -10.095270   -1.151884   -0.476361
    121          1           0       -9.590240    0.421636    0.223066
    122          1           0      -11.148130   -1.138347    2.113022
    123          1           0      -11.780768   -1.464308    0.547078
    124          1           0      -11.469212    1.497322    0.853089
    125          1           0      -13.460569    1.317971    2.920593
    126          1           0      -11.901515    1.945456    3.121887
    127          1           0      -12.063320    0.393768    3.456004
    128          1           0      -14.116443   -0.216167    0.973798
    129          1           0      -13.135524   -0.002726   -0.431610
    130          1           0      -13.298563    2.253340   -0.790670
    131          1           0      -13.995897    2.623718    0.669907
    132          1           0      -15.891519    1.025020    0.108169
    133          1           0      -15.278515    1.115788   -1.536521
    134          1           0      -15.829629    3.552252    0.156989
    135          1           0      -18.120782    3.249218   -1.526766
    136          1           0      -18.117722    3.114118    0.198551
    137          1           0      -17.899171    1.711483   -0.743285
    138          1           0      -16.195401    3.704087   -2.928813
    139          1           0      -14.526751    3.656143   -2.117408
    140          1           0      -15.762754    4.853038   -1.748927
 ---------------------------------------------------------------------

 SCF Done:  E(RPBE1PBE) =  -3005.33233340     A.U. after   15 cycles

 Excitation energies and oscillator strengths:

 Excited State   1:      Singlet-A      1.8097 eV  685.11 nm  f=0.3628  <S**2>=0.000
     245 -> 248       -0.17214
     246 -> 247        0.69382
     246 <- 247       -0.11446
 This state for optimization and/or second-order correction.
 Total Energy, E(TD-HF/TD-DFT) =  -3005.26582850
 Copying the excited state density for this state as the 1-particle RhoCI density.

 Excited State   2:      Singlet-A      2.2143 eV  559.91 nm  f=0.1141  <S**2>=0.000
     245 -> 247        0.65036
     246 -> 248        0.26121

 Excited State   3:      Singlet-A      2.8321 eV  437.77 nm  f=0.0007  <S**2>=0.000
     241 -> 247        0.49606
     241 -> 249       -0.13884
     243 -> 247       -0.12975
     244 -> 247       -0.43724

 Excited State   4:      Singlet-A      2.8734 eV  431.50 nm  f=0.0031  <S**2>=0.000
     240 -> 247       -0.11428
     241 -> 247        0.38279
     241 -> 249       -0.10470
     243 -> 247       -0.11802
     244 -> 247        0.54258

 Excited State   5:      Singlet-A      2.9819 eV  415.79 nm  f=0.0003  <S**2>=0.000
     241 -> 247        0.16685
     243 -> 247        0.66020
     243 -> 249        0.10444

 The electronic state is 1-A.
 Alpha  occ. eigenvalues --  -46.92203 -19.26847 -19.24152 -19.21198 -19.19168
 Alpha  occ. eigenvalues --  -19.18766 -19.18155 -14.41875 -14.41159 -14.39402
 Alpha  occ. eigenvalues --  -14.38960 -10.37537 -10.35625 -10.31993 -10.31204
 Alpha  occ. eigenvalues --  -10.30254 -10.29038 -10.28870 -10.28656 -10.28635
 Alpha  occ. eigenvalues --  -10.28379 -10.28129 -10.28088 -10.27368 -10.27006
 Alpha  occ. eigenvalues --  -10.26630 -10.26251 -10.26135 -10.26073 -10.25917
 Alpha  occ. eigenvalues --  -10.25724 -10.25686 -10.25684 -10.25577 -10.25092
 Alpha  occ. eigenvalues --  -10.24590 -10.24513 -10.24488 -10.24270 -10.24192
 Alpha  occ. eigenvalues --  -10.24089 -10.24064 -10.23992 -10.23896 -10.23764
 Alpha  occ. eigenvalues --  -10.23657 -10.23571 -10.23506 -10.23426 -10.23275
 Alpha  occ. eigenvalues --  -10.23268 -10.23075 -10.22895 -10.22751 -10.22697
 Alpha  occ. eigenvalues --  -10.22404 -10.22403 -10.22375 -10.22246 -10.22213
 Alpha  occ. eigenvalues --  -10.22204 -10.21887 -10.21776 -10.21634 -10.21546
 Alpha  occ. eigenvalues --  -10.21531  -3.14220  -1.87075  -1.86590  -1.86436
 Alpha  occ. eigenvalues --   -1.10902  -1.10094  -1.03910  -1.03141  -1.02862
 Alpha  occ. eigenvalues --   -1.00978  -0.98832  -0.97982  -0.96844  -0.95970
 Alpha  occ. eigenvalues --   -0.87745  -0.85537  -0.84549  -0.84142  -0.84024
 Alpha  occ. eigenvalues --   -0.83526  -0.81883  -0.81501  -0.81324  -0.80553
 Alpha  occ. eigenvalues --   -0.79809  -0.79171  -0.78425  -0.77553  -0.77321
 Alpha  occ. eigenvalues --   -0.76492  -0.76030  -0.75089  -0.74661  -0.74454
 Alpha  occ. eigenvalues --   -0.73846  -0.72795  -0.71865  -0.71646  -0.70959
 Alpha  occ. eigenvalues --   -0.70548  -0.69429  -0.69383  -0.69248  -0.68455
 Alpha  occ. eigenvalues --   -0.68011  -0.67429  -0.65813  -0.65418  -0.63850
 Alpha  occ. eigenvalues --   -0.63465  -0.62330  -0.61312  -0.60954  -0.60064
 Alpha  occ. eigenvalues --   -0.59255  -0.59231  -0.58921  -0.58545  -0.58460
 Alpha  occ. eigenvalues --   -0.58333  -0.57731  -0.56739  -0.55933  -0.54706
 Alpha  occ. eigenvalues --   -0.54436  -0.53709  -0.53388  -0.53203  -0.52270
 Alpha  occ. eigenvalues --   -0.51974  -0.51260  -0.50655  -0.50420  -0.49834
 Alpha  occ. eigenvalues --   -0.49708  -0.49189  -0.49121  -0.48676  -0.48537
 Alpha  occ. eigenvalues --   -0.48372  -0.48152  -0.47857  -0.47445  -0.47158
 Alpha  occ. eigenvalues --   -0.46897  -0.46512  -0.46376  -0.46153  -0.46124
 Alpha  occ. eigenvalues --   -0.46098  -0.45682  -0.45643  -0.45580  -0.45319
 Alpha  occ. eigenvalues --   -0.45250  -0.44617  -0.44354  -0.44138  -0.43914
 Alpha  occ. eigenvalues --   -0.43884  -0.43658  -0.43327  -0.43235  -0.42959
 Alpha  occ. eigenvalues --   -0.42929  -0.42792  -0.42729  -0.42413  -0.42319
 Alpha  occ. eigenvalues --   -0.42175  -0.42073  -0.41870  -0.41754  -0.41454
 Alpha  occ. eigenvalues --   -0.41016  -0.40967  -0.40801  -0.40541  -0.40322
 Alpha  occ. eigenvalues --   -0.40102  -0.39928  -0.39772  -0.39709  -0.39477
 Alpha  occ. eigenvalues --   -0.39303  -0.39241  -0.39110  -0.39059  -0.38472
 Alpha  occ. eigenvalues --   -0.38455  -0.38289  -0.38217  -0.37996  -0.37869
 Alpha  occ. eigenvalues --   -0.37792  -0.37441  -0.37329  -0.37223  -0.36790
 Alpha  occ. eigenvalues --   -0.36442  -0.36393  -0.36222  -0.36193  -0.35980
 Alpha  occ. eigenvalues --   -0.35910  -0.35702  -0.35600  -0.35540  -0.35538
 Alpha  occ. eigenvalues --   -0.34680  -0.34338  -0.33591  -0.33543  -0.33176
 Alpha  occ. eigenvalues --   -0.32912  -0.32661  -0.32612  -0.32387  -0.32256
 Alpha  occ. eigenvalues --   -0.31951  -0.31930  -0.31810  -0.31527  -0.31463
 Alpha  occ. eigenvalues --   -0.31275  -0.30870  -0.30308  -0.29736  -0.29616
 Alpha  occ. eigenvalues --   -0.28916  -0.28647  -0.28107  -0.26768  -0.26182
 Alpha  occ. eigenvalues --   -0.25326  -0.25117  -0.25069  -0.24618  -0.20985
 Alpha  occ. eigenvalues --   -0.18655
 Alpha virt. eigenvalues --   -0.11290  -0.05271  -0.04030  -0.02084  -0.01170
 Alpha virt. eigenvalues --    0.00321   0.00984   0.01194   0.01325   0.03294
 Alpha virt. eigenvalues --    0.03871   0.04727   0.05204   0.05506   0.05765

 Mulliken charges:
               1
     1  Mg   0.968513
     2  C   -0.013384
     3  C   -0.055490
     4  C   -0.026619
     5  C   -0.087416
     6  N   -0.326778
     7  C    0.059955
     8  C   -0.207910
     9  C   -0.145859
    10  C    0.050966
    11  C    0.010422
    12  C    0.081564
    13  C    0.012615
    14  C    0.214870
    15  O   -0.266396
    16  O   -0.383809
    17  N   -0.540970
    18  C    0.189327
    19  C   -0.180226
    20  C   -0.080936
    21  C    0.172675
    22  C    0.043964
    23  C    0.043250
    24  O   -0.241314
    25  C   -0.048383
    26  N   -0.461833
    27  C    0.060760
    28  C   -0.095183
    29  C   -0.140656
    30  C    0.139602
    31  C    0.008549
    32  C   -0.007231
    33  C   -0.048763
    34  N   -0.445930
    35  C    0.098855
    36  C   -0.213561
    37  C    0.017447
    38  C    0.139199
    39  C    0.084369
    40  C    0.097627
    41  O   -0.239332
    42  C   -0.096989
    43  C    0.287472
    44  O   -0.236267
    45  O   -0.391166
    46  C    0.131499
    47  C    0.230313
    48  C   -0.137655
    49  C   -0.272950
    50  C    0.053642
    51  C   -0.028315
    52  C   -0.028278
    53  C    0.044862
    54  C   -0.243624
    55  C    0.010358
    56  C    0.007096
    57  C   -0.064591
    58  C    0.010839
    59  C   -0.162625
    60  C   -0.023838
    61  C   -0.019802
    62  C   -0.060795
    63  C   -0.016213
    64  C   -0.220785
    65  C   -0.011615
    66  C   -0.026650
    67  H    0.000567
    68  H    0.030181
    69  H    0.013449
    70  H    0.100216
    71  H    0.041351
    72  H    0.036805
    73  H    0.053017
    74  H    0.074744
    75  H    0.050704
    76  H    0.055705
    77  H    0.054134
    78  H    0.059969
    79  H    0.054252
    80  H    0.057529
    81  H    0.030508
    82  H    0.050556
    83  H    0.045933
    84  H    0.073517
    85  H    0.051143
    86  H    0.037919
    87  H    0.047142
    88  H    0.054053
    89  H    0.036464
    90  H    0.032885
    91  H    0.047528
    92  H    0.037363
    93  H    0.039109
    94  H    0.046810
    95  H    0.066602
    96  H    0.069041
    97  H    0.051032
    98  H    0.083277
    99  H    0.052967
   100  H    0.069170
   101  H    0.068753
   102  H    0.064707
   103  H    0.072597
   104  H    0.033043
   105  H    0.044680
   106  H    0.067115
   107  H    0.055490
   108  H    0.013848
   109  H    0.035984
   110  H    0.026106
   111  H    0.035959
   112  H    0.018272
   113  H    0.025689
   114  H    0.030770
   115  H    0.029309
   116  H    0.031336
   117  H    0.028028
   118  H    0.040904
   119  H    0.021916
   120  H    0.033850
   121  H    0.026670
   122  H    0.015820
   123  H    0.023909
   124  H    0.036941
   125  H    0.040089
   126  H    0.017157
   127  H    0.016314
   128  H    0.040855
   129  H    0.022547
   130  H    0.022727
   131  H    0.007036
   132  H    0.021451
   133  H    0.025584
   134  H    0.033169
   135  H    0.024146
   136  H    0.031571
   137  H    0.027753
   138  H    0.045470
   139  H    0.035395
   140  H    0.030925
 Sum of Mulliken charges =  -0.00000

 Dipole moment (field-independent basis, Debye):
    X=             -3.9178    Y=             -0.1631    Z=              0.9323  Tot=              4.0305
 Quadrupole moment (field-independent basis, Debye-Ang):
   XX=           -377.2589   YY=           -435.9691   ZZ=           -397.9417
   XY=             23.8270   XZ=              7.5966   YZ=              2.7625

 Normal termination of Gaussian 16 at Wed Apr 27 14:05:17 2022.
