 Gaussian 16, Revision A.03,
 Gaussian 16:  ES64L-G16RevA.03 25-Dec-2016

 --------------------------------
 #p wB97XD/Def2SVP td=(nstates=5)
 --------------------------------

 -----------------------------------------------------
 step_1201_chromophore_21 TDDFT with wB97XD functional
 -----------------------------------------------------
 Symbolic Z-matrix:
 Charge =  0 Multiplicity = 1

                         Standard orientation:
 ---------------------------------------------------------------------
 Center     Atomic      Atomic             Coordinates (Angstroms)
 Number     Number       Type             X           Y           Z
 ---------------------------------------------------------------------
      1         12           0        5.091774    1.323732    0.100804
      2          6           0        4.847671   -2.267269    0.249310
      3          6           0        1.579756    1.360568   -0.293700
      4          6           0        5.451744    4.594722   -0.217628
      5          6           0        8.612659    0.847074   -0.019526
      6          7           0        3.409442   -0.328329   -0.067703
      7          6           0        3.568629   -1.665462    0.207039
      8          6           0        2.286207   -2.347134    0.436340
      9          6           0        1.233918   -1.267132   -0.170748
     10          6           0        2.087874   -0.043062   -0.165649
     11          6           0        0.634749   -1.541343   -1.614631
     12          6           0        2.025974   -2.547615    1.935979
     13          6           0        1.004361   -3.714261    2.134956
     14          6           0        0.223346   -4.308595    0.963893
     15          8           0        0.475389   -5.398376    0.447344
     16          8           0       -0.800053   -3.464954    0.530586
     17          7           0        3.696398    2.806686   -0.227940
     18          6           0        2.320081    2.607166   -0.332676
     19          6           0        1.733265    3.889411   -0.358494
     20          6           0        2.786394    4.883284   -0.236006
     21          6           0        4.031828    4.153759   -0.209216
     22          6           0        0.211566    4.090332   -0.352483
     23          6           0        2.695725    6.368319   -0.051861
     24          8           0        3.659794    7.112288    0.057333
     25          6           0        1.327754    7.030917   -0.072452
     26          7           0        6.750325    2.547167    0.024477
     27          6           0        6.620232    3.917425   -0.164905
     28          6           0        8.098432    4.563880   -0.221743
     29          6           0        8.977453    3.331113   -0.027772
     30          6           0        8.079824    2.160249    0.036720
     31          6           0        8.353140    5.378543   -1.498886
     32          6           0        9.887350    3.420400    1.205168
     33          6           0       11.020761    4.444480    0.991977
     34          7           0        6.483314   -0.306107    0.184093
     35          6           0        7.841182   -0.353108    0.013040
     36          6           0        8.368622   -1.737230    0.104993
     37          6           0        7.221449   -2.485477    0.264498
     38          6           0        6.085745   -1.619892    0.177054
     39          6           0        9.847349   -2.200079    0.116433
     40          6           0        6.662365   -3.783259    0.365287
     41          8           0        7.232705   -4.887145    0.253209
     42          6           0        5.101467   -3.720720    0.407478
     43          6           0        4.447315   -4.591470   -0.626492
     44          8           0        3.962967   -4.244060   -1.660799
     45          8           0        4.288323   -5.886397   -0.195771
     46          6           0        3.634771   -6.961063   -1.087283
     47          6           0       -1.630052   -4.048286   -0.552242
     48          6           0       -2.954525   -3.194238   -0.671360
     49          6           0       -3.974244   -3.511514   -1.485491
     50          6           0       -4.189564   -4.666802   -2.379786
     51          6           0       -5.002845   -2.360855   -1.481114
     52          6           0       -6.247605   -2.616870   -0.554931
     53          6           0       -6.275953   -1.703285    0.749124
     54          6           0       -7.335590   -0.700857    0.673710
     55          6           0       -7.084987    0.542602    1.511126
     56          6           0       -8.666847   -1.270372    1.182285
     57          6           0       -9.836197   -0.618643    0.438028
     58          6           0      -11.211076   -0.722829    1.107714
     59          6           0      -12.050861    0.659489    1.238120
     60          6           0      -12.419175    1.087406    2.694670
     61          6           0      -13.382128    0.454139    0.527175
     62          6           0      -13.931822    1.792877   -0.032976
     63          6           0      -15.327709    1.648485   -0.586752
     64          6           0      -16.078239    2.972029   -0.731453
     65          6           0      -17.607567    2.761242   -0.697880
     66          6           0      -15.601468    3.809616   -2.021954
     67          1           0        0.501485    1.458189   -0.440616
     68          1           0        5.682630    5.661579   -0.200911
     69          1           0        9.668804    0.604034   -0.155511
     70          1           0        2.109874   -3.191205   -0.231587
     71          1           0        0.361099   -1.098621    0.460027
     72          1           0        0.497310   -0.620418   -2.181302
     73          1           0       -0.404747   -1.812023   -1.426484
     74          1           0        1.306867   -2.239996   -2.112823
     75          1           0        1.575789   -1.639902    2.336230
     76          1           0        2.934114   -2.869590    2.445930
     77          1           0        0.322441   -3.407109    2.927873
     78          1           0        1.558346   -4.564913    2.532318
     79          1           0       -0.108603    4.970674   -0.910159
     80          1           0       -0.172901    4.076378    0.667148
     81          1           0       -0.314153    3.215239   -0.731809
     82          1           0        1.492913    8.030895    0.328999
     83          1           0        0.661527    6.512398    0.617274
     84          1           0        0.821408    7.051777   -1.037487
     85          1           0        8.305310    5.156887    0.668945
     86          1           0        9.540923    3.286148   -0.959111
     87          1           0        9.005995    6.200897   -1.208245
     88          1           0        7.399615    5.678354   -1.934743
     89          1           0        8.899790    4.909662   -2.317390
     90          1           0       10.277000    2.404557    1.146508
     91          1           0        9.203691    3.608294    2.032820
     92          1           0       10.803809    4.935908    0.043936
     93          1           0       12.032517    4.055762    0.874232
     94          1           0       11.169965    5.127346    1.829413
     95          1           0       10.075651   -2.520672   -0.900172
     96          1           0        9.869255   -3.105039    0.724301
     97          1           0       10.454690   -1.350844    0.429319
     98          1           0        4.822091   -4.161202    1.365383
     99          1           0        4.453262   -7.483984   -1.581559
    100          1           0        2.997673   -6.714876   -1.936569
    101          1           0        3.147867   -7.685771   -0.434804
    102          1           0       -1.987404   -5.050844   -0.315436
    103          1           0       -1.161579   -4.041465   -1.536305
    104          1           0       -3.099410   -2.287426   -0.084918
    105          1           0       -4.949141   -4.443853   -3.128953
    106          1           0       -4.490860   -5.484122   -1.724772
    107          1           0       -3.231001   -4.882929   -2.851170
    108          1           0       -5.400662   -2.394921   -2.494560
    109          1           0       -4.550554   -1.375420   -1.367122
    110          1           0       -6.170009   -3.686963   -0.362908
    111          1           0       -7.061569   -2.458314   -1.263792
    112          1           0       -5.308726   -1.257757    0.980788
    113          1           0       -6.462184   -2.398127    1.568481
    114          1           0       -7.387449   -0.304259   -0.340266
    115          1           0       -7.856318    0.703388    2.264349
    116          1           0       -7.161494    1.408227    0.853054
    117          1           0       -6.122019    0.517203    2.019997
    118          1           0       -8.800947   -1.184040    2.260337
    119          1           0       -8.719995   -2.294509    0.812551
    120          1           0      -10.095270   -1.151884   -0.476361
    121          1           0       -9.590240    0.421636    0.223066
    122          1           0      -11.148130   -1.138347    2.113022
    123          1           0      -11.780768   -1.464308    0.547078
    124          1           0      -11.469212    1.497322    0.853089
    125          1           0      -13.460569    1.317971    2.920593
    126          1           0      -11.901515    1.945456    3.121887
    127          1           0      -12.063320    0.393768    3.456004
    128          1           0      -14.116443   -0.216167    0.973798
    129          1           0      -13.135524   -0.002726   -0.431610
    130          1           0      -13.298563    2.253340   -0.790670
    131          1           0      -13.995897    2.623718    0.669907
    132          1           0      -15.891519    1.025020    0.108169
    133          1           0      -15.278515    1.115788   -1.536521
    134          1           0      -15.829629    3.552252    0.156989
    135          1           0      -18.120782    3.249218   -1.526766
    136          1           0      -18.117722    3.114118    0.198551
    137          1           0      -17.899171    1.711483   -0.743285
    138          1           0      -16.195401    3.704087   -2.928813
    139          1           0      -14.526751    3.656143   -2.117408
    140          1           0      -15.762754    4.853038   -1.748927
 ---------------------------------------------------------------------

 SCF Done:  E(RwB97XD) =  -3007.84258169     A.U. after   19 cycles

 Excitation energies and oscillator strengths:

 Excited State   1:      Singlet-A      1.6046 eV  772.69 nm  f=0.3773  <S**2>=0.000
     245 -> 248       -0.18135
     246 -> 247        0.68435
     245 <- 248       -0.11577
 This state for optimization and/or second-order correction.
 Total Energy, E(TD-HF/TD-DFT) =  -3007.78361424
 Copying the excited state density for this state as the 1-particle RhoCI density.

 Excited State   2:      Singlet-A      2.1808 eV  568.53 nm  f=0.1191  <S**2>=0.000
     245 -> 247        0.63970
     246 -> 248        0.28540

 Excited State   3:      Singlet-A      3.2474 eV  381.79 nm  f=0.0045  <S**2>=0.000
     240 -> 247       -0.18033
     240 -> 249        0.17345
     241 -> 247       -0.37684
     241 -> 249        0.16970
     244 -> 247        0.46797

 Excited State   4:      Singlet-A      3.2937 eV  376.43 nm  f=0.0047  <S**2>=0.000
     240 -> 247        0.27497
     240 -> 249       -0.18525
     241 -> 247        0.25573
     241 -> 249       -0.14412
     244 -> 247        0.47773
     246 -> 248       -0.16504

 Excited State   5:      Singlet-A      3.4930 eV  354.95 nm  f=0.5772  <S**2>=0.000
     239 -> 247       -0.14964
     240 -> 247        0.24283
     241 -> 247       -0.14273
     245 -> 247       -0.23444
     246 -> 248        0.56331
     245 <- 247        0.10237

 The electronic state is 1-A.
 Alpha  occ. eigenvalues --  -46.95119 -19.31406 -19.28825 -19.25871 -19.24027
 Alpha  occ. eigenvalues --  -19.23944 -19.22694 -14.47146 -14.46044 -14.44508
 Alpha  occ. eigenvalues --  -14.43715 -10.44321 -10.42604 -10.39168 -10.37794
 Alpha  occ. eigenvalues --  -10.36754 -10.35385 -10.35257 -10.35106 -10.35103
 Alpha  occ. eigenvalues --  -10.34779 -10.34478 -10.34256 -10.33573 -10.33409
 Alpha  occ. eigenvalues --  -10.33344 -10.32753 -10.32742 -10.32530 -10.32290
 Alpha  occ. eigenvalues --  -10.32208 -10.32009 -10.31894 -10.31832 -10.31245
 Alpha  occ. eigenvalues --  -10.31185 -10.30901 -10.30793 -10.30705 -10.30514
 Alpha  occ. eigenvalues --  -10.30337 -10.30323 -10.30116 -10.30082 -10.30015
 Alpha  occ. eigenvalues --  -10.29990 -10.29876 -10.29849 -10.29848 -10.29740
 Alpha  occ. eigenvalues --  -10.29592 -10.29485 -10.29208 -10.29103 -10.28968
 Alpha  occ. eigenvalues --  -10.28765 -10.28761 -10.28722 -10.28654 -10.28634
 Alpha  occ. eigenvalues --  -10.28576 -10.28271 -10.28175 -10.28047 -10.27949
 Alpha  occ. eigenvalues --  -10.27920  -3.21010  -1.94610  -1.94127  -1.93972
 Alpha  occ. eigenvalues --   -1.18291  -1.17624  -1.11134  -1.10976  -1.10215
 Alpha  occ. eigenvalues --   -1.08468  -1.06369  -1.05510  -1.04173  -1.03140
 Alpha  occ. eigenvalues --   -0.95601  -0.93178  -0.92205  -0.91803  -0.91571
 Alpha  occ. eigenvalues --   -0.91183  -0.89500  -0.89217  -0.88984  -0.88168
 Alpha  occ. eigenvalues --   -0.87363  -0.86769  -0.86071  -0.85246  -0.84910
 Alpha  occ. eigenvalues --   -0.84140  -0.83661  -0.82751  -0.82307  -0.82112
 Alpha  occ. eigenvalues --   -0.81472  -0.80539  -0.79441  -0.79229  -0.78605
 Alpha  occ. eigenvalues --   -0.78239  -0.77085  -0.77063  -0.76915  -0.76086
 Alpha  occ. eigenvalues --   -0.75621  -0.75027  -0.73360  -0.73040  -0.71432
 Alpha  occ. eigenvalues --   -0.71051  -0.69956  -0.68810  -0.68491  -0.67558
 Alpha  occ. eigenvalues --   -0.66876  -0.66728  -0.66449  -0.66140  -0.65935
 Alpha  occ. eigenvalues --   -0.65846  -0.65347  -0.64364  -0.63458  -0.62264
 Alpha  occ. eigenvalues --   -0.61846  -0.61078  -0.60794  -0.60741  -0.59788
 Alpha  occ. eigenvalues --   -0.59427  -0.58690  -0.58155  -0.57859  -0.57324
 Alpha  occ. eigenvalues --   -0.57126  -0.56645  -0.56500  -0.56153  -0.55877
 Alpha  occ. eigenvalues --   -0.55761  -0.55555  -0.55308  -0.54835  -0.54515
 Alpha  occ. eigenvalues --   -0.54259  -0.53845  -0.53635  -0.53564  -0.53478
 Alpha  occ. eigenvalues --   -0.53439  -0.53199  -0.53033  -0.52945  -0.52689
 Alpha  occ. eigenvalues --   -0.52665  -0.51945  -0.51639  -0.51488  -0.51284
 Alpha  occ. eigenvalues --   -0.51160  -0.50942  -0.50579  -0.50493  -0.50351
 Alpha  occ. eigenvalues --   -0.50193  -0.50056  -0.49946  -0.49640  -0.49566
 Alpha  occ. eigenvalues --   -0.49418  -0.49415  -0.49158  -0.49026  -0.48754
 Alpha  occ. eigenvalues --   -0.48210  -0.48167  -0.48117  -0.47675  -0.47521
 Alpha  occ. eigenvalues --   -0.47239  -0.47122  -0.46900  -0.46887  -0.46744
 Alpha  occ. eigenvalues --   -0.46438  -0.46360  -0.46335  -0.46193  -0.45817
 Alpha  occ. eigenvalues --   -0.45599  -0.45463  -0.45380  -0.45153  -0.45055
 Alpha  occ. eigenvalues --   -0.44728  -0.44499  -0.44410  -0.44306  -0.43923
 Alpha  occ. eigenvalues --   -0.43637  -0.43486  -0.43330  -0.43264  -0.43038
 Alpha  occ. eigenvalues --   -0.43005  -0.42742  -0.42646  -0.42614  -0.42574
 Alpha  occ. eigenvalues --   -0.41739  -0.41262  -0.40599  -0.40510  -0.40239
 Alpha  occ. eigenvalues --   -0.39982  -0.39644  -0.39561  -0.39321  -0.39283
 Alpha  occ. eigenvalues --   -0.38939  -0.38889  -0.38710  -0.38514  -0.38433
 Alpha  occ. eigenvalues --   -0.38299  -0.37892  -0.37521  -0.36791  -0.36440
 Alpha  occ. eigenvalues --   -0.35731  -0.35714  -0.34917  -0.33467  -0.33115
 Alpha  occ. eigenvalues --   -0.32473  -0.31970  -0.31857  -0.30968  -0.25996
 Alpha  occ. eigenvalues --   -0.22833
 Alpha virt. eigenvalues --   -0.07218   0.00147   0.02158   0.04474   0.05645
 Alpha virt. eigenvalues --    0.06266   0.07679   0.07787   0.07995   0.09560
 Alpha virt. eigenvalues --    0.10410   0.11604   0.12012   0.12300   0.12555

 Mulliken charges:
               1
     1  Mg   0.958247
     2  C   -0.010989
     3  C   -0.063195
     4  C   -0.042623
     5  C   -0.115613
     6  N   -0.290059
     7  C    0.025498
     8  C   -0.167524
     9  C   -0.124623
    10  C    0.028202
    11  C    0.027697
    12  C    0.089183
    13  C    0.022426
    14  C    0.207094
    15  O   -0.263977
    16  O   -0.381237
    17  N   -0.508428
    18  C    0.173366
    19  C   -0.169463
    20  C   -0.073314
    21  C    0.158371
    22  C    0.057233
    23  C    0.037712
    24  O   -0.237385
    25  C   -0.036165
    26  N   -0.433943
    27  C    0.051236
    28  C   -0.072174
    29  C   -0.110568
    30  C    0.135090
    31  C    0.018534
    32  C    0.010208
    33  C   -0.031791
    34  N   -0.412443
    35  C    0.099299
    36  C   -0.215053
    37  C    0.027100
    38  C    0.124626
    39  C    0.098294
    40  C    0.078236
    41  O   -0.226963
    42  C   -0.059592
    43  C    0.263778
    44  O   -0.229665
    45  O   -0.390089
    46  C    0.147541
    47  C    0.240419
    48  C   -0.144055
    49  C   -0.261264
    50  C    0.067607
    51  C   -0.006355
    52  C   -0.015412
    53  C    0.060849
    54  C   -0.211020
    55  C    0.017581
    56  C    0.026274
    57  C   -0.047465
    58  C    0.024266
    59  C   -0.135690
    60  C   -0.015716
    61  C    0.001558
    62  C   -0.045311
    63  C    0.000102
    64  C   -0.191491
    65  C   -0.001565
    66  C   -0.013309
    67  H   -0.005480
    68  H    0.024573
    69  H    0.006148
    70  H    0.078646
    71  H    0.030396
    72  H    0.030678
    73  H    0.038623
    74  H    0.070055
    75  H    0.044838
    76  H    0.046243
    77  H    0.049874
    78  H    0.054641
    79  H    0.047821
    80  H    0.051575
    81  H    0.023956
    82  H    0.048139
    83  H    0.038540
    84  H    0.068838
    85  H    0.039938
    86  H    0.024884
    87  H    0.041332
    88  H    0.048563
    89  H    0.030836
    90  H    0.021275
    91  H    0.040523
    92  H    0.026578
    93  H    0.034161
    94  H    0.041975
    95  H    0.062868
    96  H    0.065937
    97  H    0.046925
    98  H    0.077451
    99  H    0.048350
   100  H    0.066640
   101  H    0.066159
   102  H    0.059540
   103  H    0.066929
   104  H    0.028470
   105  H    0.040620
   106  H    0.061518
   107  H    0.049876
   108  H    0.003681
   109  H    0.028397
   110  H    0.017122
   111  H    0.027719
   112  H    0.008289
   113  H    0.017249
   114  H    0.017525
   115  H    0.022068
   116  H    0.026318
   117  H    0.023137
   118  H    0.031857
   119  H    0.010897
   120  H    0.025833
   121  H    0.014925
   122  H    0.005496
   123  H    0.016090
   124  H    0.026254
   125  H    0.033831
   126  H    0.011633
   127  H    0.009988
   128  H    0.034289
   129  H    0.009740
   130  H    0.012874
   131  H   -0.004871
   132  H    0.010405
   133  H    0.016726
   134  H    0.021788
   135  H    0.018331
   136  H    0.026532
   137  H    0.021552
   138  H    0.040234
   139  H    0.027891
   140  H    0.024659
 Sum of Mulliken charges =  -0.00000

 Dipole moment (field-independent basis, Debye):
    X=             -3.6670    Y=             -0.7089    Z=              1.0104  Tot=              3.8691
 Quadrupole moment (field-independent basis, Debye-Ang):
   XX=           -374.2612   YY=           -436.0471   ZZ=           -397.5119
   XY=             20.1774   XZ=              8.0269   YZ=              2.7659

 Normal termination of Gaussian 16 at Wed Apr 27 14:29:48 2022.
