 Gaussian 16, Revision A.03,
 Gaussian 16:  ES64L-G16RevA.03 25-Dec-2016

 --------------------
 #p ZINDO=(nstates=5)
 --------------------

 ------------------------------
 step_1201_chromophore_21 ZINDO
 ------------------------------
 Symbolic Z-matrix:
 Charge =  0 Multiplicity = 1

                         Standard orientation:
 ---------------------------------------------------------------------
 Center     Atomic      Atomic             Coordinates (Angstroms)
 Number     Number       Type             X           Y           Z
 ---------------------------------------------------------------------
      1         12           0        5.091774    1.323732    0.100804
      2          6           0        4.847671   -2.267269    0.249310
      3          6           0        1.579756    1.360568   -0.293700
      4          6           0        5.451744    4.594722   -0.217628
      5          6           0        8.612659    0.847074   -0.019526
      6          7           0        3.409442   -0.328329   -0.067703
      7          6           0        3.568629   -1.665462    0.207039
      8          6           0        2.286207   -2.347134    0.436340
      9          6           0        1.233918   -1.267132   -0.170748
     10          6           0        2.087874   -0.043062   -0.165649
     11          6           0        0.634749   -1.541343   -1.614631
     12          6           0        2.025974   -2.547615    1.935979
     13          6           0        1.004361   -3.714261    2.134956
     14          6           0        0.223346   -4.308595    0.963893
     15          8           0        0.475389   -5.398376    0.447344
     16          8           0       -0.800053   -3.464954    0.530586
     17          7           0        3.696398    2.806686   -0.227940
     18          6           0        2.320081    2.607166   -0.332676
     19          6           0        1.733265    3.889411   -0.358494
     20          6           0        2.786394    4.883284   -0.236006
     21          6           0        4.031828    4.153759   -0.209216
     22          6           0        0.211566    4.090332   -0.352483
     23          6           0        2.695725    6.368319   -0.051861
     24          8           0        3.659794    7.112288    0.057333
     25          6           0        1.327754    7.030917   -0.072452
     26          7           0        6.750325    2.547167    0.024477
     27          6           0        6.620232    3.917425   -0.164905
     28          6           0        8.098432    4.563880   -0.221743
     29          6           0        8.977453    3.331113   -0.027772
     30          6           0        8.079824    2.160249    0.036720
     31          6           0        8.353140    5.378543   -1.498886
     32          6           0        9.887350    3.420400    1.205168
     33          6           0       11.020761    4.444480    0.991977
     34          7           0        6.483314   -0.306107    0.184093
     35          6           0        7.841182   -0.353108    0.013040
     36          6           0        8.368622   -1.737230    0.104993
     37          6           0        7.221449   -2.485477    0.264498
     38          6           0        6.085745   -1.619892    0.177054
     39          6           0        9.847349   -2.200079    0.116433
     40          6           0        6.662365   -3.783259    0.365287
     41          8           0        7.232705   -4.887145    0.253209
     42          6           0        5.101467   -3.720720    0.407478
     43          6           0        4.447315   -4.591470   -0.626492
     44          8           0        3.962967   -4.244060   -1.660799
     45          8           0        4.288323   -5.886397   -0.195771
     46          6           0        3.634771   -6.961063   -1.087283
     47          6           0       -1.630052   -4.048286   -0.552242
     48          6           0       -2.954525   -3.194238   -0.671360
     49          6           0       -3.974244   -3.511514   -1.485491
     50          6           0       -4.189564   -4.666802   -2.379786
     51          6           0       -5.002845   -2.360855   -1.481114
     52          6           0       -6.247605   -2.616870   -0.554931
     53          6           0       -6.275953   -1.703285    0.749124
     54          6           0       -7.335590   -0.700857    0.673710
     55          6           0       -7.084987    0.542602    1.511126
     56          6           0       -8.666847   -1.270372    1.182285
     57          6           0       -9.836197   -0.618643    0.438028
     58          6           0      -11.211076   -0.722829    1.107714
     59          6           0      -12.050861    0.659489    1.238120
     60          6           0      -12.419175    1.087406    2.694670
     61          6           0      -13.382128    0.454139    0.527175
     62          6           0      -13.931822    1.792877   -0.032976
     63          6           0      -15.327709    1.648485   -0.586752
     64          6           0      -16.078239    2.972029   -0.731453
     65          6           0      -17.607567    2.761242   -0.697880
     66          6           0      -15.601468    3.809616   -2.021954
     67          1           0        0.501485    1.458189   -0.440616
     68          1           0        5.682630    5.661579   -0.200911
     69          1           0        9.668804    0.604034   -0.155511
     70          1           0        2.109874   -3.191205   -0.231587
     71          1           0        0.361099   -1.098621    0.460027
     72          1           0        0.497310   -0.620418   -2.181302
     73          1           0       -0.404747   -1.812023   -1.426484
     74          1           0        1.306867   -2.239996   -2.112823
     75          1           0        1.575789   -1.639902    2.336230
     76          1           0        2.934114   -2.869590    2.445930
     77          1           0        0.322441   -3.407109    2.927873
     78          1           0        1.558346   -4.564913    2.532318
     79          1           0       -0.108603    4.970674   -0.910159
     80          1           0       -0.172901    4.076378    0.667148
     81          1           0       -0.314153    3.215239   -0.731809
     82          1           0        1.492913    8.030895    0.328999
     83          1           0        0.661527    6.512398    0.617274
     84          1           0        0.821408    7.051777   -1.037487
     85          1           0        8.305310    5.156887    0.668945
     86          1           0        9.540923    3.286148   -0.959111
     87          1           0        9.005995    6.200897   -1.208245
     88          1           0        7.399615    5.678354   -1.934743
     89          1           0        8.899790    4.909662   -2.317390
     90          1           0       10.277000    2.404557    1.146508
     91          1           0        9.203691    3.608294    2.032820
     92          1           0       10.803809    4.935908    0.043936
     93          1           0       12.032517    4.055762    0.874232
     94          1           0       11.169965    5.127346    1.829413
     95          1           0       10.075651   -2.520672   -0.900172
     96          1           0        9.869255   -3.105039    0.724301
     97          1           0       10.454690   -1.350844    0.429319
     98          1           0        4.822091   -4.161202    1.365383
     99          1           0        4.453262   -7.483984   -1.581559
    100          1           0        2.997673   -6.714876   -1.936569
    101          1           0        3.147867   -7.685771   -0.434804
    102          1           0       -1.987404   -5.050844   -0.315436
    103          1           0       -1.161579   -4.041465   -1.536305
    104          1           0       -3.099410   -2.287426   -0.084918
    105          1           0       -4.949141   -4.443853   -3.128953
    106          1           0       -4.490860   -5.484122   -1.724772
    107          1           0       -3.231001   -4.882929   -2.851170
    108          1           0       -5.400662   -2.394921   -2.494560
    109          1           0       -4.550554   -1.375420   -1.367122
    110          1           0       -6.170009   -3.686963   -0.362908
    111          1           0       -7.061569   -2.458314   -1.263792
    112          1           0       -5.308726   -1.257757    0.980788
    113          1           0       -6.462184   -2.398127    1.568481
    114          1           0       -7.387449   -0.304259   -0.340266
    115          1           0       -7.856318    0.703388    2.264349
    116          1           0       -7.161494    1.408227    0.853054
    117          1           0       -6.122019    0.517203    2.019997
    118          1           0       -8.800947   -1.184040    2.260337
    119          1           0       -8.719995   -2.294509    0.812551
    120          1           0      -10.095270   -1.151884   -0.476361
    121          1           0       -9.590240    0.421636    0.223066
    122          1           0      -11.148130   -1.138347    2.113022
    123          1           0      -11.780768   -1.464308    0.547078
    124          1           0      -11.469212    1.497322    0.853089
    125          1           0      -13.460569    1.317971    2.920593
    126          1           0      -11.901515    1.945456    3.121887
    127          1           0      -12.063320    0.393768    3.456004
    128          1           0      -14.116443   -0.216167    0.973798
    129          1           0      -13.135524   -0.002726   -0.431610
    130          1           0      -13.298563    2.253340   -0.790670
    131          1           0      -13.995897    2.623718    0.669907
    132          1           0      -15.891519    1.025020    0.108169
    133          1           0      -15.278515    1.115788   -1.536521
    134          1           0      -15.829629    3.552252    0.156989
    135          1           0      -18.120782    3.249218   -1.526766
    136          1           0      -18.117722    3.114118    0.198551
    137          1           0      -17.899171    1.711483   -0.743285
    138          1           0      -16.195401    3.704087   -2.928813
    139          1           0      -14.526751    3.656143   -2.117408
    140          1           0      -15.762754    4.853038   -1.748927
 ---------------------------------------------------------------------

 SCF Done:  E(RZINDO/S) =  -474.061788242     A.U. after   20 cycles

 Excitation energies and oscillator strengths:

 Excited State   1:      Singlet-A      1.2501 eV  991.79 nm  f=0.5810  <S**2>=0.000
     175 ->178        -0.16100
     176 ->177         0.66844
 This state for optimization and/or second-order correction.
 Total Energy, E(CIS/TDA) =  -474.015847749
 Copying the excited state density for this state as the 1-particle RhoCI density.

 Excited State   2:      Singlet-A      1.9508 eV  635.54 nm  f=0.0501  <S**2>=0.000
     175 ->177         0.54398
     176 ->178         0.40375
     176 ->179        -0.12324

 Excited State   3:      Singlet-A      2.7543 eV  450.14 nm  f=0.0368  <S**2>=0.000
     168 ->177         0.33959
     168 ->178        -0.23410
     168 ->179        -0.36981
     168 ->181         0.13697
     168 ->185         0.14042
     168 ->195         0.10472
     169 ->177         0.14376
     169 ->179        -0.11921
     176 ->178        -0.15097

 Excited State   4:      Singlet-A      2.8785 eV  430.72 nm  f=0.6924  <S**2>=0.000
     168 ->177         0.12119
     168 ->179        -0.12632
     175 ->177        -0.31645
     176 ->178         0.50983
     176 ->179         0.24729

 Excited State   5:      Singlet-A      3.0868 eV  401.66 nm  f=0.0013  <S**2>=0.000
     171 ->177         0.22130
     171 ->179         0.21268
     171 ->181         0.46748
     171 ->185        -0.19047
     171 ->188        -0.24121
     171 ->202        -0.13445

 The electronic state is 1-A.
 Alpha  occ. eigenvalues --   -1.84448  -1.80602  -1.78366  -1.72469  -1.70720
 Alpha  occ. eigenvalues --   -1.69577  -1.66868  -1.62096  -1.58777  -1.57305
 Alpha  occ. eigenvalues --   -1.55732  -1.51890  -1.49416  -1.48619  -1.47337
 Alpha  occ. eigenvalues --   -1.44094  -1.42615  -1.39173  -1.38966  -1.36995
 Alpha  occ. eigenvalues --   -1.35136  -1.33468  -1.31896  -1.29134  -1.27869
 Alpha  occ. eigenvalues --   -1.27567  -1.24474  -1.21003  -1.19428  -1.18283
 Alpha  occ. eigenvalues --   -1.17420  -1.16363  -1.15854  -1.15001  -1.14424
 Alpha  occ. eigenvalues --   -1.13649  -1.09897  -1.08976  -1.05952  -1.04218
 Alpha  occ. eigenvalues --   -1.04170  -1.01589  -0.98759  -0.97883  -0.96271
 Alpha  occ. eigenvalues --   -0.95498  -0.94359  -0.93679  -0.92737  -0.92452
 Alpha  occ. eigenvalues --   -0.91059  -0.90522  -0.88094  -0.87425  -0.87067
 Alpha  occ. eigenvalues --   -0.85587  -0.84251  -0.83290  -0.82368  -0.80670
 Alpha  occ. eigenvalues --   -0.79388  -0.78754  -0.77345  -0.76965  -0.76503
 Alpha  occ. eigenvalues --   -0.76108  -0.75191  -0.74433  -0.73519  -0.73179
 Alpha  occ. eigenvalues --   -0.72992  -0.72597  -0.71881  -0.71376  -0.70790
 Alpha  occ. eigenvalues --   -0.69869  -0.69306  -0.68968  -0.68441  -0.68094
 Alpha  occ. eigenvalues --   -0.67374  -0.66871  -0.66392  -0.65389  -0.65059
 Alpha  occ. eigenvalues --   -0.64593  -0.63913  -0.63878  -0.63652  -0.63570
 Alpha  occ. eigenvalues --   -0.63071  -0.62736  -0.62220  -0.61771  -0.61267
 Alpha  occ. eigenvalues --   -0.61171  -0.60695  -0.60599  -0.60097  -0.59570
 Alpha  occ. eigenvalues --   -0.59485  -0.59142  -0.58690  -0.58495  -0.58112
 Alpha  occ. eigenvalues --   -0.57562  -0.57193  -0.56675  -0.56580  -0.56398
 Alpha  occ. eigenvalues --   -0.55993  -0.55514  -0.55196  -0.54783  -0.54726
 Alpha  occ. eigenvalues --   -0.54402  -0.54005  -0.53921  -0.53595  -0.52639
 Alpha  occ. eigenvalues --   -0.52528  -0.52385  -0.51659  -0.51420  -0.51250
 Alpha  occ. eigenvalues --   -0.51176  -0.51030  -0.50973  -0.50625  -0.50569
 Alpha  occ. eigenvalues --   -0.50481  -0.49832  -0.49587  -0.49298  -0.49275
 Alpha  occ. eigenvalues --   -0.48860  -0.48311  -0.48083  -0.47876  -0.47407
 Alpha  occ. eigenvalues --   -0.47357  -0.46913  -0.46446  -0.46286  -0.46228
 Alpha  occ. eigenvalues --   -0.46142  -0.45751  -0.45485  -0.45462  -0.45058
 Alpha  occ. eigenvalues --   -0.44553  -0.44496  -0.44420  -0.43748  -0.43634
 Alpha  occ. eigenvalues --   -0.43553  -0.43323  -0.43192  -0.43066  -0.42348
 Alpha  occ. eigenvalues --   -0.42158  -0.41436  -0.41344  -0.39558  -0.38591
 Alpha  occ. eigenvalues --   -0.38181  -0.37115  -0.36165  -0.34392  -0.34013
 Alpha  occ. eigenvalues --   -0.33812  -0.32139  -0.31861  -0.31200  -0.26710
 Alpha  occ. eigenvalues --   -0.21669
 Alpha virt. eigenvalues --   -0.08551  -0.02166  -0.00694   0.01144   0.01694
 Alpha virt. eigenvalues --    0.02748   0.02859   0.02984   0.04671   0.05095
 Alpha virt. eigenvalues --    0.06455   0.06760   0.07208   0.07665   0.07917

 Mulliken charges:
               1
     1  Mg   0.425472
     2  C   -0.042320
     3  C   -0.079124
     4  C   -0.055673
     5  C   -0.104752
     6  N   -0.275417
     7  C    0.157344
     8  C    0.008594
     9  C   -0.008346
    10  C    0.098664
    11  C   -0.056197
    12  C   -0.008959
    13  C   -0.002341
    14  C    0.472336
    15  O   -0.512842
    16  O   -0.272757
    17  N   -0.324669
    18  C    0.071593
    19  C   -0.011009
    20  C   -0.066708
    21  C    0.129094
    22  C   -0.050642
    23  C    0.325313
    24  O   -0.536153
    25  C   -0.036675
    26  N   -0.292493
    27  C    0.100621
    28  C   -0.003450
    29  C    0.003488
    30  C    0.181984
    31  C   -0.051631
    32  C   -0.029236
    33  C   -0.060688
    34  N   -0.332210
    35  C    0.137506
    36  C    0.043391
    37  C   -0.027545
    38  C    0.115977
    39  C   -0.036063
    40  C    0.331528
    41  O   -0.524824
    42  C    0.061195
    43  C    0.495039
    44  O   -0.514110
    45  O   -0.280614
    46  C    0.074878
    47  C    0.095962
    48  C   -0.116238
    49  C   -0.007763
    50  C   -0.032384
    51  C   -0.036102
    52  C   -0.042902
    53  C   -0.020264
    54  C   -0.001505
    55  C   -0.061105
    56  C   -0.028627
    57  C   -0.041090
    58  C   -0.044429
    59  C   -0.007661
    60  C   -0.068175
    61  C   -0.029829
    62  C   -0.038919
    63  C   -0.028857
    64  C   -0.011349
    65  C   -0.059762
    66  C   -0.064325
    67  H    0.033287
    68  H    0.040396
    69  H    0.032614
    70  H    0.060167
    71  H    0.026313
    72  H    0.023016
    73  H    0.026285
    74  H    0.042229
    75  H    0.037852
    76  H    0.029458
    77  H    0.033977
    78  H    0.031461
    79  H    0.027475
    80  H    0.027472
    81  H    0.017717
    82  H    0.032093
    83  H    0.024428
    84  H    0.042170
    85  H    0.033354
    86  H    0.029102
    87  H    0.017653
    88  H    0.030571
    89  H    0.019148
    90  H    0.021842
    91  H    0.038923
    92  H    0.023774
    93  H    0.017284
    94  H    0.022379
    95  H    0.041238
    96  H    0.043724
    97  H    0.036408
    98  H    0.061013
    99  H    0.032343
   100  H    0.059144
   101  H    0.040654
   102  H    0.052050
   103  H    0.057082
   104  H    0.041385
   105  H    0.028486
   106  H    0.036326
   107  H    0.029848
   108  H    0.005009
   109  H    0.028115
   110  H    0.022581
   111  H    0.023302
   112  H    0.020603
   113  H    0.012459
   114  H    0.022888
   115  H    0.016187
   116  H    0.012855
   117  H    0.018373
   118  H    0.035489
   119  H    0.010394
   120  H    0.019601
   121  H    0.021189
   122  H    0.014580
   123  H    0.017663
   124  H    0.031299
   125  H    0.022577
   126  H    0.009607
   127  H    0.012095
   128  H    0.039079
   129  H    0.001286
   130  H    0.017663
   131  H    0.012273
   132  H    0.011678
   133  H    0.016650
   134  H    0.020822
   135  H    0.014157
   136  H    0.015690
   137  H    0.014554
   138  H    0.032184
   139  H    0.024404
   140  H    0.009307
 Sum of Mulliken charges =  -0.00000

 Dipole moment (field-independent basis, Debye):
    X=             -2.7946    Y=             -1.7742    Z=              2.5428  Tot=              4.1742
 N-N= 4.294755483579D+03 E-N= 0.000000000000D+00  KE=-9.263896028605D+03
 Leave Link  601 at Wed Apr 27 14:42:43 2022, MaxMem=  6710886400 cpu:               0.8 elap:               0.0
 (Enter /sw/apps/gaussian-16.0/g16/l9999.exe)
 1\1\GINC-BP1-COMPUTE216\SP\RZINDO CIS\STO-3G\C55H74Mg1N4O6\OF15641\27-
 Apr-2022\0\\#p ZINDO=(nstates=5)\\step_1201_chromophore_21 ZINDO\\0,1\
 Mg,0,16.1,52.165,25.868\C,0,17.957,51.011,28.731\C,0,13.449,52.859,28.
 1\C,0,14.419,53.015,23.151\C,0,18.757,50.85,23.906\N,0,15.75,51.885,28
 .189\C,0,16.718,51.575,29.114\C,0,16.303,51.894,30.488\C,0,14.698,52.0
 76,30.306\C,0,14.628,52.293,28.831\C,0,13.757,50.879,30.754\C,0,16.93,
 53.212,30.964\C,0,16.947,53.245,32.527\C,0,16.181,52.22,33.362\O,0,16.

 Normal termination of Gaussian 16 at Wed Apr 27 14:42:43 2022.
