 Gaussian 16, Revision A.03,
 Gaussian 16:  ES64L-G16RevA.03 25-Dec-2016

 ------------------------------
 #p blyp/Def2SVP td=(nstates=5)
 ------------------------------

 --------------------------------------------------
 step_301_chromophore_17 TDDFT with blyp functional
 --------------------------------------------------
 Symbolic Z-matrix:
 Charge =  0 Multiplicity = 1

                         Standard orientation:
 ---------------------------------------------------------------------
 Center     Atomic      Atomic             Coordinates (Angstroms)
 Number     Number       Type             X           Y           Z
 ---------------------------------------------------------------------
      1         12           0        4.443180    1.015108   -0.258161
      2          6           0        3.825800   -2.478363   -0.435281
      3          6           0        1.868033    1.475337   -2.654397
      4          6           0        4.464386    4.347400    0.249800
      5          6           0        6.724787    0.419605    2.177727
      6          7           0        2.921951   -0.367328   -1.278035
      7          6           0        2.919720   -1.697749   -1.236150
      8          6           0        1.794373   -2.157461   -2.082880
      9          6           0        1.371675   -0.960659   -2.946443
     10          6           0        2.213333    0.126666   -2.369607
     11          6           0        1.315337   -1.129865   -4.441209
     12          6           0        0.621811   -2.926461   -1.305194
     13          6           0       -0.026379   -4.002392   -2.110183
     14          6           0       -1.550405   -3.852444   -2.210336
     15          8           0       -2.070311   -3.411158   -3.227238
     16          8           0       -2.208241   -4.220135   -1.039902
     17          7           0        3.238322    2.683816   -1.024049
     18          6           0        2.276433    2.720524   -2.096973
     19          6           0        1.792625    3.954382   -2.363222
     20          6           0        2.441122    4.780022   -1.397825
     21          6           0        3.455137    3.957919   -0.678869
     22          6           0        0.697287    4.195569   -3.389687
     23          6           0        2.178996    6.196203   -1.239234
     24          8           0        1.407796    6.756189   -2.020743
     25          6           0        2.783943    7.093576   -0.176926
     26          7           0        5.401402    2.236944    1.075217
     27          6           0        5.331070    3.600673    1.064109
     28          6           0        6.248660    4.217648    2.126472
     29          6           0        6.923634    2.909992    2.785275
     30          6           0        6.253601    1.770741    2.040721
     31          6           0        7.351365    5.203215    1.612478
     32          6           0        6.685868    2.809445    4.371854
     33          6           0        8.053704    2.755923    5.096133
     34          7           0        5.239147   -0.677500    0.590278
     35          6           0        6.233652   -0.745894    1.589221
     36          6           0        6.630505   -2.181099    1.688319
     37          6           0        5.659338   -2.858622    0.949704
     38          6           0        4.784186   -1.898546    0.384398
     39          6           0        7.574907   -2.679842    2.706733
     40          6           0        5.160399   -4.219775    0.594667
     41          8           0        5.560100   -5.340247    0.816512
     42          6           0        3.945489   -3.960685   -0.352577
     43          6           0        4.116272   -4.664037   -1.639568
     44          8           0        5.108877   -4.592298   -2.297238
     45          8           0        3.029128   -5.406604   -1.961122
     46          6           0        3.367562   -6.137323   -3.202274
     47          6           0       -3.630315   -4.093474   -1.035769
     48          6           0       -3.905098   -3.988211    0.507530
     49          6           0       -5.134076   -4.232151    1.012703
     50          6           0       -6.414725   -4.533148    0.162572
     51          6           0       -5.359948   -4.290715    2.500237
     52          6           0       -6.035442   -3.011739    3.178753
     53          6           0       -7.472762   -3.270710    3.685834
     54          6           0       -8.568744   -2.523349    2.838655
     55          6           0       -9.889560   -3.245633    2.695012
     56          6           0       -8.747203   -1.006334    3.319650
     57          6           0       -9.225908   -0.016155    2.172792
     58          6           0       -8.383434    1.208069    1.913757
     59          6           0       -7.615159    1.308740    0.584649
     60          6           0       -6.234865    0.495639    0.733485
     61          6           0       -7.403906    2.768252    0.155998
     62          6           0       -8.225478    3.063660   -1.098095
     63          6           0       -8.342757    4.606423   -1.409097
     64          6           0       -9.854380    5.122275   -1.113929
     65          6           0      -10.588951    5.423810   -2.498024
     66          6           0       -9.966882    6.171244    0.018510
     67          1           0        1.086108    1.656507   -3.395153
     68          1           0        4.682809    5.411878    0.351901
     69          1           0        7.486641    0.395980    2.959592
     70          1           0        2.320912   -2.862978   -2.725855
     71          1           0        0.430205   -0.666432   -2.482616
     72          1           0        1.858843   -0.245557   -4.773169
     73          1           0        0.251420   -1.104830   -4.676317
     74          1           0        1.707878   -2.111203   -4.709402
     75          1           0       -0.184939   -2.224090   -1.095961
     76          1           0        0.909669   -3.323626   -0.331430
     77          1           0        0.087199   -4.978648   -1.639759
     78          1           0        0.400624   -4.097673   -3.108199
     79          1           0       -0.257189    4.125274   -2.869731
     80          1           0        0.613796    3.600337   -4.299679
     81          1           0        0.854385    5.125661   -3.937063
     82          1           0        3.009871    6.444355    0.668252
     83          1           0        2.085331    7.895463    0.062498
     84          1           0        3.701059    7.423071   -0.667453
     85          1           0        5.549985    4.782980    2.744086
     86          1           0        7.980230    3.033792    2.546342
     87          1           0        8.302306    5.201073    2.144648
     88          1           0        6.794014    6.134511    1.720701
     89          1           0        7.519672    4.996336    0.555335
     90          1           0        6.123915    1.902274    4.594215
     91          1           0        6.041456    3.626493    4.696211
     92          1           0        8.120403    3.401586    5.971187
     93          1           0        8.845649    2.859347    4.353729
     94          1           0        8.264741    1.751989    5.463162
     95          1           0        7.932212   -3.636253    2.326050
     96          1           0        6.986225   -2.754542    3.621105
     97          1           0        8.489115   -2.094827    2.809028
     98          1           0        3.053175   -4.398804    0.093168
     99          1           0        3.269928   -5.404448   -4.002189
    100          1           0        2.647881   -6.939429   -3.364900
    101          1           0        4.323194   -6.661781   -3.181579
    102          1           0       -4.097499   -4.982616   -1.459730
    103          1           0       -3.972113   -3.192388   -1.544847
    104          1           0       -3.105098   -3.881695    1.240927
    105          1           0       -6.169549   -5.409951   -0.436421
    106          1           0       -6.577932   -3.674843   -0.489631
    107          1           0       -7.328600   -4.692543    0.734901
    108          1           0       -4.365968   -4.426816    2.926089
    109          1           0       -5.898891   -5.209232    2.730709
    110          1           0       -6.130630   -2.432095    2.260609
    111          1           0       -5.402200   -2.527390    3.921796
    112          1           0       -7.551849   -2.939134    4.721263
    113          1           0       -7.628537   -4.318319    3.429594
    114          1           0       -8.181621   -2.503583    1.820050
    115          1           0      -10.522919   -2.823884    3.475115
    116          1           0       -9.742238   -4.317379    2.820959
    117          1           0      -10.399901   -3.002020    1.762816
    118          1           0       -7.800989   -0.634620    3.712586
    119          1           0       -9.402756   -0.879633    4.181240
    120          1           0      -10.251323    0.239603    2.438744
    121          1           0       -9.260414   -0.592467    1.248191
    122          1           0       -7.672853    1.278246    2.737313
    123          1           0       -8.987828    2.114536    1.947358
    124          1           0       -8.153789    0.670191   -0.115328
    125          1           0       -6.033531    0.110333    1.733326
    126          1           0       -5.438784    1.160310    0.397829
    127          1           0       -6.275208   -0.337161    0.031563
    128          1           0       -6.358277    2.991589   -0.052884
    129          1           0       -7.666467    3.425164    0.985183
    130          1           0       -9.249712    2.693953   -1.042485
    131          1           0       -7.683014    2.629133   -1.937561
    132          1           0       -7.979149    4.704634   -2.431996
    133          1           0       -7.612471    5.201683   -0.860434
    134          1           0      -10.532176    4.368721   -0.714441
    135          1           0      -11.236820    6.300043   -2.489658
    136          1           0      -11.159514    4.525578   -2.736838
    137          1           0       -9.980020    5.467262   -3.400371
    138          1           0      -10.025693    5.789788    1.037548
    139          1           0      -10.836901    6.784206   -0.218663
    140          1           0       -9.089988    6.819520    0.002739
 ---------------------------------------------------------------------

 SCF Done:  E(RB-LYP) =  -3007.33585988     A.U. after   21 cycles

 Excitation energies and oscillator strengths:

 Excited State   1:      Singlet-A      1.3655 eV  907.99 nm  f=0.0032  <S**2>=0.000
     245 -> 247        0.68908
     246 -> 247        0.15652
 This state for optimization and/or second-order correction.
 Total Energy, E(TD-HF/TD-DFT) =  -3007.28567944
 Copying the excited state density for this state as the 1-particle RhoCI density.

 Excited State   2:      Singlet-A      1.7446 eV  710.67 nm  f=0.2565  <S**2>=0.000
     244 -> 248       -0.19501
     245 -> 247       -0.14978
     246 -> 247        0.66520
     246 <- 247       -0.14515

 Excited State   3:      Singlet-A      1.9700 eV  629.37 nm  f=0.0781  <S**2>=0.000
     244 -> 247        0.62965
     246 -> 248        0.26957

 Excited State   4:      Singlet-A      2.1210 eV  584.55 nm  f=0.0010  <S**2>=0.000
     243 -> 247        0.70528

 Excited State   5:      Singlet-A      2.3232 eV  533.67 nm  f=0.0008  <S**2>=0.000
     241 -> 247        0.70553

 The electronic state is 1-A.
 Alpha  occ. eigenvalues --  -46.27364 -18.83377 -18.82661 -18.77243 -18.76874
 Alpha  occ. eigenvalues --  -18.76622 -18.73372 -14.03628 -14.03185 -14.01191
 Alpha  occ. eigenvalues --  -14.00588 -10.04224 -10.03788 -10.00413  -9.98559
 Alpha  occ. eigenvalues --   -9.97998  -9.97740  -9.97378  -9.96928  -9.96753
 Alpha  occ. eigenvalues --   -9.96435  -9.96410  -9.95920  -9.94804  -9.94530
 Alpha  occ. eigenvalues --   -9.94518  -9.94443  -9.94348  -9.94035  -9.93752
 Alpha  occ. eigenvalues --   -9.93695  -9.93622  -9.93619  -9.93510  -9.93097
 Alpha  occ. eigenvalues --   -9.93040  -9.93003  -9.92972  -9.92971  -9.92937
 Alpha  occ. eigenvalues --   -9.92866  -9.92793  -9.92680  -9.92549  -9.92414
 Alpha  occ. eigenvalues --   -9.92185  -9.92124  -9.92012  -9.91912  -9.91842
 Alpha  occ. eigenvalues --   -9.91840  -9.91797  -9.91692  -9.91494  -9.91452
 Alpha  occ. eigenvalues --   -9.91401  -9.91171  -9.91143  -9.91032  -9.90957
 Alpha  occ. eigenvalues --   -9.90804  -9.90782  -9.90771  -9.90732  -9.90467
 Alpha  occ. eigenvalues --   -9.90452  -2.91964  -1.72394  -1.71820  -1.71701
 Alpha  occ. eigenvalues --   -0.99869  -0.98050  -0.92674  -0.91306  -0.90656
 Alpha  occ. eigenvalues --   -0.89647  -0.87118  -0.86321  -0.85892  -0.84541
 Alpha  occ. eigenvalues --   -0.76137  -0.73437  -0.73103  -0.72502  -0.72381
 Alpha  occ. eigenvalues --   -0.71896  -0.71537  -0.71249  -0.70856  -0.70155
 Alpha  occ. eigenvalues --   -0.69828  -0.68891  -0.68073  -0.67649  -0.67188
 Alpha  occ. eigenvalues --   -0.66458  -0.66072  -0.65194  -0.64694  -0.64206
 Alpha  occ. eigenvalues --   -0.63750  -0.62750  -0.62250  -0.61607  -0.61041
 Alpha  occ. eigenvalues --   -0.60936  -0.60375  -0.60038  -0.59226  -0.58588
 Alpha  occ. eigenvalues --   -0.58076  -0.57834  -0.57505  -0.55771  -0.55000
 Alpha  occ. eigenvalues --   -0.54438  -0.53332  -0.53110  -0.52348  -0.52008
 Alpha  occ. eigenvalues --   -0.51553  -0.50665  -0.50563  -0.50504  -0.50385
 Alpha  occ. eigenvalues --   -0.49556  -0.49149  -0.49019  -0.48643  -0.46500
 Alpha  occ. eigenvalues --   -0.46117  -0.45858  -0.45669  -0.45369  -0.45079
 Alpha  occ. eigenvalues --   -0.44405  -0.43590  -0.43312  -0.43158  -0.42973
 Alpha  occ. eigenvalues --   -0.42595  -0.41917  -0.41737  -0.41417  -0.41262
 Alpha  occ. eigenvalues --   -0.40942  -0.40667  -0.40310  -0.40173  -0.40061
 Alpha  occ. eigenvalues --   -0.39786  -0.39738  -0.39527  -0.39229  -0.39067
 Alpha  occ. eigenvalues --   -0.38875  -0.38691  -0.38410  -0.38315  -0.38147
 Alpha  occ. eigenvalues --   -0.38094  -0.37889  -0.37763  -0.37752  -0.37600
 Alpha  occ. eigenvalues --   -0.37402  -0.37211  -0.37157  -0.36892  -0.36502
 Alpha  occ. eigenvalues --   -0.36441  -0.36085  -0.35976  -0.35855  -0.35544
 Alpha  occ. eigenvalues --   -0.35474  -0.35345  -0.35132  -0.35020  -0.34881
 Alpha  occ. eigenvalues --   -0.34576  -0.34361  -0.34224  -0.33951  -0.33912
 Alpha  occ. eigenvalues --   -0.33821  -0.33575  -0.33340  -0.33226  -0.33161
 Alpha  occ. eigenvalues --   -0.33148  -0.33006  -0.32836  -0.32575  -0.32465
 Alpha  occ. eigenvalues --   -0.32342  -0.32216  -0.31809  -0.31606  -0.31542
 Alpha  occ. eigenvalues --   -0.31401  -0.31330  -0.31144  -0.30934  -0.30669
 Alpha  occ. eigenvalues --   -0.30535  -0.30366  -0.30270  -0.30254  -0.29903
 Alpha  occ. eigenvalues --   -0.29652  -0.29333  -0.29165  -0.29004  -0.28870
 Alpha  occ. eigenvalues --   -0.28689  -0.28608  -0.28131  -0.27849  -0.27644
 Alpha  occ. eigenvalues --   -0.27219  -0.27145  -0.26803  -0.26740  -0.26387
 Alpha  occ. eigenvalues --   -0.26299  -0.26274  -0.26178  -0.25638  -0.25617
 Alpha  occ. eigenvalues --   -0.25527  -0.25188  -0.24314  -0.24161  -0.23483
 Alpha  occ. eigenvalues --   -0.23289  -0.22698  -0.21707  -0.21607  -0.21054
 Alpha  occ. eigenvalues --   -0.20366  -0.19872  -0.19497  -0.17548  -0.16769
 Alpha  occ. eigenvalues --   -0.15944
 Alpha virt. eigenvalues --   -0.11830  -0.07632  -0.06307  -0.04536  -0.03088
 Alpha virt. eigenvalues --   -0.02676  -0.02334  -0.02100  -0.01692  -0.00092
 Alpha virt. eigenvalues --    0.01058   0.01473   0.01605   0.01973   0.02645

 Mulliken charges:
               1
     1  Mg   0.687192
     2  C   -0.004987
     3  C   -0.068965
     4  C   -0.047127
     5  C   -0.074082
     6  N   -0.193840
     7  C   -0.101567
     8  C    0.027520
     9  C   -0.007571
    10  C    0.030588
    11  C    0.202137
    12  C    0.136695
    13  C    0.178955
    14  C    0.038710
    15  O   -0.196372
    16  O   -0.277275
    17  N   -0.274155
    18  C    0.096927
    19  C   -0.089982
    20  C    0.067748
    21  C    0.148730
    22  C    0.168449
    23  C   -0.176632
    24  O   -0.195151
    25  C    0.162220
    26  N   -0.262955
    27  C   -0.019256
    28  C   -0.013255
    29  C    0.002780
    30  C    0.027964
    31  C    0.112925
    32  C    0.096268
    33  C    0.063672
    34  N   -0.287413
    35  C    0.171596
    36  C   -0.195984
    37  C    0.039451
    38  C    0.091540
    39  C    0.163556
    40  C   -0.018120
    41  O   -0.103151
    42  C    0.117988
    43  C    0.050018
    44  O   -0.156526
    45  O   -0.259760
    46  C    0.220945
    47  C    0.313947
    48  C   -0.089581
    49  C   -0.197924
    50  C    0.130896
    51  C    0.130298
    52  C    0.056097
    53  C    0.136117
    54  C   -0.107525
    55  C    0.127475
    56  C    0.072688
    57  C    0.089948
    58  C    0.105009
    59  C   -0.091791
    60  C    0.078307
    61  C    0.137485
    62  C    0.040088
    63  C    0.105888
    64  C   -0.073460
    65  C    0.076570
    66  C    0.090711
    67  H   -0.058752
    68  H   -0.078362
    69  H   -0.059750
    70  H   -0.037011
    71  H   -0.019942
    72  H   -0.005525
    73  H    0.002452
    74  H   -0.007114
    75  H   -0.014662
    76  H   -0.012876
    77  H   -0.011871
    78  H   -0.013549
    79  H    0.009442
    80  H   -0.018904
    81  H    0.003579
    82  H   -0.013360
    83  H    0.003025
    84  H    0.014312
    85  H   -0.010416
    86  H   -0.011227
    87  H    0.009027
    88  H    0.001288
    89  H   -0.001834
    90  H   -0.012827
    91  H   -0.017446
    92  H    0.001916
    93  H   -0.014902
    94  H   -0.014022
    95  H    0.008101
    96  H    0.025035
    97  H   -0.009040
    98  H   -0.015737
    99  H    0.011570
   100  H    0.003429
   101  H    0.033245
   102  H    0.003489
   103  H    0.011561
   104  H   -0.033203
   105  H    0.005675
   106  H    0.006960
   107  H   -0.000594
   108  H   -0.048727
   109  H   -0.025212
   110  H   -0.008946
   111  H   -0.015571
   112  H   -0.023154
   113  H   -0.045422
   114  H   -0.041070
   115  H   -0.025758
   116  H   -0.016101
   117  H   -0.013182
   118  H   -0.042181
   119  H   -0.030828
   120  H   -0.032302
   121  H   -0.035326
   122  H   -0.037920
   123  H   -0.044680
   124  H   -0.034903
   125  H    0.002835
   126  H   -0.026770
   127  H   -0.015533
   128  H   -0.037215
   129  H   -0.033924
   130  H   -0.018564
   131  H   -0.030560
   132  H   -0.034071
   133  H   -0.035517
   134  H   -0.021863
   135  H   -0.013225
   136  H   -0.021720
   137  H   -0.018715
   138  H   -0.005654
   139  H   -0.021164
   140  H   -0.019923
 Sum of Mulliken charges =  -0.00000

 Dipole moment (field-independent basis, Debye):
    X=              0.4504    Y=             -0.2854    Z=              2.9479  Tot=              2.9957
 Quadrupole moment (field-independent basis, Debye-Ang):
   XX=           -382.2693   YY=           -434.2069   ZZ=           -398.1980
   XY=             38.6698   XZ=             12.4118   YZ=             23.5158

 Normal termination of Gaussian 16 at Fri Apr 29 13:06:36 2022.
