 Gaussian 16, Revision A.03,
 Gaussian 16:  ES64L-G16RevA.03 25-Dec-2016

 -----------------------------------
 #p cam-b3lyp/Def2SVP td=(nstates=5)
 -----------------------------------

 -------------------------------------------------------
 step_301_chromophore_17 TDDFT with cam-b3lyp functional
 -------------------------------------------------------
 Symbolic Z-matrix:
 Charge =  0 Multiplicity = 1

                         Standard orientation:
 ---------------------------------------------------------------------
 Center     Atomic      Atomic             Coordinates (Angstroms)
 Number     Number       Type             X           Y           Z
 ---------------------------------------------------------------------
      1         12           0        4.443180    1.015108   -0.258161
      2          6           0        3.825800   -2.478363   -0.435281
      3          6           0        1.868033    1.475337   -2.654397
      4          6           0        4.464386    4.347400    0.249800
      5          6           0        6.724787    0.419605    2.177727
      6          7           0        2.921951   -0.367328   -1.278035
      7          6           0        2.919720   -1.697749   -1.236150
      8          6           0        1.794373   -2.157461   -2.082880
      9          6           0        1.371675   -0.960659   -2.946443
     10          6           0        2.213333    0.126666   -2.369607
     11          6           0        1.315337   -1.129865   -4.441209
     12          6           0        0.621811   -2.926461   -1.305194
     13          6           0       -0.026379   -4.002392   -2.110183
     14          6           0       -1.550405   -3.852444   -2.210336
     15          8           0       -2.070311   -3.411158   -3.227238
     16          8           0       -2.208241   -4.220135   -1.039902
     17          7           0        3.238322    2.683816   -1.024049
     18          6           0        2.276433    2.720524   -2.096973
     19          6           0        1.792625    3.954382   -2.363222
     20          6           0        2.441122    4.780022   -1.397825
     21          6           0        3.455137    3.957919   -0.678869
     22          6           0        0.697287    4.195569   -3.389687
     23          6           0        2.178996    6.196203   -1.239234
     24          8           0        1.407796    6.756189   -2.020743
     25          6           0        2.783943    7.093576   -0.176926
     26          7           0        5.401402    2.236944    1.075217
     27          6           0        5.331070    3.600673    1.064109
     28          6           0        6.248660    4.217648    2.126472
     29          6           0        6.923634    2.909992    2.785275
     30          6           0        6.253601    1.770741    2.040721
     31          6           0        7.351365    5.203215    1.612478
     32          6           0        6.685868    2.809445    4.371854
     33          6           0        8.053704    2.755923    5.096133
     34          7           0        5.239147   -0.677500    0.590278
     35          6           0        6.233652   -0.745894    1.589221
     36          6           0        6.630505   -2.181099    1.688319
     37          6           0        5.659338   -2.858622    0.949704
     38          6           0        4.784186   -1.898546    0.384398
     39          6           0        7.574907   -2.679842    2.706733
     40          6           0        5.160399   -4.219775    0.594667
     41          8           0        5.560100   -5.340247    0.816512
     42          6           0        3.945489   -3.960685   -0.352577
     43          6           0        4.116272   -4.664037   -1.639568
     44          8           0        5.108877   -4.592298   -2.297238
     45          8           0        3.029128   -5.406604   -1.961122
     46          6           0        3.367562   -6.137323   -3.202274
     47          6           0       -3.630315   -4.093474   -1.035769
     48          6           0       -3.905098   -3.988211    0.507530
     49          6           0       -5.134076   -4.232151    1.012703
     50          6           0       -6.414725   -4.533148    0.162572
     51          6           0       -5.359948   -4.290715    2.500237
     52          6           0       -6.035442   -3.011739    3.178753
     53          6           0       -7.472762   -3.270710    3.685834
     54          6           0       -8.568744   -2.523349    2.838655
     55          6           0       -9.889560   -3.245633    2.695012
     56          6           0       -8.747203   -1.006334    3.319650
     57          6           0       -9.225908   -0.016155    2.172792
     58          6           0       -8.383434    1.208069    1.913757
     59          6           0       -7.615159    1.308740    0.584649
     60          6           0       -6.234865    0.495639    0.733485
     61          6           0       -7.403906    2.768252    0.155998
     62          6           0       -8.225478    3.063660   -1.098095
     63          6           0       -8.342757    4.606423   -1.409097
     64          6           0       -9.854380    5.122275   -1.113929
     65          6           0      -10.588951    5.423810   -2.498024
     66          6           0       -9.966882    6.171244    0.018510
     67          1           0        1.086108    1.656507   -3.395153
     68          1           0        4.682809    5.411878    0.351901
     69          1           0        7.486641    0.395980    2.959592
     70          1           0        2.320912   -2.862978   -2.725855
     71          1           0        0.430205   -0.666432   -2.482616
     72          1           0        1.858843   -0.245557   -4.773169
     73          1           0        0.251420   -1.104830   -4.676317
     74          1           0        1.707878   -2.111203   -4.709402
     75          1           0       -0.184939   -2.224090   -1.095961
     76          1           0        0.909669   -3.323626   -0.331430
     77          1           0        0.087199   -4.978648   -1.639759
     78          1           0        0.400624   -4.097673   -3.108199
     79          1           0       -0.257189    4.125274   -2.869731
     80          1           0        0.613796    3.600337   -4.299679
     81          1           0        0.854385    5.125661   -3.937063
     82          1           0        3.009871    6.444355    0.668252
     83          1           0        2.085331    7.895463    0.062498
     84          1           0        3.701059    7.423071   -0.667453
     85          1           0        5.549985    4.782980    2.744086
     86          1           0        7.980230    3.033792    2.546342
     87          1           0        8.302306    5.201073    2.144648
     88          1           0        6.794014    6.134511    1.720701
     89          1           0        7.519672    4.996336    0.555335
     90          1           0        6.123915    1.902274    4.594215
     91          1           0        6.041456    3.626493    4.696211
     92          1           0        8.120403    3.401586    5.971187
     93          1           0        8.845649    2.859347    4.353729
     94          1           0        8.264741    1.751989    5.463162
     95          1           0        7.932212   -3.636253    2.326050
     96          1           0        6.986225   -2.754542    3.621105
     97          1           0        8.489115   -2.094827    2.809028
     98          1           0        3.053175   -4.398804    0.093168
     99          1           0        3.269928   -5.404448   -4.002189
    100          1           0        2.647881   -6.939429   -3.364900
    101          1           0        4.323194   -6.661781   -3.181579
    102          1           0       -4.097499   -4.982616   -1.459730
    103          1           0       -3.972113   -3.192388   -1.544847
    104          1           0       -3.105098   -3.881695    1.240927
    105          1           0       -6.169549   -5.409951   -0.436421
    106          1           0       -6.577932   -3.674843   -0.489631
    107          1           0       -7.328600   -4.692543    0.734901
    108          1           0       -4.365968   -4.426816    2.926089
    109          1           0       -5.898891   -5.209232    2.730709
    110          1           0       -6.130630   -2.432095    2.260609
    111          1           0       -5.402200   -2.527390    3.921796
    112          1           0       -7.551849   -2.939134    4.721263
    113          1           0       -7.628537   -4.318319    3.429594
    114          1           0       -8.181621   -2.503583    1.820050
    115          1           0      -10.522919   -2.823884    3.475115
    116          1           0       -9.742238   -4.317379    2.820959
    117          1           0      -10.399901   -3.002020    1.762816
    118          1           0       -7.800989   -0.634620    3.712586
    119          1           0       -9.402756   -0.879633    4.181240
    120          1           0      -10.251323    0.239603    2.438744
    121          1           0       -9.260414   -0.592467    1.248191
    122          1           0       -7.672853    1.278246    2.737313
    123          1           0       -8.987828    2.114536    1.947358
    124          1           0       -8.153789    0.670191   -0.115328
    125          1           0       -6.033531    0.110333    1.733326
    126          1           0       -5.438784    1.160310    0.397829
    127          1           0       -6.275208   -0.337161    0.031563
    128          1           0       -6.358277    2.991589   -0.052884
    129          1           0       -7.666467    3.425164    0.985183
    130          1           0       -9.249712    2.693953   -1.042485
    131          1           0       -7.683014    2.629133   -1.937561
    132          1           0       -7.979149    4.704634   -2.431996
    133          1           0       -7.612471    5.201683   -0.860434
    134          1           0      -10.532176    4.368721   -0.714441
    135          1           0      -11.236820    6.300043   -2.489658
    136          1           0      -11.159514    4.525578   -2.736838
    137          1           0       -9.980020    5.467262   -3.400371
    138          1           0      -10.025693    5.789788    1.037548
    139          1           0      -10.836901    6.784206   -0.218663
    140          1           0       -9.089988    6.819520    0.002739
 ---------------------------------------------------------------------

 SCF Done:  E(RCAM-B3LYP) =  -3007.12982869     A.U. after   17 cycles

 Excitation energies and oscillator strengths:

 Excited State   1:      Singlet-A      1.6708 eV  742.06 nm  f=0.3517  <S**2>=0.000
     245 -> 248       -0.18245
     246 -> 247        0.68270
     245 <- 248       -0.10671
 This state for optimization and/or second-order correction.
 Total Energy, E(TD-HF/TD-DFT) =  -3007.06842757
 Copying the excited state density for this state as the 1-particle RhoCI density.

 Excited State   2:      Singlet-A      2.2144 eV  559.90 nm  f=0.0867  <S**2>=0.000
     245 -> 247        0.61858
     246 -> 248        0.32236

 Excited State   3:      Singlet-A      3.1389 eV  394.99 nm  f=0.0005  <S**2>=0.000
     243 -> 251       -0.12300
     244 -> 247        0.61493
     244 -> 249        0.15275
     244 -> 250        0.10459
     244 -> 251       -0.14143

 Excited State   4:      Singlet-A      3.2706 eV  379.09 nm  f=0.0013  <S**2>=0.000
     241 -> 247       -0.11183
     243 -> 247        0.63216
     243 -> 249        0.12378
     244 -> 247       -0.14582
     244 -> 251       -0.10299

 Excited State   5:      Singlet-A      3.3702 eV  367.88 nm  f=0.6210  <S**2>=0.000
     240 -> 247       -0.16230
     241 -> 247       -0.22765
     245 -> 247       -0.28837
     246 -> 248        0.57662
     245 <- 247        0.10440

 The electronic state is 1-A.
 Alpha  occ. eigenvalues --  -46.88999 -19.26543 -19.25531 -19.20392 -19.20235
 Alpha  occ. eigenvalues --  -19.20205 -19.15990 -14.42545 -14.42151 -14.39842
 Alpha  occ. eigenvalues --  -14.38851 -10.39548 -10.39302 -10.36214 -10.32568
 Alpha  occ. eigenvalues --  -10.32380 -10.32362 -10.32169 -10.31483 -10.31403
 Alpha  occ. eigenvalues --  -10.31288 -10.30429 -10.29983 -10.29513 -10.29368
 Alpha  occ. eigenvalues --  -10.28702 -10.28555 -10.28539 -10.28228 -10.28074
 Alpha  occ. eigenvalues --  -10.27869 -10.27730 -10.27698 -10.27439 -10.27106
 Alpha  occ. eigenvalues --  -10.27011 -10.26999 -10.26943 -10.26910 -10.26811
 Alpha  occ. eigenvalues --  -10.26748 -10.26677 -10.26608 -10.26490 -10.26300
 Alpha  occ. eigenvalues --  -10.26183 -10.25890 -10.25778 -10.25758 -10.25716
 Alpha  occ. eigenvalues --  -10.25522 -10.25394 -10.25288 -10.25192 -10.25147
 Alpha  occ. eigenvalues --  -10.25140 -10.24945 -10.24819 -10.24671 -10.24558
 Alpha  occ. eigenvalues --  -10.24395 -10.24365 -10.24354 -10.24288 -10.24057
 Alpha  occ. eigenvalues --  -10.24034  -3.17499  -1.92405  -1.91933  -1.91815
 Alpha  occ. eigenvalues --   -1.18700  -1.16472  -1.11607  -1.09513  -1.08567
 Alpha  occ. eigenvalues --   -1.07509  -1.05092  -1.04111  -1.03664  -1.01727
 Alpha  occ. eigenvalues --   -0.93615  -0.90262  -0.89896  -0.89244  -0.89119
 Alpha  occ. eigenvalues --   -0.88551  -0.88203  -0.87911  -0.87667  -0.86555
 Alpha  occ. eigenvalues --   -0.86295  -0.85141  -0.84442  -0.83818  -0.83320
 Alpha  occ. eigenvalues --   -0.82518  -0.82136  -0.81045  -0.80461  -0.80115
 Alpha  occ. eigenvalues --   -0.79520  -0.78500  -0.77875  -0.77091  -0.76465
 Alpha  occ. eigenvalues --   -0.76334  -0.75642  -0.75360  -0.74489  -0.73760
 Alpha  occ. eigenvalues --   -0.73222  -0.72853  -0.72477  -0.70601  -0.69716
 Alpha  occ. eigenvalues --   -0.69222  -0.67847  -0.67512  -0.66537  -0.66327
 Alpha  occ. eigenvalues --   -0.65631  -0.64834  -0.64682  -0.64426  -0.64262
 Alpha  occ. eigenvalues --   -0.63534  -0.63075  -0.63030  -0.62532  -0.60366
 Alpha  occ. eigenvalues --   -0.59818  -0.59338  -0.59207  -0.59138  -0.58501
 Alpha  occ. eigenvalues --   -0.57757  -0.56946  -0.56641  -0.56495  -0.56213
 Alpha  occ. eigenvalues --   -0.55900  -0.54819  -0.54670  -0.54572  -0.54287
 Alpha  occ. eigenvalues --   -0.53941  -0.53429  -0.53280  -0.52971  -0.52748
 Alpha  occ. eigenvalues --   -0.52545  -0.52309  -0.52175  -0.51938  -0.51658
 Alpha  occ. eigenvalues --   -0.51391  -0.51174  -0.50936  -0.50803  -0.50600
 Alpha  occ. eigenvalues --   -0.50413  -0.50312  -0.49980  -0.49962  -0.49830
 Alpha  occ. eigenvalues --   -0.49712  -0.49506  -0.49322  -0.49286  -0.48988
 Alpha  occ. eigenvalues --   -0.48505  -0.48413  -0.48142  -0.47836  -0.47724
 Alpha  occ. eigenvalues --   -0.47623  -0.47458  -0.47354  -0.46983  -0.46688
 Alpha  occ. eigenvalues --   -0.46466  -0.46217  -0.46093  -0.45947  -0.45775
 Alpha  occ. eigenvalues --   -0.45549  -0.45468  -0.45258  -0.45078  -0.44984
 Alpha  occ. eigenvalues --   -0.44889  -0.44742  -0.44628  -0.44387  -0.44092
 Alpha  occ. eigenvalues --   -0.43949  -0.43847  -0.43743  -0.43635  -0.43269
 Alpha  occ. eigenvalues --   -0.42948  -0.42878  -0.42600  -0.42391  -0.42048
 Alpha  occ. eigenvalues --   -0.41792  -0.41740  -0.41644  -0.41417  -0.41203
 Alpha  occ. eigenvalues --   -0.40825  -0.40551  -0.40423  -0.40169  -0.39935
 Alpha  occ. eigenvalues --   -0.39680  -0.39661  -0.39119  -0.38698  -0.38513
 Alpha  occ. eigenvalues --   -0.38333  -0.38148  -0.38097  -0.37590  -0.37560
 Alpha  occ. eigenvalues --   -0.37405  -0.37052  -0.36910  -0.36882  -0.36558
 Alpha  occ. eigenvalues --   -0.36154  -0.35783  -0.35210  -0.34580  -0.34560
 Alpha  occ. eigenvalues --   -0.33648  -0.33574  -0.33567  -0.31988  -0.31159
 Alpha  occ. eigenvalues --   -0.30596  -0.30057  -0.28973  -0.28436  -0.24412
 Alpha  occ. eigenvalues --   -0.21232
 Alpha virt. eigenvalues --   -0.08930  -0.02666   0.00044   0.02163   0.02658
 Alpha virt. eigenvalues --    0.04592   0.05169   0.05275   0.05876   0.06374
 Alpha virt. eigenvalues --    0.07417   0.07735   0.08149   0.08434   0.08711

 Mulliken charges:
               1
     1  Mg   0.819516
     2  C   -0.040125
     3  C   -0.070918
     4  C   -0.069504
     5  C   -0.087852
     6  N   -0.259208
     7  C   -0.045638
     8  C   -0.024178
     9  C   -0.065780
    10  C    0.045946
    11  C    0.138808
    12  C    0.080996
    13  C    0.112330
    14  C    0.119657
    15  O   -0.235945
    16  O   -0.341907
    17  N   -0.354592
    18  C    0.092317
    19  C   -0.093939
    20  C   -0.012680
    21  C    0.171586
    22  C    0.113226
    23  C   -0.098417
    24  O   -0.240741
    25  C    0.082575
    26  N   -0.341269
    27  C    0.007530
    28  C   -0.060730
    29  C   -0.061614
    30  C    0.059289
    31  C    0.055107
    32  C    0.041976
    33  C    0.000145
    34  N   -0.377009
    35  C    0.174983
    36  C   -0.180778
    37  C   -0.036040
    38  C    0.131556
    39  C    0.107046
    40  C    0.088437
    41  O   -0.137633
    42  C    0.040456
    43  C    0.138049
    44  O   -0.192405
    45  O   -0.322136
    46  C    0.176802
    47  C    0.281757
    48  C   -0.111421
    49  C   -0.215677
    50  C    0.069932
    51  C    0.071171
    52  C    0.003855
    53  C    0.078923
    54  C   -0.157282
    55  C    0.070492
    56  C    0.022279
    57  C    0.036123
    58  C    0.052199
    59  C   -0.148321
    60  C    0.030295
    61  C    0.082333
    62  C   -0.011619
    63  C    0.050261
    64  C   -0.136832
    65  C    0.021090
    66  C    0.037556
    67  H   -0.023079
    68  H   -0.042680
    69  H   -0.026084
    70  H   -0.006780
    71  H    0.015392
    72  H    0.019760
    73  H    0.027842
    74  H    0.015160
    75  H    0.017031
    76  H    0.016950
    77  H    0.022118
    78  H    0.018073
    79  H    0.035127
    80  H    0.006935
    81  H    0.032431
    82  H    0.013440
    83  H    0.036094
    84  H    0.039878
    85  H    0.022624
    86  H    0.023132
    87  H    0.031750
    88  H    0.023545
    89  H    0.024030
    90  H    0.017482
    91  H    0.012549
    92  H    0.027279
    93  H    0.007493
    94  H    0.009162
    95  H    0.036271
    96  H    0.051690
    97  H    0.018388
    98  H    0.028989
    99  H    0.034257
   100  H    0.028955
   101  H    0.058172
   102  H    0.029012
   103  H    0.041058
   104  H    0.002746
   105  H    0.029958
   106  H    0.029043
   107  H    0.021471
   108  H   -0.016335
   109  H    0.004004
   110  H    0.015350
   111  H    0.013356
   112  H    0.005748
   113  H   -0.017570
   114  H   -0.014723
   115  H   -0.001919
   116  H    0.007707
   117  H    0.010957
   118  H   -0.015336
   119  H   -0.002160
   120  H   -0.002282
   121  H   -0.009716
   122  H   -0.009921
   123  H   -0.014741
   124  H   -0.003136
   125  H    0.021548
   126  H   -0.001800
   127  H    0.004015
   128  H   -0.007426
   129  H   -0.006338
   130  H    0.006913
   131  H   -0.002032
   132  H   -0.004226
   133  H   -0.007117
   134  H    0.007670
   135  H    0.010246
   136  H    0.001621
   137  H    0.005001
   138  H    0.016608
   139  H    0.002294
   140  H    0.002671
 Sum of Mulliken charges =  -0.00000

 Dipole moment (field-independent basis, Debye):
    X=              1.0364    Y=             -0.9390    Z=              3.5172  Tot=              3.7850
 Quadrupole moment (field-independent basis, Debye-Ang):
   XX=           -377.2209   YY=           -432.7578   ZZ=           -397.1269
   XY=             37.3820   XZ=             15.6318   YZ=             25.6154

 Normal termination of Gaussian 16 at Fri Apr 29 12:07:24 2022.
