 Gaussian 16, Revision A.03,
 Gaussian 16:  ES64L-G16RevA.03 25-Dec-2016

 ---------------------------------
 #p PBE1PBE/Def2SVP td=(nstates=5)
 ---------------------------------

 -----------------------------------------------------
 step_301_chromophore_17 TDDFT with PBE1PBE functional
 -----------------------------------------------------
 Symbolic Z-matrix:
 Charge =  0 Multiplicity = 1

                         Standard orientation:
 ---------------------------------------------------------------------
 Center     Atomic      Atomic             Coordinates (Angstroms)
 Number     Number       Type             X           Y           Z
 ---------------------------------------------------------------------
      1         12           0        4.443180    1.015108   -0.258161
      2          6           0        3.825800   -2.478363   -0.435281
      3          6           0        1.868033    1.475337   -2.654397
      4          6           0        4.464386    4.347400    0.249800
      5          6           0        6.724787    0.419605    2.177727
      6          7           0        2.921951   -0.367328   -1.278035
      7          6           0        2.919720   -1.697749   -1.236150
      8          6           0        1.794373   -2.157461   -2.082880
      9          6           0        1.371675   -0.960659   -2.946443
     10          6           0        2.213333    0.126666   -2.369607
     11          6           0        1.315337   -1.129865   -4.441209
     12          6           0        0.621811   -2.926461   -1.305194
     13          6           0       -0.026379   -4.002392   -2.110183
     14          6           0       -1.550405   -3.852444   -2.210336
     15          8           0       -2.070311   -3.411158   -3.227238
     16          8           0       -2.208241   -4.220135   -1.039902
     17          7           0        3.238322    2.683816   -1.024049
     18          6           0        2.276433    2.720524   -2.096973
     19          6           0        1.792625    3.954382   -2.363222
     20          6           0        2.441122    4.780022   -1.397825
     21          6           0        3.455137    3.957919   -0.678869
     22          6           0        0.697287    4.195569   -3.389687
     23          6           0        2.178996    6.196203   -1.239234
     24          8           0        1.407796    6.756189   -2.020743
     25          6           0        2.783943    7.093576   -0.176926
     26          7           0        5.401402    2.236944    1.075217
     27          6           0        5.331070    3.600673    1.064109
     28          6           0        6.248660    4.217648    2.126472
     29          6           0        6.923634    2.909992    2.785275
     30          6           0        6.253601    1.770741    2.040721
     31          6           0        7.351365    5.203215    1.612478
     32          6           0        6.685868    2.809445    4.371854
     33          6           0        8.053704    2.755923    5.096133
     34          7           0        5.239147   -0.677500    0.590278
     35          6           0        6.233652   -0.745894    1.589221
     36          6           0        6.630505   -2.181099    1.688319
     37          6           0        5.659338   -2.858622    0.949704
     38          6           0        4.784186   -1.898546    0.384398
     39          6           0        7.574907   -2.679842    2.706733
     40          6           0        5.160399   -4.219775    0.594667
     41          8           0        5.560100   -5.340247    0.816512
     42          6           0        3.945489   -3.960685   -0.352577
     43          6           0        4.116272   -4.664037   -1.639568
     44          8           0        5.108877   -4.592298   -2.297238
     45          8           0        3.029128   -5.406604   -1.961122
     46          6           0        3.367562   -6.137323   -3.202274
     47          6           0       -3.630315   -4.093474   -1.035769
     48          6           0       -3.905098   -3.988211    0.507530
     49          6           0       -5.134076   -4.232151    1.012703
     50          6           0       -6.414725   -4.533148    0.162572
     51          6           0       -5.359948   -4.290715    2.500237
     52          6           0       -6.035442   -3.011739    3.178753
     53          6           0       -7.472762   -3.270710    3.685834
     54          6           0       -8.568744   -2.523349    2.838655
     55          6           0       -9.889560   -3.245633    2.695012
     56          6           0       -8.747203   -1.006334    3.319650
     57          6           0       -9.225908   -0.016155    2.172792
     58          6           0       -8.383434    1.208069    1.913757
     59          6           0       -7.615159    1.308740    0.584649
     60          6           0       -6.234865    0.495639    0.733485
     61          6           0       -7.403906    2.768252    0.155998
     62          6           0       -8.225478    3.063660   -1.098095
     63          6           0       -8.342757    4.606423   -1.409097
     64          6           0       -9.854380    5.122275   -1.113929
     65          6           0      -10.588951    5.423810   -2.498024
     66          6           0       -9.966882    6.171244    0.018510
     67          1           0        1.086108    1.656507   -3.395153
     68          1           0        4.682809    5.411878    0.351901
     69          1           0        7.486641    0.395980    2.959592
     70          1           0        2.320912   -2.862978   -2.725855
     71          1           0        0.430205   -0.666432   -2.482616
     72          1           0        1.858843   -0.245557   -4.773169
     73          1           0        0.251420   -1.104830   -4.676317
     74          1           0        1.707878   -2.111203   -4.709402
     75          1           0       -0.184939   -2.224090   -1.095961
     76          1           0        0.909669   -3.323626   -0.331430
     77          1           0        0.087199   -4.978648   -1.639759
     78          1           0        0.400624   -4.097673   -3.108199
     79          1           0       -0.257189    4.125274   -2.869731
     80          1           0        0.613796    3.600337   -4.299679
     81          1           0        0.854385    5.125661   -3.937063
     82          1           0        3.009871    6.444355    0.668252
     83          1           0        2.085331    7.895463    0.062498
     84          1           0        3.701059    7.423071   -0.667453
     85          1           0        5.549985    4.782980    2.744086
     86          1           0        7.980230    3.033792    2.546342
     87          1           0        8.302306    5.201073    2.144648
     88          1           0        6.794014    6.134511    1.720701
     89          1           0        7.519672    4.996336    0.555335
     90          1           0        6.123915    1.902274    4.594215
     91          1           0        6.041456    3.626493    4.696211
     92          1           0        8.120403    3.401586    5.971187
     93          1           0        8.845649    2.859347    4.353729
     94          1           0        8.264741    1.751989    5.463162
     95          1           0        7.932212   -3.636253    2.326050
     96          1           0        6.986225   -2.754542    3.621105
     97          1           0        8.489115   -2.094827    2.809028
     98          1           0        3.053175   -4.398804    0.093168
     99          1           0        3.269928   -5.404448   -4.002189
    100          1           0        2.647881   -6.939429   -3.364900
    101          1           0        4.323194   -6.661781   -3.181579
    102          1           0       -4.097499   -4.982616   -1.459730
    103          1           0       -3.972113   -3.192388   -1.544847
    104          1           0       -3.105098   -3.881695    1.240927
    105          1           0       -6.169549   -5.409951   -0.436421
    106          1           0       -6.577932   -3.674843   -0.489631
    107          1           0       -7.328600   -4.692543    0.734901
    108          1           0       -4.365968   -4.426816    2.926089
    109          1           0       -5.898891   -5.209232    2.730709
    110          1           0       -6.130630   -2.432095    2.260609
    111          1           0       -5.402200   -2.527390    3.921796
    112          1           0       -7.551849   -2.939134    4.721263
    113          1           0       -7.628537   -4.318319    3.429594
    114          1           0       -8.181621   -2.503583    1.820050
    115          1           0      -10.522919   -2.823884    3.475115
    116          1           0       -9.742238   -4.317379    2.820959
    117          1           0      -10.399901   -3.002020    1.762816
    118          1           0       -7.800989   -0.634620    3.712586
    119          1           0       -9.402756   -0.879633    4.181240
    120          1           0      -10.251323    0.239603    2.438744
    121          1           0       -9.260414   -0.592467    1.248191
    122          1           0       -7.672853    1.278246    2.737313
    123          1           0       -8.987828    2.114536    1.947358
    124          1           0       -8.153789    0.670191   -0.115328
    125          1           0       -6.033531    0.110333    1.733326
    126          1           0       -5.438784    1.160310    0.397829
    127          1           0       -6.275208   -0.337161    0.031563
    128          1           0       -6.358277    2.991589   -0.052884
    129          1           0       -7.666467    3.425164    0.985183
    130          1           0       -9.249712    2.693953   -1.042485
    131          1           0       -7.683014    2.629133   -1.937561
    132          1           0       -7.979149    4.704634   -2.431996
    133          1           0       -7.612471    5.201683   -0.860434
    134          1           0      -10.532176    4.368721   -0.714441
    135          1           0      -11.236820    6.300043   -2.489658
    136          1           0      -11.159514    4.525578   -2.736838
    137          1           0       -9.980020    5.467262   -3.400371
    138          1           0      -10.025693    5.789788    1.037548
    139          1           0      -10.836901    6.784206   -0.218663
    140          1           0       -9.089988    6.819520    0.002739
 ---------------------------------------------------------------------

 SCF Done:  E(RPBE1PBE) =  -3005.31831728     A.U. after   19 cycles

 Excitation energies and oscillator strengths:

 Excited State   1:      Singlet-A      1.8002 eV  688.71 nm  f=0.3348  <S**2>=0.000
     245 -> 248       -0.17816
     246 -> 247        0.68939
     246 <- 247       -0.10585
 This state for optimization and/or second-order correction.
 Total Energy, E(TD-HF/TD-DFT) =  -3005.25215994
 Copying the excited state density for this state as the 1-particle RhoCI density.

 Excited State   2:      Singlet-A      2.2002 eV  563.50 nm  f=0.0876  <S**2>=0.000
     245 -> 247        0.63235
     246 -> 248        0.29067

 Excited State   3:      Singlet-A      2.4964 eV  496.66 nm  f=0.0009  <S**2>=0.000
     244 -> 247        0.67899
     244 -> 249        0.10056
     244 -> 250       -0.11559

 Excited State   4:      Singlet-A      2.8740 eV  431.40 nm  f=0.0049  <S**2>=0.000
     243 -> 247        0.68949

 Excited State   5:      Singlet-A      3.1073 eV  399.00 nm  f=0.0012  <S**2>=0.000
     239 -> 247        0.27630
     239 -> 249       -0.10706
     240 -> 247        0.60288
     240 -> 249       -0.14568
     241 -> 247        0.10071

 The electronic state is 1-A.
 Alpha  occ. eigenvalues --  -46.92361 -19.27068 -19.26260 -19.20544 -19.20301
 Alpha  occ. eigenvalues --  -19.20299 -19.16550 -14.42045 -14.41616 -14.39364
 Alpha  occ. eigenvalues --  -14.38649 -10.36640 -10.36185 -10.33110 -10.29999
 Alpha  occ. eigenvalues --  -10.29808 -10.29781 -10.29338 -10.29109 -10.29035
 Alpha  occ. eigenvalues --  -10.28752 -10.28471 -10.27900 -10.26900 -10.26721
 Alpha  occ. eigenvalues --  -10.26497 -10.26387 -10.26213 -10.26168 -10.25658
 Alpha  occ. eigenvalues --  -10.25538 -10.25432 -10.25307 -10.25007 -10.24884
 Alpha  occ. eigenvalues --  -10.24827 -10.24697 -10.24696 -10.24566 -10.24475
 Alpha  occ. eigenvalues --  -10.24332 -10.24043 -10.23977 -10.23934 -10.23904
 Alpha  occ. eigenvalues --  -10.23892 -10.23563 -10.23503 -10.23494 -10.23267
 Alpha  occ. eigenvalues --  -10.23118 -10.22972 -10.22972 -10.22915 -10.22737
 Alpha  occ. eigenvalues --  -10.22733 -10.22440 -10.22415 -10.22202 -10.22113
 Alpha  occ. eigenvalues --  -10.21954 -10.21783 -10.21744 -10.21689 -10.21583
 Alpha  occ. eigenvalues --  -10.21474  -3.14442  -1.87288  -1.86795  -1.86681
 Alpha  occ. eigenvalues --   -1.13362  -1.11322  -1.06088  -1.04228  -1.03467
 Alpha  occ. eigenvalues --   -1.02533  -0.99588  -0.98674  -0.98217  -0.96631
 Alpha  occ. eigenvalues --   -0.87786  -0.84456  -0.84076  -0.83464  -0.83326
 Alpha  occ. eigenvalues --   -0.82817  -0.82462  -0.82039  -0.81868  -0.80944
 Alpha  occ. eigenvalues --   -0.80414  -0.79577  -0.78645  -0.78048  -0.77594
 Alpha  occ. eigenvalues --   -0.76729  -0.76340  -0.75403  -0.74758  -0.74362
 Alpha  occ. eigenvalues --   -0.73672  -0.72738  -0.72146  -0.71450  -0.70821
 Alpha  occ. eigenvalues --   -0.70484  -0.70028  -0.69467  -0.68610  -0.67958
 Alpha  occ. eigenvalues --   -0.67576  -0.67223  -0.66928  -0.64911  -0.63982
 Alpha  occ. eigenvalues --   -0.63628  -0.62097  -0.62010  -0.60917  -0.60563
 Alpha  occ. eigenvalues --   -0.60129  -0.59228  -0.59055  -0.59025  -0.58771
 Alpha  occ. eigenvalues --   -0.57687  -0.57497  -0.57235  -0.56725  -0.54762
 Alpha  occ. eigenvalues --   -0.54328  -0.53939  -0.53636  -0.53572  -0.53080
 Alpha  occ. eigenvalues --   -0.52405  -0.51355  -0.51031  -0.50927  -0.50689
 Alpha  occ. eigenvalues --   -0.50450  -0.49440  -0.49208  -0.49148  -0.48859
 Alpha  occ. eigenvalues --   -0.48497  -0.47845  -0.47761  -0.47519  -0.47151
 Alpha  occ. eigenvalues --   -0.47031  -0.46856  -0.46663  -0.46517  -0.46216
 Alpha  occ. eigenvalues --   -0.45967  -0.45755  -0.45537  -0.45261  -0.45116
 Alpha  occ. eigenvalues --   -0.44988  -0.44958  -0.44613  -0.44482  -0.44419
 Alpha  occ. eigenvalues --   -0.44331  -0.44089  -0.43991  -0.43834  -0.43567
 Alpha  occ. eigenvalues --   -0.43156  -0.43096  -0.42734  -0.42497  -0.42331
 Alpha  occ. eigenvalues --   -0.42229  -0.42165  -0.41992  -0.41699  -0.41299
 Alpha  occ. eigenvalues --   -0.41189  -0.40962  -0.40803  -0.40569  -0.40511
 Alpha  occ. eigenvalues --   -0.40274  -0.40225  -0.40032  -0.39749  -0.39716
 Alpha  occ. eigenvalues --   -0.39548  -0.39445  -0.39333  -0.39087  -0.38753
 Alpha  occ. eigenvalues --   -0.38741  -0.38670  -0.38354  -0.38342  -0.38095
 Alpha  occ. eigenvalues --   -0.37772  -0.37622  -0.37495  -0.37157  -0.37028
 Alpha  occ. eigenvalues --   -0.36683  -0.36569  -0.36468  -0.36207  -0.36007
 Alpha  occ. eigenvalues --   -0.35746  -0.35382  -0.35193  -0.35167  -0.34777
 Alpha  occ. eigenvalues --   -0.34635  -0.34476  -0.34112  -0.33522  -0.33357
 Alpha  occ. eigenvalues --   -0.33153  -0.33104  -0.32968  -0.32587  -0.32440
 Alpha  occ. eigenvalues --   -0.32361  -0.31972  -0.31764  -0.31693  -0.31608
 Alpha  occ. eigenvalues --   -0.31024  -0.30622  -0.30014  -0.29748  -0.29509
 Alpha  occ. eigenvalues --   -0.29065  -0.28577  -0.28483  -0.26853  -0.26411
 Alpha  occ. eigenvalues --   -0.26157  -0.25356  -0.24703  -0.23587  -0.21292
 Alpha  occ. eigenvalues --   -0.18884
 Alpha virt. eigenvalues --   -0.11435  -0.06102  -0.04092  -0.01967  -0.00387
 Alpha virt. eigenvalues --    0.00111   0.00684   0.00795   0.01352   0.02739
 Alpha virt. eigenvalues --    0.03968   0.04212   0.04377   0.04774   0.05480

 Mulliken charges:
               1
     1  Mg   0.964638
     2  C   -0.055919
     3  C   -0.067952
     4  C   -0.074838
     5  C   -0.080110
     6  N   -0.361322
     7  C    0.035848
     8  C   -0.098049
     9  C   -0.146232
    10  C    0.090828
    11  C    0.074305
    12  C    0.027192
    13  C    0.039769
    14  C    0.182155
    15  O   -0.268167
    16  O   -0.372155
    17  N   -0.461059
    18  C    0.110172
    19  C   -0.110766
    20  C   -0.077839
    21  C    0.212020
    22  C    0.059531
    23  C   -0.039942
    24  O   -0.271815
    25  C    0.003025
    26  N   -0.450182
    27  C    0.053348
    28  C   -0.131975
    29  C   -0.144890
    30  C    0.095715
    31  C   -0.004778
    32  C   -0.010455
    33  C   -0.073439
    34  N   -0.494321
    35  C    0.178812
    36  C   -0.188579
    37  C   -0.090764
    38  C    0.184787
    39  C    0.049558
    40  C    0.190469
    41  O   -0.187719
    42  C   -0.071807
    43  C    0.230250
    44  O   -0.226728
    45  O   -0.354956
    46  C    0.118203
    47  C    0.244709
    48  C   -0.124013
    49  C   -0.259143
    50  C    0.002956
    51  C    0.012800
    52  C   -0.064437
    53  C    0.018517
    54  C   -0.246166
    55  C    0.011931
    56  C   -0.028264
    57  C   -0.023557
    58  C   -0.003665
    59  C   -0.232634
    60  C   -0.026514
    61  C    0.027226
    62  C   -0.080317
    63  C    0.000454
    64  C   -0.226857
    65  C   -0.037413
    66  C   -0.023785
    67  H    0.008016
    68  H   -0.006695
    69  H    0.007251
    70  H    0.040214
    71  H    0.056005
    72  H    0.047725
    73  H    0.055320
    74  H    0.042936
    75  H    0.050127
    76  H    0.049278
    77  H    0.055140
    78  H    0.050142
    79  H    0.064469
    80  H    0.033229
    81  H    0.059574
    82  H    0.041892
    83  H    0.064221
    84  H    0.068302
    85  H    0.058062
    86  H    0.058498
    87  H    0.059217
    88  H    0.050259
    89  H    0.052317
    90  H    0.050068
    91  H    0.043538
    92  H    0.054267
    93  H    0.034370
    94  H    0.036764
    95  H    0.063565
    96  H    0.078319
    97  H    0.044200
    98  H    0.067084
    99  H    0.056312
   100  H    0.050903
   101  H    0.079983
   102  H    0.055694
   103  H    0.066609
   104  H    0.032119
   105  H    0.057624
   106  H    0.056199
   107  H    0.049363
   108  H    0.017359
   109  H    0.036578
   110  H    0.056797
   111  H    0.044051
   112  H    0.038326
   113  H    0.015817
   114  H    0.026266
   115  H    0.026513
   116  H    0.034205
   117  H    0.037994
   118  H    0.017309
   119  H    0.029396
   120  H    0.030351
   121  H    0.022426
   122  H    0.023063
   123  H    0.019091
   124  H    0.033513
   125  H    0.048035
   126  H    0.025694
   127  H    0.030916
   128  H    0.024475
   129  H    0.026151
   130  H    0.039602
   131  H    0.031688
   132  H    0.026953
   133  H    0.023767
   134  H    0.044162
   135  H    0.036655
   136  H    0.029119
   137  H    0.031573
   138  H    0.043444
   139  H    0.030116
   140  H    0.030418
 Sum of Mulliken charges =  -0.00000

 Dipole moment (field-independent basis, Debye):
    X=              0.7127    Y=             -0.3793    Z=              3.2492  Tot=              3.3480
 Quadrupole moment (field-independent basis, Debye-Ang):
   XX=           -375.7261   YY=           -429.1261   ZZ=           -393.3727
   XY=             39.7525   XZ=             15.8800   YZ=             25.4859

 Normal termination of Gaussian 16 at Fri Apr 29 12:28:01 2022.
