 Gaussian 16, Revision A.03,
 Gaussian 16:  ES64L-G16RevA.03 25-Dec-2016

 --------------------------------
 #p wB97XD/Def2SVP td=(nstates=5)
 --------------------------------

 ----------------------------------------------------
 step_301_chromophore_17 TDDFT with wB97XD functional
 ----------------------------------------------------
 Symbolic Z-matrix:
 Charge =  0 Multiplicity = 1

                         Standard orientation:
 ---------------------------------------------------------------------
 Center     Atomic      Atomic             Coordinates (Angstroms)
 Number     Number       Type             X           Y           Z
 ---------------------------------------------------------------------
      1         12           0        4.443180    1.015108   -0.258161
      2          6           0        3.825800   -2.478363   -0.435281
      3          6           0        1.868033    1.475337   -2.654397
      4          6           0        4.464386    4.347400    0.249800
      5          6           0        6.724787    0.419605    2.177727
      6          7           0        2.921951   -0.367328   -1.278035
      7          6           0        2.919720   -1.697749   -1.236150
      8          6           0        1.794373   -2.157461   -2.082880
      9          6           0        1.371675   -0.960659   -2.946443
     10          6           0        2.213333    0.126666   -2.369607
     11          6           0        1.315337   -1.129865   -4.441209
     12          6           0        0.621811   -2.926461   -1.305194
     13          6           0       -0.026379   -4.002392   -2.110183
     14          6           0       -1.550405   -3.852444   -2.210336
     15          8           0       -2.070311   -3.411158   -3.227238
     16          8           0       -2.208241   -4.220135   -1.039902
     17          7           0        3.238322    2.683816   -1.024049
     18          6           0        2.276433    2.720524   -2.096973
     19          6           0        1.792625    3.954382   -2.363222
     20          6           0        2.441122    4.780022   -1.397825
     21          6           0        3.455137    3.957919   -0.678869
     22          6           0        0.697287    4.195569   -3.389687
     23          6           0        2.178996    6.196203   -1.239234
     24          8           0        1.407796    6.756189   -2.020743
     25          6           0        2.783943    7.093576   -0.176926
     26          7           0        5.401402    2.236944    1.075217
     27          6           0        5.331070    3.600673    1.064109
     28          6           0        6.248660    4.217648    2.126472
     29          6           0        6.923634    2.909992    2.785275
     30          6           0        6.253601    1.770741    2.040721
     31          6           0        7.351365    5.203215    1.612478
     32          6           0        6.685868    2.809445    4.371854
     33          6           0        8.053704    2.755923    5.096133
     34          7           0        5.239147   -0.677500    0.590278
     35          6           0        6.233652   -0.745894    1.589221
     36          6           0        6.630505   -2.181099    1.688319
     37          6           0        5.659338   -2.858622    0.949704
     38          6           0        4.784186   -1.898546    0.384398
     39          6           0        7.574907   -2.679842    2.706733
     40          6           0        5.160399   -4.219775    0.594667
     41          8           0        5.560100   -5.340247    0.816512
     42          6           0        3.945489   -3.960685   -0.352577
     43          6           0        4.116272   -4.664037   -1.639568
     44          8           0        5.108877   -4.592298   -2.297238
     45          8           0        3.029128   -5.406604   -1.961122
     46          6           0        3.367562   -6.137323   -3.202274
     47          6           0       -3.630315   -4.093474   -1.035769
     48          6           0       -3.905098   -3.988211    0.507530
     49          6           0       -5.134076   -4.232151    1.012703
     50          6           0       -6.414725   -4.533148    0.162572
     51          6           0       -5.359948   -4.290715    2.500237
     52          6           0       -6.035442   -3.011739    3.178753
     53          6           0       -7.472762   -3.270710    3.685834
     54          6           0       -8.568744   -2.523349    2.838655
     55          6           0       -9.889560   -3.245633    2.695012
     56          6           0       -8.747203   -1.006334    3.319650
     57          6           0       -9.225908   -0.016155    2.172792
     58          6           0       -8.383434    1.208069    1.913757
     59          6           0       -7.615159    1.308740    0.584649
     60          6           0       -6.234865    0.495639    0.733485
     61          6           0       -7.403906    2.768252    0.155998
     62          6           0       -8.225478    3.063660   -1.098095
     63          6           0       -8.342757    4.606423   -1.409097
     64          6           0       -9.854380    5.122275   -1.113929
     65          6           0      -10.588951    5.423810   -2.498024
     66          6           0       -9.966882    6.171244    0.018510
     67          1           0        1.086108    1.656507   -3.395153
     68          1           0        4.682809    5.411878    0.351901
     69          1           0        7.486641    0.395980    2.959592
     70          1           0        2.320912   -2.862978   -2.725855
     71          1           0        0.430205   -0.666432   -2.482616
     72          1           0        1.858843   -0.245557   -4.773169
     73          1           0        0.251420   -1.104830   -4.676317
     74          1           0        1.707878   -2.111203   -4.709402
     75          1           0       -0.184939   -2.224090   -1.095961
     76          1           0        0.909669   -3.323626   -0.331430
     77          1           0        0.087199   -4.978648   -1.639759
     78          1           0        0.400624   -4.097673   -3.108199
     79          1           0       -0.257189    4.125274   -2.869731
     80          1           0        0.613796    3.600337   -4.299679
     81          1           0        0.854385    5.125661   -3.937063
     82          1           0        3.009871    6.444355    0.668252
     83          1           0        2.085331    7.895463    0.062498
     84          1           0        3.701059    7.423071   -0.667453
     85          1           0        5.549985    4.782980    2.744086
     86          1           0        7.980230    3.033792    2.546342
     87          1           0        8.302306    5.201073    2.144648
     88          1           0        6.794014    6.134511    1.720701
     89          1           0        7.519672    4.996336    0.555335
     90          1           0        6.123915    1.902274    4.594215
     91          1           0        6.041456    3.626493    4.696211
     92          1           0        8.120403    3.401586    5.971187
     93          1           0        8.845649    2.859347    4.353729
     94          1           0        8.264741    1.751989    5.463162
     95          1           0        7.932212   -3.636253    2.326050
     96          1           0        6.986225   -2.754542    3.621105
     97          1           0        8.489115   -2.094827    2.809028
     98          1           0        3.053175   -4.398804    0.093168
     99          1           0        3.269928   -5.404448   -4.002189
    100          1           0        2.647881   -6.939429   -3.364900
    101          1           0        4.323194   -6.661781   -3.181579
    102          1           0       -4.097499   -4.982616   -1.459730
    103          1           0       -3.972113   -3.192388   -1.544847
    104          1           0       -3.105098   -3.881695    1.240927
    105          1           0       -6.169549   -5.409951   -0.436421
    106          1           0       -6.577932   -3.674843   -0.489631
    107          1           0       -7.328600   -4.692543    0.734901
    108          1           0       -4.365968   -4.426816    2.926089
    109          1           0       -5.898891   -5.209232    2.730709
    110          1           0       -6.130630   -2.432095    2.260609
    111          1           0       -5.402200   -2.527390    3.921796
    112          1           0       -7.551849   -2.939134    4.721263
    113          1           0       -7.628537   -4.318319    3.429594
    114          1           0       -8.181621   -2.503583    1.820050
    115          1           0      -10.522919   -2.823884    3.475115
    116          1           0       -9.742238   -4.317379    2.820959
    117          1           0      -10.399901   -3.002020    1.762816
    118          1           0       -7.800989   -0.634620    3.712586
    119          1           0       -9.402756   -0.879633    4.181240
    120          1           0      -10.251323    0.239603    2.438744
    121          1           0       -9.260414   -0.592467    1.248191
    122          1           0       -7.672853    1.278246    2.737313
    123          1           0       -8.987828    2.114536    1.947358
    124          1           0       -8.153789    0.670191   -0.115328
    125          1           0       -6.033531    0.110333    1.733326
    126          1           0       -5.438784    1.160310    0.397829
    127          1           0       -6.275208   -0.337161    0.031563
    128          1           0       -6.358277    2.991589   -0.052884
    129          1           0       -7.666467    3.425164    0.985183
    130          1           0       -9.249712    2.693953   -1.042485
    131          1           0       -7.683014    2.629133   -1.937561
    132          1           0       -7.979149    4.704634   -2.431996
    133          1           0       -7.612471    5.201683   -0.860434
    134          1           0      -10.532176    4.368721   -0.714441
    135          1           0      -11.236820    6.300043   -2.489658
    136          1           0      -11.159514    4.525578   -2.736838
    137          1           0       -9.980020    5.467262   -3.400371
    138          1           0      -10.025693    5.789788    1.037548
    139          1           0      -10.836901    6.784206   -0.218663
    140          1           0       -9.089988    6.819520    0.002739
 ---------------------------------------------------------------------

 SCF Done:  E(RwB97XD) =  -3007.82895076     A.U. after   17 cycles

 Excitation energies and oscillator strengths:

 Excited State   1:      Singlet-A      1.6210 eV  764.84 nm  f=0.3494  <S**2>=0.000
     245 -> 248       -0.18627
     246 -> 247        0.67985
     245 <- 248       -0.11538
 This state for optimization and/or second-order correction.
 Total Energy, E(TD-HF/TD-DFT) =  -3007.76937861
 Copying the excited state density for this state as the 1-particle RhoCI density.

 Excited State   2:      Singlet-A      2.1628 eV  573.27 nm  f=0.0869  <S**2>=0.000
     245 -> 247        0.61646
     246 -> 248        0.32281

 Excited State   3:      Singlet-A      3.1898 eV  388.69 nm  f=0.0011  <S**2>=0.000
     243 -> 247       -0.10010
     243 -> 250        0.10037
     244 -> 247        0.58980
     244 -> 249        0.18356
     244 -> 250        0.22099

 Excited State   4:      Singlet-A      3.3196 eV  373.49 nm  f=0.0023  <S**2>=0.000
     241 -> 247       -0.16122
     243 -> 247        0.62427
     243 -> 249        0.13181
     244 -> 250        0.14906

 Excited State   5:      Singlet-A      3.3753 eV  367.32 nm  f=0.5623  <S**2>=0.000
     240 -> 247       -0.19043
     241 -> 247       -0.25281
     245 -> 247       -0.27079
     246 -> 248        0.55912
     245 <- 247        0.10590

 The electronic state is 1-A.
 Alpha  occ. eigenvalues --  -46.95335 -19.31790 -19.30803 -19.25528 -19.25201
 Alpha  occ. eigenvalues --  -19.25172 -19.20933 -14.47130 -14.46753 -14.44487
 Alpha  occ. eigenvalues --  -14.43424 -10.43401 -10.43172 -10.40321 -10.36474
 Alpha  occ. eigenvalues --  -10.36456 -10.36244 -10.35955 -10.35561 -10.35526
 Alpha  occ. eigenvalues --  -10.35280 -10.34392 -10.33930 -10.33576 -10.33571
 Alpha  occ. eigenvalues --  -10.32794 -10.32747 -10.32581 -10.32325 -10.31990
 Alpha  occ. eigenvalues --  -10.31918 -10.31801 -10.31689 -10.31404 -10.31151
 Alpha  occ. eigenvalues --  -10.31013 -10.30975 -10.30932 -10.30928 -10.30761
 Alpha  occ. eigenvalues --  -10.30674 -10.30673 -10.30671 -10.30340 -10.30270
 Alpha  occ. eigenvalues --  -10.30025 -10.29855 -10.29772 -10.29734 -10.29551
 Alpha  occ. eigenvalues --  -10.29475 -10.29332 -10.29161 -10.29157 -10.29097
 Alpha  occ. eigenvalues --  -10.29092 -10.28754 -10.28742 -10.28569 -10.28447
 Alpha  occ. eigenvalues --  -10.28295 -10.28186 -10.28166 -10.28083 -10.27930
 Alpha  occ. eigenvalues --  -10.27868  -3.21284  -1.94877  -1.94384  -1.94265
 Alpha  occ. eigenvalues --   -1.20902  -1.18685  -1.13932  -1.11751  -1.10791
 Alpha  occ. eigenvalues --   -1.09629  -1.07143  -1.06130  -1.05695  -1.03706
 Alpha  occ. eigenvalues --   -0.95658  -0.92094  -0.91713  -0.91061  -0.90965
 Alpha  occ. eigenvalues --   -0.90426  -0.90127  -0.89738  -0.89611  -0.88454
 Alpha  occ. eigenvalues --   -0.88054  -0.87048  -0.86384  -0.85649  -0.85195
 Alpha  occ. eigenvalues --   -0.84423  -0.84006  -0.82998  -0.82332  -0.82050
 Alpha  occ. eigenvalues --   -0.81332  -0.80439  -0.79824  -0.79013  -0.78387
 Alpha  occ. eigenvalues --   -0.78175  -0.77566  -0.77133  -0.76286  -0.75591
 Alpha  occ. eigenvalues --   -0.75210  -0.74800  -0.74457  -0.72521  -0.71642
 Alpha  occ. eigenvalues --   -0.71234  -0.69718  -0.69495  -0.68462  -0.68194
 Alpha  occ. eigenvalues --   -0.67604  -0.66693  -0.66661  -0.66417  -0.66239
 Alpha  occ. eigenvalues --   -0.65327  -0.65056  -0.64883  -0.64352  -0.62344
 Alpha  occ. eigenvalues --   -0.61864  -0.61324  -0.61167  -0.61085  -0.60478
 Alpha  occ. eigenvalues --   -0.59754  -0.58859  -0.58564  -0.58399  -0.58163
 Alpha  occ. eigenvalues --   -0.57887  -0.56767  -0.56638  -0.56501  -0.56270
 Alpha  occ. eigenvalues --   -0.55871  -0.55285  -0.55254  -0.54942  -0.54595
 Alpha  occ. eigenvalues --   -0.54527  -0.54229  -0.54116  -0.53862  -0.53572
 Alpha  occ. eigenvalues --   -0.53278  -0.53053  -0.52868  -0.52736  -0.52460
 Alpha  occ. eigenvalues --   -0.52296  -0.52198  -0.51881  -0.51826  -0.51781
 Alpha  occ. eigenvalues --   -0.51619  -0.51401  -0.51209  -0.51151  -0.50883
 Alpha  occ. eigenvalues --   -0.50387  -0.50348  -0.50107  -0.49750  -0.49660
 Alpha  occ. eigenvalues --   -0.49573  -0.49338  -0.49228  -0.48921  -0.48523
 Alpha  occ. eigenvalues --   -0.48391  -0.48122  -0.48036  -0.47887  -0.47694
 Alpha  occ. eigenvalues --   -0.47435  -0.47400  -0.47197  -0.47003  -0.46891
 Alpha  occ. eigenvalues --   -0.46718  -0.46617  -0.46564  -0.46290  -0.45932
 Alpha  occ. eigenvalues --   -0.45892  -0.45789  -0.45715  -0.45649  -0.45201
 Alpha  occ. eigenvalues --   -0.44838  -0.44779  -0.44540  -0.44277  -0.43937
 Alpha  occ. eigenvalues --   -0.43703  -0.43631  -0.43513  -0.43268  -0.43061
 Alpha  occ. eigenvalues --   -0.42723  -0.42439  -0.42266  -0.42144  -0.41807
 Alpha  occ. eigenvalues --   -0.41595  -0.41543  -0.41021  -0.40538  -0.40384
 Alpha  occ. eigenvalues --   -0.40351  -0.40070  -0.39981  -0.39562  -0.39454
 Alpha  occ. eigenvalues --   -0.39399  -0.38972  -0.38797  -0.38710  -0.38542
 Alpha  occ. eigenvalues --   -0.37997  -0.37600  -0.37208  -0.36573  -0.36420
 Alpha  occ. eigenvalues --   -0.35801  -0.35567  -0.35391  -0.34068  -0.33378
 Alpha  occ. eigenvalues --   -0.32811  -0.32098  -0.31005  -0.30353  -0.26341
 Alpha  occ. eigenvalues --   -0.23032
 Alpha virt. eigenvalues --   -0.07277  -0.00749   0.02076   0.04613   0.05507
 Alpha virt. eigenvalues --    0.06931   0.07330   0.07554   0.08098   0.09103
 Alpha virt. eigenvalues --    0.10511   0.10871   0.11101   0.11519   0.12211

 Mulliken charges:
               1
     1  Mg   0.956006
     2  C   -0.059631
     3  C   -0.075495
     4  C   -0.082476
     5  C   -0.100790
     6  N   -0.325973
     7  C    0.002632
     8  C   -0.062779
     9  C   -0.115703
    10  C    0.069835
    11  C    0.086875
    12  C    0.038154
    13  C    0.053446
    14  C    0.175195
    15  O   -0.265836
    16  O   -0.371390
    17  N   -0.430683
    18  C    0.100242
    19  C   -0.105307
    20  C   -0.068066
    21  C    0.198172
    22  C    0.068237
    23  C   -0.049022
    24  O   -0.270676
    25  C    0.019517
    26  N   -0.418497
    27  C    0.035681
    28  C   -0.107478
    29  C   -0.115293
    30  C    0.089869
    31  C    0.005970
    32  C   -0.001782
    33  C   -0.055436
    34  N   -0.462391
    35  C    0.180147
    36  C   -0.185236
    37  C   -0.082721
    38  C    0.168643
    39  C    0.060663
    40  C    0.171165
    41  O   -0.175036
    42  C   -0.030662
    43  C    0.207235
    44  O   -0.222232
    45  O   -0.352639
    46  C    0.134674
    47  C    0.255557
    48  C   -0.134383
    49  C   -0.240740
    50  C    0.018181
    51  C    0.027343
    52  C   -0.036155
    53  C    0.036837
    54  C   -0.206253
    55  C    0.023665
    56  C   -0.015607
    57  C   -0.007645
    58  C    0.015311
    59  C   -0.204729
    60  C   -0.010500
    61  C    0.042333
    62  C   -0.058483
    63  C    0.010696
    64  C   -0.199963
    65  C   -0.024810
    66  C   -0.009549
    67  H   -0.000422
    68  H   -0.018917
    69  H    0.000775
    70  H    0.014667
    71  H    0.041183
    72  H    0.040682
    73  H    0.051275
    74  H    0.036506
    75  H    0.041881
    76  H    0.041631
    77  H    0.049815
    78  H    0.043293
    79  H    0.059041
    80  H    0.027709
    81  H    0.055200
    82  H    0.033378
    83  H    0.062270
    84  H    0.062542
    85  H    0.048258
    86  H    0.045516
    87  H    0.053450
    88  H    0.044898
    89  H    0.046250
    90  H    0.041654
    91  H    0.037775
    92  H    0.050322
    93  H    0.026869
    94  H    0.030269
    95  H    0.060348
    96  H    0.074588
    97  H    0.040826
    98  H    0.059862
    99  H    0.052122
   100  H    0.048101
   101  H    0.075545
   102  H    0.050019
   103  H    0.062548
   104  H    0.029784
   105  H    0.051717
   106  H    0.050475
   107  H    0.042308
   108  H    0.009806
   109  H    0.027972
   110  H    0.029823
   111  H    0.039662
   112  H    0.031622
   113  H    0.001106
   114  H    0.004209
   115  H    0.018962
   116  H    0.028836
   117  H    0.033104
   118  H    0.004652
   119  H    0.022082
   120  H    0.024125
   121  H    0.009633
   122  H    0.011814
   123  H    0.009291
   124  H    0.019806
   125  H    0.038217
   126  H    0.019664
   127  H    0.024641
   128  H    0.016485
   129  H    0.015338
   130  H    0.027720
   131  H    0.023863
   132  H    0.019915
   133  H    0.015414
   134  H    0.032007
   135  H    0.031235
   136  H    0.022592
   137  H    0.025212
   138  H    0.038140
   139  H    0.023499
   140  H    0.023307
 Sum of Mulliken charges =  -0.00000

 Dipole moment (field-independent basis, Debye):
    X=              1.1135    Y=             -1.0675    Z=              3.6127  Tot=              3.9283
 Quadrupole moment (field-independent basis, Debye-Ang):
   XX=           -372.3169   YY=           -428.9015   ZZ=           -393.3315
   XY=             37.2462   XZ=             16.8594   YZ=             26.0221

 Normal termination of Gaussian 16 at Fri Apr 29 12:53:29 2022.
