 Gaussian 16, Revision A.03,
 Gaussian 16:  ES64L-G16RevA.03 25-Dec-2016

 --------------------
 #p ZINDO=(nstates=5)
 --------------------

 -----------------------------
 step_301_chromophore_17 ZINDO
 -----------------------------
 Symbolic Z-matrix:
 Charge =  0 Multiplicity = 1

                         Standard orientation:
 ---------------------------------------------------------------------
 Center     Atomic      Atomic             Coordinates (Angstroms)
 Number     Number       Type             X           Y           Z
 ---------------------------------------------------------------------
      1         12           0        4.443180    1.015108   -0.258161
      2          6           0        3.825800   -2.478363   -0.435281
      3          6           0        1.868033    1.475337   -2.654397
      4          6           0        4.464386    4.347400    0.249800
      5          6           0        6.724787    0.419605    2.177727
      6          7           0        2.921951   -0.367328   -1.278035
      7          6           0        2.919720   -1.697749   -1.236150
      8          6           0        1.794373   -2.157461   -2.082880
      9          6           0        1.371675   -0.960659   -2.946443
     10          6           0        2.213333    0.126666   -2.369607
     11          6           0        1.315337   -1.129865   -4.441209
     12          6           0        0.621811   -2.926461   -1.305194
     13          6           0       -0.026379   -4.002392   -2.110183
     14          6           0       -1.550405   -3.852444   -2.210336
     15          8           0       -2.070311   -3.411158   -3.227238
     16          8           0       -2.208241   -4.220135   -1.039902
     17          7           0        3.238322    2.683816   -1.024049
     18          6           0        2.276433    2.720524   -2.096973
     19          6           0        1.792625    3.954382   -2.363222
     20          6           0        2.441122    4.780022   -1.397825
     21          6           0        3.455137    3.957919   -0.678869
     22          6           0        0.697287    4.195569   -3.389687
     23          6           0        2.178996    6.196203   -1.239234
     24          8           0        1.407796    6.756189   -2.020743
     25          6           0        2.783943    7.093576   -0.176926
     26          7           0        5.401402    2.236944    1.075217
     27          6           0        5.331070    3.600673    1.064109
     28          6           0        6.248660    4.217648    2.126472
     29          6           0        6.923634    2.909992    2.785275
     30          6           0        6.253601    1.770741    2.040721
     31          6           0        7.351365    5.203215    1.612478
     32          6           0        6.685868    2.809445    4.371854
     33          6           0        8.053704    2.755923    5.096133
     34          7           0        5.239147   -0.677500    0.590278
     35          6           0        6.233652   -0.745894    1.589221
     36          6           0        6.630505   -2.181099    1.688319
     37          6           0        5.659338   -2.858622    0.949704
     38          6           0        4.784186   -1.898546    0.384398
     39          6           0        7.574907   -2.679842    2.706733
     40          6           0        5.160399   -4.219775    0.594667
     41          8           0        5.560100   -5.340247    0.816512
     42          6           0        3.945489   -3.960685   -0.352577
     43          6           0        4.116272   -4.664037   -1.639568
     44          8           0        5.108877   -4.592298   -2.297238
     45          8           0        3.029128   -5.406604   -1.961122
     46          6           0        3.367562   -6.137323   -3.202274
     47          6           0       -3.630315   -4.093474   -1.035769
     48          6           0       -3.905098   -3.988211    0.507530
     49          6           0       -5.134076   -4.232151    1.012703
     50          6           0       -6.414725   -4.533148    0.162572
     51          6           0       -5.359948   -4.290715    2.500237
     52          6           0       -6.035442   -3.011739    3.178753
     53          6           0       -7.472762   -3.270710    3.685834
     54          6           0       -8.568744   -2.523349    2.838655
     55          6           0       -9.889560   -3.245633    2.695012
     56          6           0       -8.747203   -1.006334    3.319650
     57          6           0       -9.225908   -0.016155    2.172792
     58          6           0       -8.383434    1.208069    1.913757
     59          6           0       -7.615159    1.308740    0.584649
     60          6           0       -6.234865    0.495639    0.733485
     61          6           0       -7.403906    2.768252    0.155998
     62          6           0       -8.225478    3.063660   -1.098095
     63          6           0       -8.342757    4.606423   -1.409097
     64          6           0       -9.854380    5.122275   -1.113929
     65          6           0      -10.588951    5.423810   -2.498024
     66          6           0       -9.966882    6.171244    0.018510
     67          1           0        1.086108    1.656507   -3.395153
     68          1           0        4.682809    5.411878    0.351901
     69          1           0        7.486641    0.395980    2.959592
     70          1           0        2.320912   -2.862978   -2.725855
     71          1           0        0.430205   -0.666432   -2.482616
     72          1           0        1.858843   -0.245557   -4.773169
     73          1           0        0.251420   -1.104830   -4.676317
     74          1           0        1.707878   -2.111203   -4.709402
     75          1           0       -0.184939   -2.224090   -1.095961
     76          1           0        0.909669   -3.323626   -0.331430
     77          1           0        0.087199   -4.978648   -1.639759
     78          1           0        0.400624   -4.097673   -3.108199
     79          1           0       -0.257189    4.125274   -2.869731
     80          1           0        0.613796    3.600337   -4.299679
     81          1           0        0.854385    5.125661   -3.937063
     82          1           0        3.009871    6.444355    0.668252
     83          1           0        2.085331    7.895463    0.062498
     84          1           0        3.701059    7.423071   -0.667453
     85          1           0        5.549985    4.782980    2.744086
     86          1           0        7.980230    3.033792    2.546342
     87          1           0        8.302306    5.201073    2.144648
     88          1           0        6.794014    6.134511    1.720701
     89          1           0        7.519672    4.996336    0.555335
     90          1           0        6.123915    1.902274    4.594215
     91          1           0        6.041456    3.626493    4.696211
     92          1           0        8.120403    3.401586    5.971187
     93          1           0        8.845649    2.859347    4.353729
     94          1           0        8.264741    1.751989    5.463162
     95          1           0        7.932212   -3.636253    2.326050
     96          1           0        6.986225   -2.754542    3.621105
     97          1           0        8.489115   -2.094827    2.809028
     98          1           0        3.053175   -4.398804    0.093168
     99          1           0        3.269928   -5.404448   -4.002189
    100          1           0        2.647881   -6.939429   -3.364900
    101          1           0        4.323194   -6.661781   -3.181579
    102          1           0       -4.097499   -4.982616   -1.459730
    103          1           0       -3.972113   -3.192388   -1.544847
    104          1           0       -3.105098   -3.881695    1.240927
    105          1           0       -6.169549   -5.409951   -0.436421
    106          1           0       -6.577932   -3.674843   -0.489631
    107          1           0       -7.328600   -4.692543    0.734901
    108          1           0       -4.365968   -4.426816    2.926089
    109          1           0       -5.898891   -5.209232    2.730709
    110          1           0       -6.130630   -2.432095    2.260609
    111          1           0       -5.402200   -2.527390    3.921796
    112          1           0       -7.551849   -2.939134    4.721263
    113          1           0       -7.628537   -4.318319    3.429594
    114          1           0       -8.181621   -2.503583    1.820050
    115          1           0      -10.522919   -2.823884    3.475115
    116          1           0       -9.742238   -4.317379    2.820959
    117          1           0      -10.399901   -3.002020    1.762816
    118          1           0       -7.800989   -0.634620    3.712586
    119          1           0       -9.402756   -0.879633    4.181240
    120          1           0      -10.251323    0.239603    2.438744
    121          1           0       -9.260414   -0.592467    1.248191
    122          1           0       -7.672853    1.278246    2.737313
    123          1           0       -8.987828    2.114536    1.947358
    124          1           0       -8.153789    0.670191   -0.115328
    125          1           0       -6.033531    0.110333    1.733326
    126          1           0       -5.438784    1.160310    0.397829
    127          1           0       -6.275208   -0.337161    0.031563
    128          1           0       -6.358277    2.991589   -0.052884
    129          1           0       -7.666467    3.425164    0.985183
    130          1           0       -9.249712    2.693953   -1.042485
    131          1           0       -7.683014    2.629133   -1.937561
    132          1           0       -7.979149    4.704634   -2.431996
    133          1           0       -7.612471    5.201683   -0.860434
    134          1           0      -10.532176    4.368721   -0.714441
    135          1           0      -11.236820    6.300043   -2.489658
    136          1           0      -11.159514    4.525578   -2.736838
    137          1           0       -9.980020    5.467262   -3.400371
    138          1           0      -10.025693    5.789788    1.037548
    139          1           0      -10.836901    6.784206   -0.218663
    140          1           0       -9.089988    6.819520    0.002739
 ---------------------------------------------------------------------

 SCF Done:  E(RZINDO/S) =  -474.274981809     A.U. after   19 cycles

 Excitation energies and oscillator strengths:

 Excited State   1:      Singlet-A      1.2721 eV  974.63 nm  f=0.5539  <S**2>=0.000
     175 ->178        -0.17997
     176 ->177         0.66447
 This state for optimization and/or second-order correction.
 Total Energy, E(CIS/TDA) =  -474.228232521
 Copying the excited state density for this state as the 1-particle RhoCI density.

 Excited State   2:      Singlet-A      1.8859 eV  657.43 nm  f=0.0284  <S**2>=0.000
     175 ->177         0.51717
     176 ->178         0.44794

 Excited State   3:      Singlet-A      2.8733 eV  431.50 nm  f=0.0064  <S**2>=0.000
     171 ->177         0.28393
     171 ->178         0.12946
     171 ->179         0.16220
     171 ->180        -0.34271
     171 ->182        -0.12477
     171 ->184         0.10908
     171 ->185        -0.21297
     171 ->188        -0.22021
     171 ->202        -0.10958
     174 ->177        -0.16473
     174 ->180         0.10926

 Excited State   4:      Singlet-A      2.9353 eV  422.39 nm  f=1.1617  <S**2>=0.000
     168 ->177         0.10261
     168 ->179        -0.10587
     170 ->177        -0.14599
     173 ->177        -0.10340
     175 ->177        -0.40544
     176 ->178         0.46617
     176 ->179        -0.12468

 Excited State   5:      Singlet-A      2.9681 eV  417.73 nm  f=0.1364  <S**2>=0.000
     167 ->177         0.18414
     167 ->179        -0.24106
     168 ->177         0.31560
     168 ->179        -0.36600
     168 ->180        -0.10635
     168 ->184         0.13713
     168 ->185         0.13713
     175 ->177         0.13193
     176 ->178        -0.14246

 The electronic state is 1-A.
 Alpha  occ. eigenvalues --   -1.86290  -1.81381  -1.79779  -1.77025  -1.73156
 Alpha  occ. eigenvalues --   -1.71542  -1.64334  -1.61046  -1.59558  -1.58139
 Alpha  occ. eigenvalues --   -1.53085  -1.51021  -1.49388  -1.47591  -1.46889
 Alpha  occ. eigenvalues --   -1.46131  -1.44480  -1.41068  -1.39731  -1.37732
 Alpha  occ. eigenvalues --   -1.36848  -1.35622  -1.32059  -1.29884  -1.27737
 Alpha  occ. eigenvalues --   -1.26398  -1.26182  -1.22468  -1.19488  -1.19169
 Alpha  occ. eigenvalues --   -1.17403  -1.16218  -1.16024  -1.13973  -1.13033
 Alpha  occ. eigenvalues --   -1.12087  -1.09318  -1.08683  -1.05404  -1.04513
 Alpha  occ. eigenvalues --   -1.01906  -1.01236  -0.98386  -0.97879  -0.97148
 Alpha  occ. eigenvalues --   -0.95577  -0.94843  -0.92969  -0.92554  -0.92411
 Alpha  occ. eigenvalues --   -0.92093  -0.90463  -0.88806  -0.88145  -0.87448
 Alpha  occ. eigenvalues --   -0.85530  -0.85176  -0.83725  -0.82405  -0.80039
 Alpha  occ. eigenvalues --   -0.79654  -0.78231  -0.77628  -0.77016  -0.76098
 Alpha  occ. eigenvalues --   -0.75381  -0.75013  -0.74533  -0.74065  -0.73264
 Alpha  occ. eigenvalues --   -0.73003  -0.72710  -0.71513  -0.70811  -0.70177
 Alpha  occ. eigenvalues --   -0.70017  -0.69216  -0.68392  -0.68015  -0.67702
 Alpha  occ. eigenvalues --   -0.67676  -0.67185  -0.66952  -0.66326  -0.66184
 Alpha  occ. eigenvalues --   -0.65186  -0.64840  -0.64793  -0.64256  -0.64108
 Alpha  occ. eigenvalues --   -0.63336  -0.63095  -0.62932  -0.62267  -0.62247
 Alpha  occ. eigenvalues --   -0.62051  -0.61696  -0.61247  -0.61166  -0.60511
 Alpha  occ. eigenvalues --   -0.60452  -0.59582  -0.59554  -0.58876  -0.58126
 Alpha  occ. eigenvalues --   -0.57986  -0.57427  -0.56617  -0.56305  -0.56130
 Alpha  occ. eigenvalues --   -0.56050  -0.55467  -0.54973  -0.54718  -0.54386
 Alpha  occ. eigenvalues --   -0.53774  -0.53399  -0.53311  -0.53157  -0.53063
 Alpha  occ. eigenvalues --   -0.52817  -0.52379  -0.52257  -0.52092  -0.51719
 Alpha  occ. eigenvalues --   -0.51501  -0.51348  -0.51238  -0.50643  -0.50292
 Alpha  occ. eigenvalues --   -0.50106  -0.49898  -0.49693  -0.49487  -0.49417
 Alpha  occ. eigenvalues --   -0.49233  -0.48834  -0.48514  -0.48037  -0.47693
 Alpha  occ. eigenvalues --   -0.47478  -0.47096  -0.46981  -0.46718  -0.46419
 Alpha  occ. eigenvalues --   -0.46160  -0.46120  -0.45559  -0.45430  -0.44904
 Alpha  occ. eigenvalues --   -0.44876  -0.44474  -0.44280  -0.44265  -0.43727
 Alpha  occ. eigenvalues --   -0.43335  -0.43103  -0.42715  -0.42578  -0.42414
 Alpha  occ. eigenvalues --   -0.42292  -0.41928  -0.41591  -0.39264  -0.38654
 Alpha  occ. eigenvalues --   -0.38413  -0.37273  -0.36331  -0.35178  -0.34251
 Alpha  occ. eigenvalues --   -0.32762  -0.32497  -0.32098  -0.31167  -0.26901
 Alpha  occ. eigenvalues --   -0.21884
 Alpha virt. eigenvalues --   -0.08557  -0.02709  -0.00905   0.01470   0.01612
 Alpha virt. eigenvalues --    0.01843   0.02286   0.02743   0.04620   0.04738
 Alpha virt. eigenvalues --    0.06108   0.06593   0.07268   0.07404   0.07758

 Mulliken charges:
               1
     1  Mg   0.426369
     2  C   -0.059765
     3  C   -0.048030
     4  C   -0.080984
     5  C   -0.081085
     6  N   -0.274503
     7  C    0.161024
     8  C    0.008324
     9  C    0.001554
    10  C    0.069897
    11  C   -0.051260
    12  C   -0.014149
    13  C    0.010499
    14  C    0.460797
    15  O   -0.520386
    16  O   -0.269285
    17  N   -0.339292
    18  C    0.056372
    19  C    0.048093
    20  C   -0.065655
    21  C    0.131298
    22  C   -0.038655
    23  C    0.310806
    24  O   -0.564888
    25  C   -0.034900
    26  N   -0.265831
    27  C    0.111585
    28  C   -0.010199
    29  C   -0.006230
    30  C    0.159210
    31  C   -0.056051
    32  C   -0.030075
    33  C   -0.061034
    34  N   -0.332996
    35  C    0.121344
    36  C    0.048549
    37  C   -0.035455
    38  C    0.137739
    39  C   -0.035009
    40  C    0.337998
    41  O   -0.490478
    42  C    0.057756
    43  C    0.497634
    44  O   -0.509670
    45  O   -0.269872
    46  C    0.077312
    47  C    0.107767
    48  C   -0.107183
    49  C   -0.007555
    50  C   -0.048416
    51  C   -0.027009
    52  C   -0.043505
    53  C   -0.039835
    54  C   -0.016721
    55  C   -0.055648
    56  C   -0.043259
    57  C   -0.036919
    58  C   -0.029340
    59  C   -0.018582
    60  C   -0.070937
    61  C   -0.023441
    62  C   -0.037616
    63  C   -0.043928
    64  C   -0.016699
    65  C   -0.063686
    66  C   -0.054638
    67  H    0.027066
    68  H    0.022077
    69  H    0.024318
    70  H    0.023127
    71  H    0.032048
    72  H    0.036310
    73  H    0.027533
    74  H    0.028802
    75  H    0.029852
    76  H    0.026785
    77  H    0.030209
    78  H    0.040671
    79  H    0.037189
    80  H    0.020759
    81  H    0.033985
    82  H    0.024141
    83  H    0.045883
    84  H    0.044456
    85  H    0.035852
    86  H    0.045046
    87  H    0.030319
    88  H    0.020277
    89  H    0.026014
    90  H    0.022965
    91  H    0.027514
    92  H    0.028395
    93  H    0.023700
    94  H    0.012850
    95  H    0.033101
    96  H    0.045353
    97  H    0.028477
    98  H    0.045266
    99  H    0.043417
   100  H    0.020387
   101  H    0.056525
   102  H    0.050504
   103  H    0.057619
   104  H    0.046664
   105  H    0.029016
   106  H    0.026797
   107  H    0.027431
   108  H    0.009366
   109  H    0.023935
   110  H    0.024557
   111  H    0.030978
   112  H    0.030145
   113  H    0.026382
   114  H    0.015681
   115  H    0.015458
   116  H    0.021811
   117  H    0.019986
   118  H    0.012196
   119  H    0.020269
   120  H    0.016600
   121  H    0.017177
   122  H    0.016274
   123  H    0.010556
   124  H    0.024165
   125  H    0.025311
   126  H    0.018853
   127  H    0.013642
   128  H    0.020997
   129  H    0.019701
   130  H    0.026462
   131  H    0.018329
   132  H    0.020745
   133  H    0.020320
   134  H    0.019943
   135  H    0.022669
   136  H    0.011582
   137  H    0.020166
   138  H    0.024516
   139  H    0.017488
   140  H    0.013768
 Sum of Mulliken charges =  -0.00000

 Dipole moment (field-independent basis, Debye):
    X=              2.2021    Y=             -2.6111    Z=              6.9792  Tot=              7.7702
 N-N= 4.432644753079D+03 E-N= 0.000000000000D+00  KE=-9.539383850709D+03
 Leave Link  601 at Fri Apr 29 13:06:44 2022, MaxMem=  6710886400 cpu:               0.7 elap:               0.0
 (Enter /sw/apps/gaussian-16.0/g16/l9999.exe)
 1\1\GINC-BP1-COMPUTE148\SP\RZINDO CIS\STO-3G\C55H74Mg1N4O6\OF15641\29-
 Apr-2022\0\\#p ZINDO=(nstates=5)\\step_301_chromophore_17 ZINDO\\0,1\M
 g,0,29.411,59.43,41.775\C,0,26.283,58.083,40.766\C,0,30.959,56.526,40.
 45\C,0,32.464,60.824,42.089\C,0,27.798,62.231,42.798\N,0,28.676,57.607
 ,40.591\C,0,27.406,57.272,40.375\C,0,27.415,55.998,39.619\C,0,28.828,5
 5.413,39.753\C,0,29.538,56.523,40.451\C,0,28.984,54.006,40.265\C,0,26.
 813,56.078,38.135\C,0,26.113,54.833,37.704\C,0,26.646,54.262,36.383\O,

 Normal termination of Gaussian 16 at Fri Apr 29 13:06:44 2022.
