 Gaussian 16, Revision A.03,
 Gaussian 16:  ES64L-G16RevA.03 25-Dec-2016

 ------------------------------
 #p blyp/Def2SVP td=(nstates=5)
 ------------------------------

 --------------------------------------------------
 step_751_chromophore_11 TDDFT with blyp functional
 --------------------------------------------------
 Symbolic Z-matrix:
 Charge =  0 Multiplicity = 1

                         Standard orientation:
 ---------------------------------------------------------------------
 Center     Atomic      Atomic             Coordinates (Angstroms)
 Number     Number       Type             X           Y           Z
 ---------------------------------------------------------------------
      1         12           0       -4.655016    1.510067    0.457433
      2          6           0       -4.957720   -2.091497    0.375012
      3          6           0       -2.204945    1.028774    2.846596
      4          6           0       -4.100895    4.687202    0.098540
      5          6           0       -6.954576    1.519215   -2.222986
      6          7           0       -3.546293   -0.382854    1.366122
      7          6           0       -3.990914   -1.680634    1.324021
      8          6           0       -3.508808   -2.470108    2.540421
      9          6           0       -2.749343   -1.369054    3.357900
     10          6           0       -2.815857   -0.144996    2.474256
     11          6           0       -3.190606   -1.158889    4.809973
     12          6           0       -2.569338   -3.670368    2.130652
     13          6           0       -1.607907   -3.466409    1.025089
     14          6           0       -0.331685   -4.395051    0.978335
     15          8           0        0.279160   -4.730864    1.956087
     16          8           0       -0.069717   -4.913090   -0.268100
     17          7           0       -3.159663    2.619995    1.188647
     18          6           0       -2.399926    2.336348    2.272448
     19          6           0       -1.763515    3.541916    2.753987
     20          6           0       -2.241405    4.612111    1.954951
     21          6           0       -3.216596    3.986512    1.064184
     22          6           0       -0.775039    3.574130    3.880550
     23          6           0       -2.027857    6.059997    2.190136
     24          8           0       -1.368459    6.420345    3.135215
     25          6           0       -2.412351    7.130993    1.218756
     26          7           0       -5.161466    2.859394   -1.065693
     27          6           0       -5.007629    4.201694   -0.860892
     28          6           0       -5.899765    5.061759   -1.830574
     29          6           0       -6.523645    3.939712   -2.743912
     30          6           0       -6.209906    2.652799   -1.918410
     31          6           0       -6.901090    6.010158   -1.169616
     32          6           0       -6.194023    3.960900   -4.290444
     33          6           0       -5.069516    2.916534   -4.752313
     34          7           0       -5.896524    0.051022   -0.615861
     35          6           0       -6.722298    0.217611   -1.689139
     36          6           0       -7.415662   -1.060591   -2.067604
     37          6           0       -6.708006   -1.988736   -1.202813
     38          6           0       -5.784505   -1.296864   -0.439741
     39          6           0       -8.512031   -1.274650   -3.137441
     40          6           0       -6.624749   -3.331662   -0.843253
     41          8           0       -7.275283   -4.313960   -1.283846
     42          6           0       -5.393439   -3.518443    0.111202
     43          6           0       -4.532993   -4.340211   -0.759019
     44          8           0       -4.039235   -3.913662   -1.771991
     45          8           0       -4.314047   -5.574946   -0.243609
     46          6           0       -3.332522   -6.446925   -0.867032
     47          6           0        1.142061   -5.726029   -0.435916
     48          6           0        2.234638   -4.698511   -0.742807
     49          6           0        3.262127   -4.135190   -0.021245
     50          6           0        3.569137   -4.515048    1.521862
     51          6           0        4.322526   -3.292286   -0.755628
     52          6           0        4.963723   -2.112391    0.025439
     53          6           0        5.293770   -0.920573   -0.969328
     54          6           0        6.182934    0.204613   -0.235131
     55          6           0        5.876638    1.675926   -0.677753
     56          6           0        7.650480   -0.067573   -0.536635
     57          6           0        8.528040    0.247436    0.786903
     58          6           0        9.680236    1.255674    0.475560
     59          6           0       11.033241    0.947381    1.007734
     60          6           0       11.220870    1.434104    2.416007
     61          6           0       12.200508    1.508656    0.170095
     62          6           0       12.527404    0.716842   -1.103208
     63          6           0       14.098702    0.417598   -1.136426
     64          6           0       14.762374    1.272863   -2.228849
     65          6           0       14.921601    0.383191   -3.578205
     66          6           0       16.149650    1.937491   -1.912528
     67          1           0       -1.513020    0.877627    3.678463
     68          1           0       -4.114730    5.778897    0.137639
     69          1           0       -7.843138    1.713228   -2.828143
     70          1           0       -4.434156   -2.878259    2.947834
     71          1           0       -1.738761   -1.753078    3.496315
     72          1           0       -2.373128   -1.168415    5.530168
     73          1           0       -3.861355   -1.958323    5.127316
     74          1           0       -3.774086   -0.241750    4.736222
     75          1           0       -3.338121   -4.348869    1.759418
     76          1           0       -2.110580   -3.986860    3.067109
     77          1           0       -1.201637   -2.454673    1.009595
     78          1           0       -2.242870   -3.555797    0.142591
     79          1           0       -1.203447    4.163876    4.690849
     80          1           0        0.206653    3.992551    3.661861
     81          1           0       -0.654953    2.625524    4.403005
     82          1           0       -2.166045    6.865661    0.190888
     83          1           0       -1.863773    8.042883    1.454015
     84          1           0       -3.448732    7.426264    1.380451
     85          1           0       -5.219320    5.727562   -2.361662
     86          1           0       -7.612226    3.927604   -2.685044
     87          1           0       -6.466464    6.985202   -0.952622
     88          1           0       -7.284983    5.582384   -0.243626
     89          1           0       -7.776608    6.230242   -1.779037
     90          1           0       -6.026170    4.997859   -4.584168
     91          1           0       -6.989426    3.558585   -4.917525
     92          1           0       -4.152715    3.137953   -4.205106
     93          1           0       -4.795157    3.053618   -5.798198
     94          1           0       -5.348296    1.926734   -4.390449
     95          1           0       -9.153565   -0.404988   -3.278976
     96          1           0       -9.073056   -2.085668   -2.672053
     97          1           0       -8.103339   -1.511788   -4.119998
     98          1           0       -5.773328   -4.036051    0.992205
     99          1           0       -3.699504   -7.400550   -1.248018
    100          1           0       -2.494561   -6.532893   -0.174911
    101          1           0       -2.906594   -6.095369   -1.806797
    102          1           0        0.991814   -6.088970   -1.452828
    103          1           0        1.486470   -6.448948    0.303687
    104          1           0        2.010928   -4.315613   -1.738559
    105          1           0        4.593593   -4.745811    1.812866
    106          1           0        2.978727   -5.397001    1.770866
    107          1           0        3.235782   -3.669424    2.123606
    108          1           0        3.821001   -2.951443   -1.661359
    109          1           0        5.153421   -3.974936   -0.936456
    110          1           0        5.904877   -2.523230    0.389787
    111          1           0        4.488087   -1.778993    0.947099
    112          1           0        4.379189   -0.423170   -1.292066
    113          1           0        5.625718   -1.327223   -1.924751
    114          1           0        6.092713    0.135600    0.848878
    115          1           0        5.596502    2.160520    0.257940
    116          1           0        4.976607    1.719280   -1.292148
    117          1           0        6.737061    2.184053   -1.111536
    118          1           0        7.993305    0.422879   -1.447999
    119          1           0        7.669248   -1.138151   -0.740168
    120          1           0        9.116367   -0.625138    1.071985
    121          1           0        7.901074    0.625843    1.594457
    122          1           0        9.310391    2.213885    0.840714
    123          1           0        9.760977    1.306514   -0.610660
    124          1           0       11.239933   -0.121885    1.017969
    125          1           0       10.250085    1.685973    2.840884
    126          1           0       11.735437    2.395443    2.397868
    127          1           0       11.665664    0.755515    3.145085
    128          1           0       13.072866    1.668368    0.804915
    129          1           0       11.864732    2.520195   -0.053738
    130          1           0       12.339471    1.316615   -1.993251
    131          1           0       12.037144   -0.254038   -1.176465
    132          1           0       14.192941   -0.652798   -1.319513
    133          1           0       14.614216    0.612532   -0.195397
    134          1           0       14.071171    2.030427   -2.597023
    135          1           0       14.178721   -0.400488   -3.431162
    136          1           0       15.907310   -0.077639   -3.643090
    137          1           0       14.776804    1.085189   -4.398417
    138          1           0       16.945642    1.558319   -2.554309
    139          1           0       16.371272    1.742916   -0.862722
    140          1           0       16.154809    3.024931   -1.976900
 ---------------------------------------------------------------------

 SCF Done:  E(RB-LYP) =  -3007.34384099     A.U. after   22 cycles

 Excitation energies and oscillator strengths:

 Excited State   1:      Singlet-A      1.6903 eV  733.49 nm  f=0.0328  <S**2>=0.000
     244 -> 247        0.66598
     246 -> 247       -0.22362
 This state for optimization and/or second-order correction.
 Total Energy, E(TD-HF/TD-DFT) =  -3007.28172219
 Copying the excited state density for this state as the 1-particle RhoCI density.

 Excited State   2:      Singlet-A      1.7254 eV  718.59 nm  f=0.0138  <S**2>=0.000
     243 -> 247        0.66142
     244 -> 247       -0.11369
     245 -> 247       -0.18044
     246 -> 247       -0.11645

 Excited State   3:      Singlet-A      1.7866 eV  693.96 nm  f=0.2698  <S**2>=0.000
     243 -> 247        0.14704
     244 -> 247        0.20706
     245 -> 248        0.18436
     246 -> 247        0.64677
     246 <- 247       -0.15019

 Excited State   4:      Singlet-A      1.9755 eV  627.60 nm  f=0.0842  <S**2>=0.000
     243 -> 247        0.18079
     245 -> 247        0.63324
     246 -> 248       -0.22961

 Excited State   5:      Singlet-A      2.1071 eV  588.42 nm  f=0.0001  <S**2>=0.000
     242 -> 247        0.70706

 The electronic state is 1-A.
 Alpha  occ. eigenvalues --  -46.28674 -18.82417 -18.82118 -18.77055 -18.76291
 Alpha  occ. eigenvalues --  -18.75091 -18.75015 -14.03504 -14.03323 -14.01826
 Alpha  occ. eigenvalues --  -14.01423 -10.04328 -10.03886  -9.99281  -9.98946
 Alpha  occ. eigenvalues --   -9.98237  -9.97363  -9.97302  -9.97104  -9.96869
 Alpha  occ. eigenvalues --   -9.96774  -9.96268  -9.96086  -9.95960  -9.95009
 Alpha  occ. eigenvalues --   -9.94935  -9.94902  -9.94356  -9.94178  -9.94163
 Alpha  occ. eigenvalues --   -9.93844  -9.93783  -9.93662  -9.93637  -9.93485
 Alpha  occ. eigenvalues --   -9.93483  -9.93303  -9.93253  -9.93239  -9.93020
 Alpha  occ. eigenvalues --   -9.92942  -9.92713  -9.92594  -9.92382  -9.92173
 Alpha  occ. eigenvalues --   -9.91877  -9.91854  -9.91806  -9.91766  -9.91755
 Alpha  occ. eigenvalues --   -9.91753  -9.91638  -9.91634  -9.91627  -9.91375
 Alpha  occ. eigenvalues --   -9.91308  -9.91205  -9.90965  -9.90838  -9.90792
 Alpha  occ. eigenvalues --   -9.90688  -9.90683  -9.90642  -9.90520  -9.90371
 Alpha  occ. eigenvalues --   -9.90081  -2.93227  -1.73597  -1.73144  -1.72944
 Alpha  occ. eigenvalues --   -0.98487  -0.98173  -0.92302  -0.90681  -0.90527
 Alpha  occ. eigenvalues --   -0.89273  -0.86900  -0.86219  -0.86147  -0.85385
 Alpha  occ. eigenvalues --   -0.76355  -0.73322  -0.73123  -0.72109  -0.72085
 Alpha  occ. eigenvalues --   -0.71748  -0.71284  -0.71035  -0.70378  -0.69963
 Alpha  occ. eigenvalues --   -0.69369  -0.69173  -0.67975  -0.67653  -0.67067
 Alpha  occ. eigenvalues --   -0.66135  -0.65971  -0.65152  -0.65030  -0.64442
 Alpha  occ. eigenvalues --   -0.63524  -0.62665  -0.62140  -0.61977  -0.61006
 Alpha  occ. eigenvalues --   -0.60094  -0.59817  -0.59493  -0.59076  -0.58558
 Alpha  occ. eigenvalues --   -0.58146  -0.57600  -0.56797  -0.55685  -0.55099
 Alpha  occ. eigenvalues --   -0.54434  -0.53439  -0.53181  -0.52270  -0.51589
 Alpha  occ. eigenvalues --   -0.51507  -0.51305  -0.50944  -0.50527  -0.49502
 Alpha  occ. eigenvalues --   -0.49196  -0.49066  -0.48850  -0.48702  -0.46528
 Alpha  occ. eigenvalues --   -0.46357  -0.46087  -0.45625  -0.45388  -0.45106
 Alpha  occ. eigenvalues --   -0.44366  -0.44139  -0.43225  -0.42928  -0.42328
 Alpha  occ. eigenvalues --   -0.41980  -0.41659  -0.41541  -0.40963  -0.40816
 Alpha  occ. eigenvalues --   -0.40686  -0.40230  -0.40124  -0.40003  -0.39852
 Alpha  occ. eigenvalues --   -0.39822  -0.39767  -0.39640  -0.39459  -0.39071
 Alpha  occ. eigenvalues --   -0.38793  -0.38594  -0.38379  -0.38335  -0.38224
 Alpha  occ. eigenvalues --   -0.37767  -0.37609  -0.37405  -0.37289  -0.36935
 Alpha  occ. eigenvalues --   -0.36869  -0.36722  -0.36607  -0.36452  -0.36241
 Alpha  occ. eigenvalues --   -0.36209  -0.35875  -0.35654  -0.35628  -0.35411
 Alpha  occ. eigenvalues --   -0.35316  -0.35037  -0.34943  -0.34886  -0.34774
 Alpha  occ. eigenvalues --   -0.34671  -0.34408  -0.34264  -0.34057  -0.33869
 Alpha  occ. eigenvalues --   -0.33704  -0.33484  -0.33386  -0.33277  -0.32942
 Alpha  occ. eigenvalues --   -0.32852  -0.32509  -0.32439  -0.32184  -0.32087
 Alpha  occ. eigenvalues --   -0.32015  -0.31873  -0.31714  -0.31607  -0.31444
 Alpha  occ. eigenvalues --   -0.31401  -0.31177  -0.30726  -0.30620  -0.30483
 Alpha  occ. eigenvalues --   -0.30383  -0.30324  -0.30083  -0.30000  -0.29639
 Alpha  occ. eigenvalues --   -0.29563  -0.29396  -0.29357  -0.28926  -0.28861
 Alpha  occ. eigenvalues --   -0.28503  -0.28195  -0.27818  -0.27729  -0.27585
 Alpha  occ. eigenvalues --   -0.27453  -0.27260  -0.27241  -0.26873  -0.26811
 Alpha  occ. eigenvalues --   -0.26452  -0.26224  -0.25282  -0.25188  -0.25143
 Alpha  occ. eigenvalues --   -0.24965  -0.24893  -0.24040  -0.23935  -0.23695
 Alpha  occ. eigenvalues --   -0.23340  -0.22455  -0.22283  -0.21843  -0.21117
 Alpha  occ. eigenvalues --   -0.20495  -0.19896  -0.18375  -0.18332  -0.17600
 Alpha  occ. eigenvalues --   -0.16244
 Alpha virt. eigenvalues --   -0.12153  -0.07090  -0.06545  -0.04873  -0.04511
 Alpha virt. eigenvalues --   -0.02767  -0.02234  -0.02049  -0.01771  -0.00130
 Alpha virt. eigenvalues --    0.00941   0.01752   0.02076   0.03102   0.03254

 Mulliken charges:
               1
     1  Mg   0.677641
     2  C    0.037267
     3  C   -0.066156
     4  C   -0.022006
     5  C   -0.083124
     6  N   -0.160881
     7  C   -0.152612
     8  C    0.024066
     9  C    0.016522
    10  C   -0.000306
    11  C    0.132383
    12  C    0.089752
    13  C    0.107582
    14  C    0.089937
    15  O   -0.169223
    16  O   -0.267205
    17  N   -0.305170
    18  C    0.157456
    19  C   -0.132532
    20  C    0.050014
    21  C    0.121805
    22  C    0.197002
    23  C   -0.117127
    24  O   -0.156832
    25  C    0.156241
    26  N   -0.247684
    27  C   -0.001890
    28  C    0.048242
    29  C    0.041262
    30  C    0.008944
    31  C    0.116604
    32  C    0.076325
    33  C    0.055211
    34  N   -0.227004
    35  C    0.112312
    36  C   -0.160777
    37  C    0.162895
    38  C    0.094016
    39  C    0.162210
    40  C   -0.164616
    41  O   -0.178438
    42  C    0.085169
    43  C    0.115660
    44  O   -0.162653
    45  O   -0.245923
    46  C    0.207274
    47  C    0.373285
    48  C   -0.186516
    49  C   -0.116754
    50  C    0.114530
    51  C    0.134413
    52  C    0.049105
    53  C    0.090131
    54  C   -0.098967
    55  C    0.122462
    56  C    0.095965
    57  C    0.077932
    58  C    0.101085
    59  C   -0.077716
    60  C    0.130582
    61  C    0.093613
    62  C    0.084646
    63  C    0.093642
    64  C   -0.119177
    65  C    0.068446
    66  C    0.111018
    67  H   -0.057570
    68  H   -0.089819
    69  H   -0.049944
    70  H   -0.021141
    71  H   -0.024052
    72  H   -0.000435
    73  H   -0.015469
    74  H   -0.008637
    75  H   -0.008837
    76  H   -0.009479
    77  H    0.006937
    78  H    0.001726
    79  H   -0.004017
    80  H    0.011335
    81  H   -0.040859
    82  H    0.010794
    83  H   -0.018064
    84  H    0.011285
    85  H   -0.022199
    86  H   -0.035549
    87  H   -0.005245
    88  H   -0.011174
    89  H   -0.007529
    90  H   -0.016194
    91  H   -0.021666
    92  H   -0.018019
    93  H    0.000197
    94  H    0.010024
    95  H   -0.012079
    96  H    0.023098
    97  H    0.022765
    98  H   -0.015608
    99  H    0.016795
   100  H    0.017714
   101  H    0.009651
   102  H   -0.023425
   103  H    0.012618
   104  H   -0.029442
   105  H   -0.009516
   106  H   -0.006464
   107  H    0.009937
   108  H   -0.014712
   109  H   -0.004736
   110  H   -0.037458
   111  H   -0.022141
   112  H   -0.040059
   113  H   -0.026446
   114  H   -0.029429
   115  H   -0.022386
   116  H   -0.018267
   117  H   -0.003647
   118  H   -0.021939
   119  H   -0.042575
   120  H   -0.035797
   121  H   -0.014614
   122  H   -0.037380
   123  H   -0.040948
   124  H   -0.047923
   125  H   -0.043072
   126  H   -0.026052
   127  H   -0.016065
   128  H   -0.032041
   129  H   -0.044926
   130  H   -0.019359
   131  H   -0.024390
   132  H   -0.035624
   133  H   -0.030485
   134  H   -0.026592
   135  H   -0.014503
   136  H   -0.009607
   137  H   -0.006595
   138  H   -0.012890
   139  H   -0.025766
   140  H   -0.017373
 Sum of Mulliken charges =  -0.00000

 Dipole moment (field-independent basis, Debye):
    X=             -0.9319    Y=              2.3630    Z=             -0.0368  Tot=              2.5403
 Quadrupole moment (field-independent basis, Debye-Ang):
   XX=           -394.1901   YY=           -410.3627   ZZ=           -403.6506
   XY=            -46.7023   XZ=             -4.0517   YZ=            -23.3409

 Normal termination of Gaussian 16 at Thu May  5 08:09:34 2022.
