 Gaussian 16, Revision A.03,
 Gaussian 16:  ES64L-G16RevA.03 25-Dec-2016

 -----------------------------------
 #p cam-b3lyp/Def2SVP td=(nstates=5)
 -----------------------------------

 -------------------------------------------------------
 step_751_chromophore_11 TDDFT with cam-b3lyp functional
 -------------------------------------------------------
 Symbolic Z-matrix:
 Charge =  0 Multiplicity = 1

                         Standard orientation:
 ---------------------------------------------------------------------
 Center     Atomic      Atomic             Coordinates (Angstroms)
 Number     Number       Type             X           Y           Z
 ---------------------------------------------------------------------
      1         12           0       -4.655016    1.510067    0.457433
      2          6           0       -4.957720   -2.091497    0.375012
      3          6           0       -2.204945    1.028774    2.846596
      4          6           0       -4.100895    4.687202    0.098540
      5          6           0       -6.954576    1.519215   -2.222986
      6          7           0       -3.546293   -0.382854    1.366122
      7          6           0       -3.990914   -1.680634    1.324021
      8          6           0       -3.508808   -2.470108    2.540421
      9          6           0       -2.749343   -1.369054    3.357900
     10          6           0       -2.815857   -0.144996    2.474256
     11          6           0       -3.190606   -1.158889    4.809973
     12          6           0       -2.569338   -3.670368    2.130652
     13          6           0       -1.607907   -3.466409    1.025089
     14          6           0       -0.331685   -4.395051    0.978335
     15          8           0        0.279160   -4.730864    1.956087
     16          8           0       -0.069717   -4.913090   -0.268100
     17          7           0       -3.159663    2.619995    1.188647
     18          6           0       -2.399926    2.336348    2.272448
     19          6           0       -1.763515    3.541916    2.753987
     20          6           0       -2.241405    4.612111    1.954951
     21          6           0       -3.216596    3.986512    1.064184
     22          6           0       -0.775039    3.574130    3.880550
     23          6           0       -2.027857    6.059997    2.190136
     24          8           0       -1.368459    6.420345    3.135215
     25          6           0       -2.412351    7.130993    1.218756
     26          7           0       -5.161466    2.859394   -1.065693
     27          6           0       -5.007629    4.201694   -0.860892
     28          6           0       -5.899765    5.061759   -1.830574
     29          6           0       -6.523645    3.939712   -2.743912
     30          6           0       -6.209906    2.652799   -1.918410
     31          6           0       -6.901090    6.010158   -1.169616
     32          6           0       -6.194023    3.960900   -4.290444
     33          6           0       -5.069516    2.916534   -4.752313
     34          7           0       -5.896524    0.051022   -0.615861
     35          6           0       -6.722298    0.217611   -1.689139
     36          6           0       -7.415662   -1.060591   -2.067604
     37          6           0       -6.708006   -1.988736   -1.202813
     38          6           0       -5.784505   -1.296864   -0.439741
     39          6           0       -8.512031   -1.274650   -3.137441
     40          6           0       -6.624749   -3.331662   -0.843253
     41          8           0       -7.275283   -4.313960   -1.283846
     42          6           0       -5.393439   -3.518443    0.111202
     43          6           0       -4.532993   -4.340211   -0.759019
     44          8           0       -4.039235   -3.913662   -1.771991
     45          8           0       -4.314047   -5.574946   -0.243609
     46          6           0       -3.332522   -6.446925   -0.867032
     47          6           0        1.142061   -5.726029   -0.435916
     48          6           0        2.234638   -4.698511   -0.742807
     49          6           0        3.262127   -4.135190   -0.021245
     50          6           0        3.569137   -4.515048    1.521862
     51          6           0        4.322526   -3.292286   -0.755628
     52          6           0        4.963723   -2.112391    0.025439
     53          6           0        5.293770   -0.920573   -0.969328
     54          6           0        6.182934    0.204613   -0.235131
     55          6           0        5.876638    1.675926   -0.677753
     56          6           0        7.650480   -0.067573   -0.536635
     57          6           0        8.528040    0.247436    0.786903
     58          6           0        9.680236    1.255674    0.475560
     59          6           0       11.033241    0.947381    1.007734
     60          6           0       11.220870    1.434104    2.416007
     61          6           0       12.200508    1.508656    0.170095
     62          6           0       12.527404    0.716842   -1.103208
     63          6           0       14.098702    0.417598   -1.136426
     64          6           0       14.762374    1.272863   -2.228849
     65          6           0       14.921601    0.383191   -3.578205
     66          6           0       16.149650    1.937491   -1.912528
     67          1           0       -1.513020    0.877627    3.678463
     68          1           0       -4.114730    5.778897    0.137639
     69          1           0       -7.843138    1.713228   -2.828143
     70          1           0       -4.434156   -2.878259    2.947834
     71          1           0       -1.738761   -1.753078    3.496315
     72          1           0       -2.373128   -1.168415    5.530168
     73          1           0       -3.861355   -1.958323    5.127316
     74          1           0       -3.774086   -0.241750    4.736222
     75          1           0       -3.338121   -4.348869    1.759418
     76          1           0       -2.110580   -3.986860    3.067109
     77          1           0       -1.201637   -2.454673    1.009595
     78          1           0       -2.242870   -3.555797    0.142591
     79          1           0       -1.203447    4.163876    4.690849
     80          1           0        0.206653    3.992551    3.661861
     81          1           0       -0.654953    2.625524    4.403005
     82          1           0       -2.166045    6.865661    0.190888
     83          1           0       -1.863773    8.042883    1.454015
     84          1           0       -3.448732    7.426264    1.380451
     85          1           0       -5.219320    5.727562   -2.361662
     86          1           0       -7.612226    3.927604   -2.685044
     87          1           0       -6.466464    6.985202   -0.952622
     88          1           0       -7.284983    5.582384   -0.243626
     89          1           0       -7.776608    6.230242   -1.779037
     90          1           0       -6.026170    4.997859   -4.584168
     91          1           0       -6.989426    3.558585   -4.917525
     92          1           0       -4.152715    3.137953   -4.205106
     93          1           0       -4.795157    3.053618   -5.798198
     94          1           0       -5.348296    1.926734   -4.390449
     95          1           0       -9.153565   -0.404988   -3.278976
     96          1           0       -9.073056   -2.085668   -2.672053
     97          1           0       -8.103339   -1.511788   -4.119998
     98          1           0       -5.773328   -4.036051    0.992205
     99          1           0       -3.699504   -7.400550   -1.248018
    100          1           0       -2.494561   -6.532893   -0.174911
    101          1           0       -2.906594   -6.095369   -1.806797
    102          1           0        0.991814   -6.088970   -1.452828
    103          1           0        1.486470   -6.448948    0.303687
    104          1           0        2.010928   -4.315613   -1.738559
    105          1           0        4.593593   -4.745811    1.812866
    106          1           0        2.978727   -5.397001    1.770866
    107          1           0        3.235782   -3.669424    2.123606
    108          1           0        3.821001   -2.951443   -1.661359
    109          1           0        5.153421   -3.974936   -0.936456
    110          1           0        5.904877   -2.523230    0.389787
    111          1           0        4.488087   -1.778993    0.947099
    112          1           0        4.379189   -0.423170   -1.292066
    113          1           0        5.625718   -1.327223   -1.924751
    114          1           0        6.092713    0.135600    0.848878
    115          1           0        5.596502    2.160520    0.257940
    116          1           0        4.976607    1.719280   -1.292148
    117          1           0        6.737061    2.184053   -1.111536
    118          1           0        7.993305    0.422879   -1.447999
    119          1           0        7.669248   -1.138151   -0.740168
    120          1           0        9.116367   -0.625138    1.071985
    121          1           0        7.901074    0.625843    1.594457
    122          1           0        9.310391    2.213885    0.840714
    123          1           0        9.760977    1.306514   -0.610660
    124          1           0       11.239933   -0.121885    1.017969
    125          1           0       10.250085    1.685973    2.840884
    126          1           0       11.735437    2.395443    2.397868
    127          1           0       11.665664    0.755515    3.145085
    128          1           0       13.072866    1.668368    0.804915
    129          1           0       11.864732    2.520195   -0.053738
    130          1           0       12.339471    1.316615   -1.993251
    131          1           0       12.037144   -0.254038   -1.176465
    132          1           0       14.192941   -0.652798   -1.319513
    133          1           0       14.614216    0.612532   -0.195397
    134          1           0       14.071171    2.030427   -2.597023
    135          1           0       14.178721   -0.400488   -3.431162
    136          1           0       15.907310   -0.077639   -3.643090
    137          1           0       14.776804    1.085189   -4.398417
    138          1           0       16.945642    1.558319   -2.554309
    139          1           0       16.371272    1.742916   -0.862722
    140          1           0       16.154809    3.024931   -1.976900
 ---------------------------------------------------------------------

 SCF Done:  E(RCAM-B3LYP) =  -3007.13169415     A.U. after   17 cycles

 Excitation energies and oscillator strengths:

 Excited State   1:      Singlet-A      1.6544 eV  749.44 nm  f=0.3847  <S**2>=0.000
     245 -> 248       -0.17801
     246 -> 247        0.68714
     245 <- 248       -0.10965
 This state for optimization and/or second-order correction.
 Total Energy, E(TD-HF/TD-DFT) =  -3007.07089772
 Copying the excited state density for this state as the 1-particle RhoCI density.

 Excited State   2:      Singlet-A      2.1841 eV  567.67 nm  f=0.1356  <S**2>=0.000
     245 -> 247        0.65232
     246 -> 248        0.26057

 Excited State   3:      Singlet-A      3.1936 eV  388.23 nm  f=0.0022  <S**2>=0.000
     239 -> 247       -0.18347
     239 -> 249        0.10673
     240 -> 247       -0.17849
     240 -> 249        0.11421
     241 -> 247       -0.33793
     241 -> 249        0.19945
     242 -> 247        0.16040
     243 -> 247        0.41233

 Excited State   4:      Singlet-A      3.2932 eV  376.49 nm  f=0.0008  <S**2>=0.000
     240 -> 247        0.16439
     241 -> 247        0.31558
     242 -> 247       -0.20770
     243 -> 247        0.52000
     246 -> 248        0.14975

 Excited State   5:      Singlet-A      3.4842 eV  355.85 nm  f=0.0140  <S**2>=0.000
     240 -> 247        0.22472
     241 -> 247        0.12370
     242 -> 247        0.59718
     246 -> 248        0.20206

 The electronic state is 1-A.
 Alpha  occ. eigenvalues --  -46.90347 -19.25405 -19.24910 -19.20007 -19.19434
 Alpha  occ. eigenvalues --  -19.18373 -19.18134 -14.42450 -14.42158 -14.40322
 Alpha  occ. eigenvalues --  -14.39906 -10.39595 -10.39323 -10.34408 -10.34262
 Alpha  occ. eigenvalues --  -10.32313 -10.31911 -10.31674 -10.31470 -10.31298
 Alpha  occ. eigenvalues --  -10.31286 -10.30743 -10.30439 -10.30175 -10.29702
 Alpha  occ. eigenvalues --  -10.29283 -10.28917 -10.28750 -10.28479 -10.28279
 Alpha  occ. eigenvalues --  -10.28209 -10.28147 -10.28080 -10.27617 -10.27609
 Alpha  occ. eigenvalues --  -10.27476 -10.27308 -10.27249 -10.27052 -10.26868
 Alpha  occ. eigenvalues --  -10.26716 -10.26653 -10.26564 -10.26302 -10.25852
 Alpha  occ. eigenvalues --  -10.25716 -10.25637 -10.25615 -10.25552 -10.25551
 Alpha  occ. eigenvalues --  -10.25543 -10.25519 -10.25441 -10.25353 -10.25220
 Alpha  occ. eigenvalues --  -10.25015 -10.24882 -10.24644 -10.24504 -10.24406
 Alpha  occ. eigenvalues --  -10.24321 -10.24288 -10.24210 -10.24160 -10.23989
 Alpha  occ. eigenvalues --  -10.23636  -3.18798  -1.93643  -1.93268  -1.93102
 Alpha  occ. eigenvalues --   -1.17123  -1.16608  -1.10663  -1.08777  -1.08342
 Alpha  occ. eigenvalues --   -1.07644  -1.04687  -1.03860  -1.03844  -1.02936
 Alpha  occ. eigenvalues --   -0.93668  -0.90156  -0.89978  -0.88837  -0.88794
 Alpha  occ. eigenvalues --   -0.88370  -0.87863  -0.87662  -0.86938  -0.86563
 Alpha  occ. eigenvalues --   -0.85904  -0.85602  -0.84196  -0.83839  -0.83239
 Alpha  occ. eigenvalues --   -0.82142  -0.82010  -0.81097  -0.80944  -0.80267
 Alpha  occ. eigenvalues --   -0.79268  -0.78376  -0.77758  -0.77503  -0.76452
 Alpha  occ. eigenvalues --   -0.75378  -0.75119  -0.74815  -0.74330  -0.73771
 Alpha  occ. eigenvalues --   -0.73227  -0.72597  -0.71694  -0.70527  -0.69699
 Alpha  occ. eigenvalues --   -0.69175  -0.67977  -0.67695  -0.66556  -0.65787
 Alpha  occ. eigenvalues --   -0.65514  -0.65389  -0.65009  -0.64599  -0.63470
 Alpha  occ. eigenvalues --   -0.63157  -0.62787  -0.62650  -0.62543  -0.60198
 Alpha  occ. eigenvalues --   -0.59938  -0.59640  -0.59242  -0.59162  -0.58451
 Alpha  occ. eigenvalues --   -0.57836  -0.57527  -0.56632  -0.56028  -0.55511
 Alpha  occ. eigenvalues --   -0.54980  -0.54807  -0.54471  -0.54112  -0.53680
 Alpha  occ. eigenvalues --   -0.53371  -0.53243  -0.53016  -0.52816  -0.52702
 Alpha  occ. eigenvalues --   -0.52537  -0.52440  -0.52169  -0.52028  -0.51717
 Alpha  occ. eigenvalues --   -0.51297  -0.51108  -0.50970  -0.50802  -0.50569
 Alpha  occ. eigenvalues --   -0.50137  -0.49878  -0.49683  -0.49591  -0.49358
 Alpha  occ. eigenvalues --   -0.49184  -0.48981  -0.48935  -0.48759  -0.48528
 Alpha  occ. eigenvalues --   -0.48467  -0.48316  -0.47959  -0.47645  -0.47453
 Alpha  occ. eigenvalues --   -0.47332  -0.47221  -0.47049  -0.46825  -0.46739
 Alpha  occ. eigenvalues --   -0.46584  -0.46350  -0.46146  -0.45854  -0.45655
 Alpha  occ. eigenvalues --   -0.45590  -0.45177  -0.45074  -0.45006  -0.44835
 Alpha  occ. eigenvalues --   -0.44458  -0.44265  -0.44053  -0.43935  -0.43681
 Alpha  occ. eigenvalues --   -0.43540  -0.43449  -0.43310  -0.43242  -0.42994
 Alpha  occ. eigenvalues --   -0.42765  -0.42627  -0.42214  -0.42051  -0.41907
 Alpha  occ. eigenvalues --   -0.41814  -0.41797  -0.41674  -0.41309  -0.41172
 Alpha  occ. eigenvalues --   -0.40720  -0.40702  -0.40567  -0.40506  -0.40023
 Alpha  occ. eigenvalues --   -0.39518  -0.39153  -0.38683  -0.38657  -0.38513
 Alpha  occ. eigenvalues --   -0.38451  -0.38176  -0.38142  -0.38049  -0.37699
 Alpha  occ. eigenvalues --   -0.37258  -0.36900  -0.36617  -0.36060  -0.35975
 Alpha  occ. eigenvalues --   -0.35718  -0.35566  -0.34759  -0.34525  -0.34481
 Alpha  occ. eigenvalues --   -0.34238  -0.33632  -0.33312  -0.31454  -0.30730
 Alpha  occ. eigenvalues --   -0.30676  -0.30426  -0.29731  -0.29489  -0.24385
 Alpha  occ. eigenvalues --   -0.21621
 Alpha virt. eigenvalues --   -0.09458  -0.01916  -0.00091   0.00356   0.02200
 Alpha virt. eigenvalues --    0.04847   0.05197   0.05617   0.06091   0.06873
 Alpha virt. eigenvalues --    0.07942   0.08337   0.08393   0.09352   0.09508

 Mulliken charges:
               1
     1  Mg   0.807151
     2  C    0.014423
     3  C   -0.067714
     4  C   -0.050829
     5  C   -0.099057
     6  N   -0.220721
     7  C   -0.109077
     8  C   -0.019693
     9  C   -0.042079
    10  C    0.006336
    11  C    0.072425
    12  C    0.038625
    13  C    0.040321
    14  C    0.172534
    15  O   -0.209421
    16  O   -0.332573
    17  N   -0.391740
    18  C    0.157200
    19  C   -0.138124
    20  C   -0.016721
    21  C    0.149156
    22  C    0.141522
    23  C   -0.038428
    24  O   -0.196716
    25  C    0.063116
    26  N   -0.321749
    27  C    0.021334
    28  C   -0.007030
    29  C   -0.016027
    30  C    0.032955
    31  C    0.060370
    32  C    0.024939
    33  C   -0.003678
    34  N   -0.311870
    35  C    0.116413
    36  C   -0.149517
    37  C    0.083145
    38  C    0.125290
    39  C    0.118952
    40  C   -0.067613
    41  O   -0.216579
    42  C    0.003153
    43  C    0.200927
    44  O   -0.198895
    45  O   -0.310064
    46  C    0.172225
    47  C    0.331083
    48  C   -0.207104
    49  C   -0.131765
    50  C    0.058199
    51  C    0.078700
    52  C   -0.004722
    53  C    0.035719
    54  C   -0.154130
    55  C    0.065280
    56  C    0.043602
    57  C    0.026969
    58  C    0.048684
    59  C   -0.135638
    60  C    0.067816
    61  C    0.042691
    62  C    0.027143
    63  C    0.036494
    64  C   -0.176880
    65  C    0.016756
    66  C    0.052904
    67  H   -0.019388
    68  H   -0.054205
    69  H   -0.016134
    70  H    0.014350
    71  H    0.011263
    72  H    0.024037
    73  H    0.010164
    74  H    0.017113
    75  H    0.018031
    76  H    0.023838
    77  H    0.037615
    78  H    0.030470
    79  H    0.024615
    80  H    0.038678
    81  H   -0.013845
    82  H    0.040041
    83  H    0.019144
    84  H    0.038687
    85  H    0.012916
    86  H    0.000128
    87  H    0.017682
    88  H    0.013580
    89  H    0.017775
    90  H    0.010510
    91  H    0.006296
    92  H    0.004758
    93  H    0.024337
    94  H    0.032515
    95  H    0.012141
    96  H    0.047957
    97  H    0.048471
    98  H    0.030693
    99  H    0.038942
   100  H    0.036332
   101  H    0.037006
   102  H    0.009120
   103  H    0.041760
   104  H    0.001346
   105  H    0.014897
   106  H    0.017225
   107  H    0.032228
   108  H    0.012831
   109  H    0.023114
   110  H   -0.010767
   111  H    0.005200
   112  H   -0.011097
   113  H    0.002079
   114  H    0.001687
   115  H    0.001458
   116  H    0.006506
   117  H    0.018470
   118  H    0.005174
   119  H   -0.012631
   120  H   -0.006347
   121  H    0.010158
   122  H   -0.008860
   123  H   -0.013212
   124  H   -0.015861
   125  H   -0.017006
   126  H   -0.001035
   127  H    0.010026
   128  H   -0.002078
   129  H   -0.015985
   130  H    0.007505
   131  H    0.003609
   132  H   -0.005571
   133  H   -0.003484
   134  H    0.003723
   135  H    0.006981
   136  H    0.012300
   137  H    0.016513
   138  H    0.010427
   139  H   -0.002343
   140  H    0.007034
 Sum of Mulliken charges =  -0.00000

 Dipole moment (field-independent basis, Debye):
    X=             -1.0635    Y=              2.5291    Z=              0.1040  Tot=              2.7455
 Quadrupole moment (field-independent basis, Debye-Ang):
   XX=           -392.2312   YY=           -407.2521   ZZ=           -402.4260
   XY=            -47.9198   XZ=             -3.8386   YZ=            -24.1361

 Normal termination of Gaussian 16 at Thu May  5 07:08:23 2022.
