 Gaussian 16, Revision A.03,
 Gaussian 16:  ES64L-G16RevA.03 25-Dec-2016

 ---------------------------------
 #p PBE1PBE/Def2SVP td=(nstates=5)
 ---------------------------------

 -----------------------------------------------------
 step_751_chromophore_11 TDDFT with PBE1PBE functional
 -----------------------------------------------------
 Symbolic Z-matrix:
 Charge =  0 Multiplicity = 1

                         Standard orientation:
 ---------------------------------------------------------------------
 Center     Atomic      Atomic             Coordinates (Angstroms)
 Number     Number       Type             X           Y           Z
 ---------------------------------------------------------------------
      1         12           0       -4.655016    1.510067    0.457433
      2          6           0       -4.957720   -2.091497    0.375012
      3          6           0       -2.204945    1.028774    2.846596
      4          6           0       -4.100895    4.687202    0.098540
      5          6           0       -6.954576    1.519215   -2.222986
      6          7           0       -3.546293   -0.382854    1.366122
      7          6           0       -3.990914   -1.680634    1.324021
      8          6           0       -3.508808   -2.470108    2.540421
      9          6           0       -2.749343   -1.369054    3.357900
     10          6           0       -2.815857   -0.144996    2.474256
     11          6           0       -3.190606   -1.158889    4.809973
     12          6           0       -2.569338   -3.670368    2.130652
     13          6           0       -1.607907   -3.466409    1.025089
     14          6           0       -0.331685   -4.395051    0.978335
     15          8           0        0.279160   -4.730864    1.956087
     16          8           0       -0.069717   -4.913090   -0.268100
     17          7           0       -3.159663    2.619995    1.188647
     18          6           0       -2.399926    2.336348    2.272448
     19          6           0       -1.763515    3.541916    2.753987
     20          6           0       -2.241405    4.612111    1.954951
     21          6           0       -3.216596    3.986512    1.064184
     22          6           0       -0.775039    3.574130    3.880550
     23          6           0       -2.027857    6.059997    2.190136
     24          8           0       -1.368459    6.420345    3.135215
     25          6           0       -2.412351    7.130993    1.218756
     26          7           0       -5.161466    2.859394   -1.065693
     27          6           0       -5.007629    4.201694   -0.860892
     28          6           0       -5.899765    5.061759   -1.830574
     29          6           0       -6.523645    3.939712   -2.743912
     30          6           0       -6.209906    2.652799   -1.918410
     31          6           0       -6.901090    6.010158   -1.169616
     32          6           0       -6.194023    3.960900   -4.290444
     33          6           0       -5.069516    2.916534   -4.752313
     34          7           0       -5.896524    0.051022   -0.615861
     35          6           0       -6.722298    0.217611   -1.689139
     36          6           0       -7.415662   -1.060591   -2.067604
     37          6           0       -6.708006   -1.988736   -1.202813
     38          6           0       -5.784505   -1.296864   -0.439741
     39          6           0       -8.512031   -1.274650   -3.137441
     40          6           0       -6.624749   -3.331662   -0.843253
     41          8           0       -7.275283   -4.313960   -1.283846
     42          6           0       -5.393439   -3.518443    0.111202
     43          6           0       -4.532993   -4.340211   -0.759019
     44          8           0       -4.039235   -3.913662   -1.771991
     45          8           0       -4.314047   -5.574946   -0.243609
     46          6           0       -3.332522   -6.446925   -0.867032
     47          6           0        1.142061   -5.726029   -0.435916
     48          6           0        2.234638   -4.698511   -0.742807
     49          6           0        3.262127   -4.135190   -0.021245
     50          6           0        3.569137   -4.515048    1.521862
     51          6           0        4.322526   -3.292286   -0.755628
     52          6           0        4.963723   -2.112391    0.025439
     53          6           0        5.293770   -0.920573   -0.969328
     54          6           0        6.182934    0.204613   -0.235131
     55          6           0        5.876638    1.675926   -0.677753
     56          6           0        7.650480   -0.067573   -0.536635
     57          6           0        8.528040    0.247436    0.786903
     58          6           0        9.680236    1.255674    0.475560
     59          6           0       11.033241    0.947381    1.007734
     60          6           0       11.220870    1.434104    2.416007
     61          6           0       12.200508    1.508656    0.170095
     62          6           0       12.527404    0.716842   -1.103208
     63          6           0       14.098702    0.417598   -1.136426
     64          6           0       14.762374    1.272863   -2.228849
     65          6           0       14.921601    0.383191   -3.578205
     66          6           0       16.149650    1.937491   -1.912528
     67          1           0       -1.513020    0.877627    3.678463
     68          1           0       -4.114730    5.778897    0.137639
     69          1           0       -7.843138    1.713228   -2.828143
     70          1           0       -4.434156   -2.878259    2.947834
     71          1           0       -1.738761   -1.753078    3.496315
     72          1           0       -2.373128   -1.168415    5.530168
     73          1           0       -3.861355   -1.958323    5.127316
     74          1           0       -3.774086   -0.241750    4.736222
     75          1           0       -3.338121   -4.348869    1.759418
     76          1           0       -2.110580   -3.986860    3.067109
     77          1           0       -1.201637   -2.454673    1.009595
     78          1           0       -2.242870   -3.555797    0.142591
     79          1           0       -1.203447    4.163876    4.690849
     80          1           0        0.206653    3.992551    3.661861
     81          1           0       -0.654953    2.625524    4.403005
     82          1           0       -2.166045    6.865661    0.190888
     83          1           0       -1.863773    8.042883    1.454015
     84          1           0       -3.448732    7.426264    1.380451
     85          1           0       -5.219320    5.727562   -2.361662
     86          1           0       -7.612226    3.927604   -2.685044
     87          1           0       -6.466464    6.985202   -0.952622
     88          1           0       -7.284983    5.582384   -0.243626
     89          1           0       -7.776608    6.230242   -1.779037
     90          1           0       -6.026170    4.997859   -4.584168
     91          1           0       -6.989426    3.558585   -4.917525
     92          1           0       -4.152715    3.137953   -4.205106
     93          1           0       -4.795157    3.053618   -5.798198
     94          1           0       -5.348296    1.926734   -4.390449
     95          1           0       -9.153565   -0.404988   -3.278976
     96          1           0       -9.073056   -2.085668   -2.672053
     97          1           0       -8.103339   -1.511788   -4.119998
     98          1           0       -5.773328   -4.036051    0.992205
     99          1           0       -3.699504   -7.400550   -1.248018
    100          1           0       -2.494561   -6.532893   -0.174911
    101          1           0       -2.906594   -6.095369   -1.806797
    102          1           0        0.991814   -6.088970   -1.452828
    103          1           0        1.486470   -6.448948    0.303687
    104          1           0        2.010928   -4.315613   -1.738559
    105          1           0        4.593593   -4.745811    1.812866
    106          1           0        2.978727   -5.397001    1.770866
    107          1           0        3.235782   -3.669424    2.123606
    108          1           0        3.821001   -2.951443   -1.661359
    109          1           0        5.153421   -3.974936   -0.936456
    110          1           0        5.904877   -2.523230    0.389787
    111          1           0        4.488087   -1.778993    0.947099
    112          1           0        4.379189   -0.423170   -1.292066
    113          1           0        5.625718   -1.327223   -1.924751
    114          1           0        6.092713    0.135600    0.848878
    115          1           0        5.596502    2.160520    0.257940
    116          1           0        4.976607    1.719280   -1.292148
    117          1           0        6.737061    2.184053   -1.111536
    118          1           0        7.993305    0.422879   -1.447999
    119          1           0        7.669248   -1.138151   -0.740168
    120          1           0        9.116367   -0.625138    1.071985
    121          1           0        7.901074    0.625843    1.594457
    122          1           0        9.310391    2.213885    0.840714
    123          1           0        9.760977    1.306514   -0.610660
    124          1           0       11.239933   -0.121885    1.017969
    125          1           0       10.250085    1.685973    2.840884
    126          1           0       11.735437    2.395443    2.397868
    127          1           0       11.665664    0.755515    3.145085
    128          1           0       13.072866    1.668368    0.804915
    129          1           0       11.864732    2.520195   -0.053738
    130          1           0       12.339471    1.316615   -1.993251
    131          1           0       12.037144   -0.254038   -1.176465
    132          1           0       14.192941   -0.652798   -1.319513
    133          1           0       14.614216    0.612532   -0.195397
    134          1           0       14.071171    2.030427   -2.597023
    135          1           0       14.178721   -0.400488   -3.431162
    136          1           0       15.907310   -0.077639   -3.643090
    137          1           0       14.776804    1.085189   -4.398417
    138          1           0       16.945642    1.558319   -2.554309
    139          1           0       16.371272    1.742916   -0.862722
    140          1           0       16.154809    3.024931   -1.976900
 ---------------------------------------------------------------------

 SCF Done:  E(RPBE1PBE) =  -3005.32080862     A.U. after   16 cycles

 Excitation energies and oscillator strengths:

 Excited State   1:      Singlet-A      1.8164 eV  682.59 nm  f=0.3697  <S**2>=0.000
     245 -> 248       -0.17201
     246 -> 247        0.69502
     246 <- 247       -0.11549
 This state for optimization and/or second-order correction.
 Total Energy, E(TD-HF/TD-DFT) =  -3005.25405812
 Copying the excited state density for this state as the 1-particle RhoCI density.

 Excited State   2:      Singlet-A      2.1840 eV  567.69 nm  f=0.1245  <S**2>=0.000
     245 -> 247        0.66048
     246 -> 248        0.23955

 Excited State   3:      Singlet-A      2.7249 eV  455.00 nm  f=0.0005  <S**2>=0.000
     241 -> 247       -0.34381
     241 -> 249        0.11891
     243 -> 247        0.57728
     243 -> 249       -0.11922

 Excited State   4:      Singlet-A      2.9172 eV  425.00 nm  f=0.0000  <S**2>=0.000
     242 -> 247        0.68166
     242 -> 249        0.12834

 Excited State   5:      Singlet-A      2.9836 eV  415.55 nm  f=0.0059  <S**2>=0.000
     241 -> 247        0.58729
     243 -> 247        0.35254
     246 -> 248        0.10674

 The electronic state is 1-A.
 Alpha  occ. eigenvalues --  -46.93716 -19.25981 -19.25583 -19.20216 -19.19579
 Alpha  occ. eigenvalues --  -19.18565 -19.18394 -14.41802 -14.41782 -14.39961
 Alpha  occ. eigenvalues --  -14.39515 -10.36595 -10.36255 -10.31499 -10.31441
 Alpha  occ. eigenvalues --  -10.29702 -10.29647 -10.29379 -10.29193 -10.29007
 Alpha  occ. eigenvalues --  -10.28474 -10.28392 -10.28145 -10.27941 -10.27412
 Alpha  occ. eigenvalues --  -10.26918 -10.26735 -10.26382 -10.26268 -10.26014
 Alpha  occ. eigenvalues --  -10.25886 -10.25814 -10.25797 -10.25378 -10.25300
 Alpha  occ. eigenvalues --  -10.25122 -10.24894 -10.24716 -10.24617 -10.24463
 Alpha  occ. eigenvalues --  -10.24351 -10.24233 -10.24187 -10.23764 -10.23413
 Alpha  occ. eigenvalues --  -10.23350 -10.23282 -10.23230 -10.23134 -10.23072
 Alpha  occ. eigenvalues --  -10.23001 -10.22970 -10.22965 -10.22950 -10.22648
 Alpha  occ. eigenvalues --  -10.22585 -10.22454 -10.22245 -10.22093 -10.22056
 Alpha  occ. eigenvalues --  -10.21741 -10.21724 -10.21683 -10.21604 -10.21518
 Alpha  occ. eigenvalues --  -10.21008  -3.15751  -1.88534  -1.88139  -1.87977
 Alpha  occ. eigenvalues --   -1.11816  -1.11383  -1.05464  -1.03495  -1.03187
 Alpha  occ. eigenvalues --   -1.02308  -0.99281  -0.98537  -0.98436  -0.97600
 Alpha  occ. eigenvalues --   -0.87979  -0.84247  -0.84160  -0.83099  -0.82934
 Alpha  occ. eigenvalues --   -0.82664  -0.82181  -0.81779  -0.81047  -0.80917
 Alpha  occ. eigenvalues --   -0.80188  -0.79819  -0.78435  -0.78046  -0.77438
 Alpha  occ. eigenvalues --   -0.76350  -0.76166  -0.75361  -0.75278  -0.74446
 Alpha  occ. eigenvalues --   -0.73429  -0.72645  -0.72031  -0.71781  -0.70725
 Alpha  occ. eigenvalues --   -0.69746  -0.69246  -0.68907  -0.68461  -0.67927
 Alpha  occ. eigenvalues --   -0.67637  -0.66892  -0.66098  -0.64823  -0.64041
 Alpha  occ. eigenvalues --   -0.63616  -0.62308  -0.62107  -0.60851  -0.60133
 Alpha  occ. eigenvalues --   -0.60008  -0.59757  -0.59425  -0.59117  -0.57640
 Alpha  occ. eigenvalues --   -0.57337  -0.57312  -0.57016  -0.56781  -0.54537
 Alpha  occ. eigenvalues --   -0.54500  -0.54250  -0.53655  -0.53518  -0.53030
 Alpha  occ. eigenvalues --   -0.52280  -0.52058  -0.50998  -0.50643  -0.50094
 Alpha  occ. eigenvalues --   -0.49491  -0.49299  -0.48982  -0.48642  -0.48080
 Alpha  occ. eigenvalues --   -0.47887  -0.47697  -0.47569  -0.47339  -0.47225
 Alpha  occ. eigenvalues --   -0.46939  -0.46909  -0.46671  -0.46636  -0.46317
 Alpha  occ. eigenvalues --   -0.45868  -0.45655  -0.45415  -0.45301  -0.45063
 Alpha  occ. eigenvalues --   -0.44691  -0.44436  -0.44304  -0.44206  -0.43965
 Alpha  occ. eigenvalues --   -0.43827  -0.43548  -0.43491  -0.43404  -0.43120
 Alpha  occ. eigenvalues --   -0.43068  -0.42903  -0.42561  -0.42287  -0.42072
 Alpha  occ. eigenvalues --   -0.41880  -0.41865  -0.41711  -0.41567  -0.41353
 Alpha  occ. eigenvalues --   -0.41220  -0.41048  -0.40824  -0.40582  -0.40406
 Alpha  occ. eigenvalues --   -0.40284  -0.39951  -0.39740  -0.39642  -0.39575
 Alpha  occ. eigenvalues --   -0.39049  -0.39017  -0.38856  -0.38741  -0.38431
 Alpha  occ. eigenvalues --   -0.38293  -0.38235  -0.38117  -0.38015  -0.37752
 Alpha  occ. eigenvalues --   -0.37547  -0.37443  -0.37044  -0.36792  -0.36697
 Alpha  occ. eigenvalues --   -0.36638  -0.36541  -0.36450  -0.36099  -0.36003
 Alpha  occ. eigenvalues --   -0.35544  -0.35432  -0.35394  -0.35314  -0.34952
 Alpha  occ. eigenvalues --   -0.34281  -0.33926  -0.33525  -0.33465  -0.33405
 Alpha  occ. eigenvalues --   -0.33201  -0.33130  -0.32954  -0.32901  -0.32573
 Alpha  occ. eigenvalues --   -0.32323  -0.31774  -0.31525  -0.31051  -0.30964
 Alpha  occ. eigenvalues --   -0.30599  -0.30379  -0.29841  -0.29422  -0.29302
 Alpha  occ. eigenvalues --   -0.29043  -0.28959  -0.28630  -0.27010  -0.26145
 Alpha  occ. eigenvalues --   -0.25667  -0.25403  -0.25171  -0.24798  -0.21321
 Alpha  occ. eigenvalues --   -0.19227
 Alpha virt. eigenvalues --   -0.11845  -0.05437  -0.04284  -0.02460  -0.02167
 Alpha virt. eigenvalues --    0.00361   0.00787   0.00989   0.01482   0.02876
 Alpha virt. eigenvalues --    0.04070   0.04476   0.04814   0.06045   0.06238

 Mulliken charges:
               1
     1  Mg   0.948090
     2  C    0.006289
     3  C   -0.053745
     4  C   -0.052887
     5  C   -0.090211
     6  N   -0.322356
     7  C   -0.024148
     8  C   -0.092204
     9  C   -0.114185
    10  C    0.036872
    11  C    0.013785
    12  C   -0.016818
    13  C   -0.045479
    14  C    0.247129
    15  O   -0.242519
    16  O   -0.363485
    17  N   -0.507704
    18  C    0.179929
    19  C   -0.169607
    20  C   -0.056884
    21  C    0.170242
    22  C    0.086683
    23  C    0.017123
    24  O   -0.230836
    25  C   -0.021058
    26  N   -0.418842
    27  C    0.056318
    28  C   -0.085379
    29  C   -0.078052
    30  C    0.061578
    31  C    0.003099
    32  C   -0.038173
    33  C   -0.081196
    34  N   -0.428995
    35  C    0.129097
    36  C   -0.144915
    37  C    0.033230
    38  C    0.168866
    39  C    0.064673
    40  C    0.014155
    41  O   -0.259682
    42  C   -0.110150
    43  C    0.292360
    44  O   -0.233840
    45  O   -0.345325
    46  C    0.117969
    47  C    0.273408
    48  C   -0.219345
    49  C   -0.160348
    50  C   -0.003091
    51  C    0.011675
    52  C   -0.064397
    53  C   -0.021987
    54  C   -0.240592
    55  C    0.008659
    56  C   -0.008869
    57  C   -0.033448
    58  C   -0.006278
    59  C   -0.226562
    60  C    0.009765
    61  C   -0.008957
    62  C   -0.038561
    63  C   -0.020005
    64  C   -0.263223
    65  C   -0.045442
    66  C   -0.006940
    67  H    0.011381
    68  H   -0.016389
    69  H    0.014592
    70  H    0.051606
    71  H    0.048540
    72  H    0.050269
    73  H    0.038560
    74  H    0.046691
    75  H    0.057438
    76  H    0.055360
    77  H    0.071287
    78  H    0.071898
    79  H    0.052626
    80  H    0.065490
    81  H    0.014217
    82  H    0.066972
    83  H    0.048311
    84  H    0.065161
    85  H    0.049690
    86  H    0.038168
    87  H    0.044321
    88  H    0.041828
    89  H    0.045585
    90  H    0.042164
    91  H    0.039323
    92  H    0.035707
    93  H    0.052508
    94  H    0.063147
    95  H    0.038820
    96  H    0.075067
    97  H    0.075056
    98  H    0.065459
    99  H    0.060184
   100  H    0.060106
   101  H    0.057024
   102  H    0.038281
   103  H    0.067110
   104  H    0.030554
   105  H    0.041375
   106  H    0.045370
   107  H    0.059481
   108  H    0.043899
   109  H    0.057206
   110  H    0.022716
   111  H    0.036310
   112  H    0.022979
   113  H    0.033128
   114  H    0.038491
   115  H    0.029256
   116  H    0.033574
   117  H    0.044833
   118  H    0.034863
   119  H    0.022352
   120  H    0.027547
   121  H    0.039953
   122  H    0.024301
   123  H    0.021767
   124  H    0.022940
   125  H    0.012140
   126  H    0.026631
   127  H    0.037510
   128  H    0.029821
   129  H    0.017886
   130  H    0.039409
   131  H    0.034738
   132  H    0.027146
   133  H    0.027749
   134  H    0.041112
   135  H    0.035182
   136  H    0.039613
   137  H    0.043951
   138  H    0.036818
   139  H    0.024981
   140  H    0.034590
 Sum of Mulliken charges =  -0.00000

 Dipole moment (field-independent basis, Debye):
    X=             -1.0436    Y=              2.7319    Z=              0.0885  Tot=              2.9257
 Quadrupole moment (field-independent basis, Debye-Ang):
   XX=           -388.7728   YY=           -403.7188   ZZ=           -398.3973
   XY=            -49.1680   XZ=             -2.6877   YZ=            -24.7143

 Normal termination of Gaussian 16 at Thu May  5 07:28:13 2022.
