 Gaussian 16, Revision A.03,
 Gaussian 16:  ES64L-G16RevA.03 25-Dec-2016

 --------------------------------
 #p wB97XD/Def2SVP td=(nstates=5)
 --------------------------------

 ----------------------------------------------------
 step_751_chromophore_11 TDDFT with wB97XD functional
 ----------------------------------------------------
 Symbolic Z-matrix:
 Charge =  0 Multiplicity = 1

                         Standard orientation:
 ---------------------------------------------------------------------
 Center     Atomic      Atomic             Coordinates (Angstroms)
 Number     Number       Type             X           Y           Z
 ---------------------------------------------------------------------
      1         12           0       -4.655016    1.510067    0.457433
      2          6           0       -4.957720   -2.091497    0.375012
      3          6           0       -2.204945    1.028774    2.846596
      4          6           0       -4.100895    4.687202    0.098540
      5          6           0       -6.954576    1.519215   -2.222986
      6          7           0       -3.546293   -0.382854    1.366122
      7          6           0       -3.990914   -1.680634    1.324021
      8          6           0       -3.508808   -2.470108    2.540421
      9          6           0       -2.749343   -1.369054    3.357900
     10          6           0       -2.815857   -0.144996    2.474256
     11          6           0       -3.190606   -1.158889    4.809973
     12          6           0       -2.569338   -3.670368    2.130652
     13          6           0       -1.607907   -3.466409    1.025089
     14          6           0       -0.331685   -4.395051    0.978335
     15          8           0        0.279160   -4.730864    1.956087
     16          8           0       -0.069717   -4.913090   -0.268100
     17          7           0       -3.159663    2.619995    1.188647
     18          6           0       -2.399926    2.336348    2.272448
     19          6           0       -1.763515    3.541916    2.753987
     20          6           0       -2.241405    4.612111    1.954951
     21          6           0       -3.216596    3.986512    1.064184
     22          6           0       -0.775039    3.574130    3.880550
     23          6           0       -2.027857    6.059997    2.190136
     24          8           0       -1.368459    6.420345    3.135215
     25          6           0       -2.412351    7.130993    1.218756
     26          7           0       -5.161466    2.859394   -1.065693
     27          6           0       -5.007629    4.201694   -0.860892
     28          6           0       -5.899765    5.061759   -1.830574
     29          6           0       -6.523645    3.939712   -2.743912
     30          6           0       -6.209906    2.652799   -1.918410
     31          6           0       -6.901090    6.010158   -1.169616
     32          6           0       -6.194023    3.960900   -4.290444
     33          6           0       -5.069516    2.916534   -4.752313
     34          7           0       -5.896524    0.051022   -0.615861
     35          6           0       -6.722298    0.217611   -1.689139
     36          6           0       -7.415662   -1.060591   -2.067604
     37          6           0       -6.708006   -1.988736   -1.202813
     38          6           0       -5.784505   -1.296864   -0.439741
     39          6           0       -8.512031   -1.274650   -3.137441
     40          6           0       -6.624749   -3.331662   -0.843253
     41          8           0       -7.275283   -4.313960   -1.283846
     42          6           0       -5.393439   -3.518443    0.111202
     43          6           0       -4.532993   -4.340211   -0.759019
     44          8           0       -4.039235   -3.913662   -1.771991
     45          8           0       -4.314047   -5.574946   -0.243609
     46          6           0       -3.332522   -6.446925   -0.867032
     47          6           0        1.142061   -5.726029   -0.435916
     48          6           0        2.234638   -4.698511   -0.742807
     49          6           0        3.262127   -4.135190   -0.021245
     50          6           0        3.569137   -4.515048    1.521862
     51          6           0        4.322526   -3.292286   -0.755628
     52          6           0        4.963723   -2.112391    0.025439
     53          6           0        5.293770   -0.920573   -0.969328
     54          6           0        6.182934    0.204613   -0.235131
     55          6           0        5.876638    1.675926   -0.677753
     56          6           0        7.650480   -0.067573   -0.536635
     57          6           0        8.528040    0.247436    0.786903
     58          6           0        9.680236    1.255674    0.475560
     59          6           0       11.033241    0.947381    1.007734
     60          6           0       11.220870    1.434104    2.416007
     61          6           0       12.200508    1.508656    0.170095
     62          6           0       12.527404    0.716842   -1.103208
     63          6           0       14.098702    0.417598   -1.136426
     64          6           0       14.762374    1.272863   -2.228849
     65          6           0       14.921601    0.383191   -3.578205
     66          6           0       16.149650    1.937491   -1.912528
     67          1           0       -1.513020    0.877627    3.678463
     68          1           0       -4.114730    5.778897    0.137639
     69          1           0       -7.843138    1.713228   -2.828143
     70          1           0       -4.434156   -2.878259    2.947834
     71          1           0       -1.738761   -1.753078    3.496315
     72          1           0       -2.373128   -1.168415    5.530168
     73          1           0       -3.861355   -1.958323    5.127316
     74          1           0       -3.774086   -0.241750    4.736222
     75          1           0       -3.338121   -4.348869    1.759418
     76          1           0       -2.110580   -3.986860    3.067109
     77          1           0       -1.201637   -2.454673    1.009595
     78          1           0       -2.242870   -3.555797    0.142591
     79          1           0       -1.203447    4.163876    4.690849
     80          1           0        0.206653    3.992551    3.661861
     81          1           0       -0.654953    2.625524    4.403005
     82          1           0       -2.166045    6.865661    0.190888
     83          1           0       -1.863773    8.042883    1.454015
     84          1           0       -3.448732    7.426264    1.380451
     85          1           0       -5.219320    5.727562   -2.361662
     86          1           0       -7.612226    3.927604   -2.685044
     87          1           0       -6.466464    6.985202   -0.952622
     88          1           0       -7.284983    5.582384   -0.243626
     89          1           0       -7.776608    6.230242   -1.779037
     90          1           0       -6.026170    4.997859   -4.584168
     91          1           0       -6.989426    3.558585   -4.917525
     92          1           0       -4.152715    3.137953   -4.205106
     93          1           0       -4.795157    3.053618   -5.798198
     94          1           0       -5.348296    1.926734   -4.390449
     95          1           0       -9.153565   -0.404988   -3.278976
     96          1           0       -9.073056   -2.085668   -2.672053
     97          1           0       -8.103339   -1.511788   -4.119998
     98          1           0       -5.773328   -4.036051    0.992205
     99          1           0       -3.699504   -7.400550   -1.248018
    100          1           0       -2.494561   -6.532893   -0.174911
    101          1           0       -2.906594   -6.095369   -1.806797
    102          1           0        0.991814   -6.088970   -1.452828
    103          1           0        1.486470   -6.448948    0.303687
    104          1           0        2.010928   -4.315613   -1.738559
    105          1           0        4.593593   -4.745811    1.812866
    106          1           0        2.978727   -5.397001    1.770866
    107          1           0        3.235782   -3.669424    2.123606
    108          1           0        3.821001   -2.951443   -1.661359
    109          1           0        5.153421   -3.974936   -0.936456
    110          1           0        5.904877   -2.523230    0.389787
    111          1           0        4.488087   -1.778993    0.947099
    112          1           0        4.379189   -0.423170   -1.292066
    113          1           0        5.625718   -1.327223   -1.924751
    114          1           0        6.092713    0.135600    0.848878
    115          1           0        5.596502    2.160520    0.257940
    116          1           0        4.976607    1.719280   -1.292148
    117          1           0        6.737061    2.184053   -1.111536
    118          1           0        7.993305    0.422879   -1.447999
    119          1           0        7.669248   -1.138151   -0.740168
    120          1           0        9.116367   -0.625138    1.071985
    121          1           0        7.901074    0.625843    1.594457
    122          1           0        9.310391    2.213885    0.840714
    123          1           0        9.760977    1.306514   -0.610660
    124          1           0       11.239933   -0.121885    1.017969
    125          1           0       10.250085    1.685973    2.840884
    126          1           0       11.735437    2.395443    2.397868
    127          1           0       11.665664    0.755515    3.145085
    128          1           0       13.072866    1.668368    0.804915
    129          1           0       11.864732    2.520195   -0.053738
    130          1           0       12.339471    1.316615   -1.993251
    131          1           0       12.037144   -0.254038   -1.176465
    132          1           0       14.192941   -0.652798   -1.319513
    133          1           0       14.614216    0.612532   -0.195397
    134          1           0       14.071171    2.030427   -2.597023
    135          1           0       14.178721   -0.400488   -3.431162
    136          1           0       15.907310   -0.077639   -3.643090
    137          1           0       14.776804    1.085189   -4.398417
    138          1           0       16.945642    1.558319   -2.554309
    139          1           0       16.371272    1.742916   -0.862722
    140          1           0       16.154809    3.024931   -1.976900
 ---------------------------------------------------------------------

 SCF Done:  E(RwB97XD) =  -3007.83180345     A.U. after   20 cycles

 Excitation energies and oscillator strengths:

 Excited State   1:      Singlet-A      1.5925 eV  778.57 nm  f=0.3837  <S**2>=0.000
     245 -> 248       -0.18394
     246 -> 247        0.68470
     245 <- 248       -0.11904
 This state for optimization and/or second-order correction.
 Total Energy, E(TD-HF/TD-DFT) =  -3007.77328188
 Copying the excited state density for this state as the 1-particle RhoCI density.

 Excited State   2:      Singlet-A      2.1313 eV  581.73 nm  f=0.1315  <S**2>=0.000
     245 -> 247        0.64987
     246 -> 248        0.26373

 Excited State   3:      Singlet-A      3.2139 eV  385.77 nm  f=0.0018  <S**2>=0.000
     239 -> 247       -0.14658
     240 -> 247       -0.22774
     240 -> 249        0.16869
     241 -> 247       -0.29874
     241 -> 249        0.19910
     242 -> 247       -0.11021
     243 -> 247        0.43066
     243 -> 249       -0.12274

 Excited State   4:      Singlet-A      3.3143 eV  374.09 nm  f=0.0017  <S**2>=0.000
     240 -> 247        0.22522
     240 -> 249       -0.10713
     241 -> 247        0.33490
     242 -> 247        0.15334
     243 -> 247        0.48744
     246 -> 248        0.17227

 Excited State   5:      Singlet-A      3.5235 eV  351.88 nm  f=0.0624  <S**2>=0.000
     240 -> 247       -0.37750
     241 -> 247        0.18917
     242 -> 247        0.43867
     242 -> 249        0.11380
     246 -> 248       -0.29162

 The electronic state is 1-A.
 Alpha  occ. eigenvalues --  -46.96684 -19.30636 -19.30130 -19.24916 -19.24382
 Alpha  occ. eigenvalues --  -19.23482 -19.23110 -14.47069 -14.46701 -14.44890
 Alpha  occ. eigenvalues --  -14.44503 -10.43404 -10.43183 -10.38459 -10.38176
 Alpha  occ. eigenvalues --  -10.36198 -10.35938 -10.35726 -10.35501 -10.35302
 Alpha  occ. eigenvalues --  -10.35047 -10.34787 -10.34416 -10.34179 -10.33900
 Alpha  occ. eigenvalues --  -10.33286 -10.32942 -10.32926 -10.32548 -10.32358
 Alpha  occ. eigenvalues --  -10.32326 -10.32199 -10.32124 -10.31699 -10.31638
 Alpha  occ. eigenvalues --  -10.31516 -10.31218 -10.31178 -10.30946 -10.30868
 Alpha  occ. eigenvalues --  -10.30629 -10.30614 -10.30554 -10.30164 -10.29784
 Alpha  occ. eigenvalues --  -10.29683 -10.29593 -10.29565 -10.29539 -10.29486
 Alpha  occ. eigenvalues --  -10.29422 -10.29400 -10.29374 -10.29307 -10.29031
 Alpha  occ. eigenvalues --  -10.28944 -10.28804 -10.28570 -10.28436 -10.28347
 Alpha  occ. eigenvalues --  -10.28148 -10.28094 -10.28082 -10.28020 -10.27895
 Alpha  occ. eigenvalues --  -10.27444  -3.22602  -1.96131  -1.95738  -1.95565
 Alpha  occ. eigenvalues --   -1.19301  -1.18764  -1.12842  -1.10980  -1.10534
 Alpha  occ. eigenvalues --   -1.09896  -1.06688  -1.05902  -1.05833  -1.04965
 Alpha  occ. eigenvalues --   -0.95694  -0.91902  -0.91828  -0.90707  -0.90610
 Alpha  occ. eigenvalues --   -0.90246  -0.89752  -0.89448  -0.88707  -0.88512
 Alpha  occ. eigenvalues --   -0.87860  -0.87487  -0.86105  -0.85715  -0.85100
 Alpha  occ. eigenvalues --   -0.84012  -0.83836  -0.83011  -0.82906  -0.82115
 Alpha  occ. eigenvalues --   -0.81100  -0.80305  -0.79673  -0.79424  -0.78362
 Alpha  occ. eigenvalues --   -0.77316  -0.76940  -0.76603  -0.76139  -0.75594
 Alpha  occ. eigenvalues --   -0.75208  -0.74513  -0.73649  -0.72446  -0.71599
 Alpha  occ. eigenvalues --   -0.71190  -0.69870  -0.69661  -0.68447  -0.67671
 Alpha  occ. eigenvalues --   -0.67489  -0.67309  -0.66945  -0.66588  -0.65290
 Alpha  occ. eigenvalues --   -0.64965  -0.64775  -0.64533  -0.64422  -0.62098
 Alpha  occ. eigenvalues --   -0.61914  -0.61643  -0.61204  -0.61115  -0.60427
 Alpha  occ. eigenvalues --   -0.59760  -0.59493  -0.58533  -0.58005  -0.57480
 Alpha  occ. eigenvalues --   -0.56921  -0.56736  -0.56402  -0.56062  -0.55534
 Alpha  occ. eigenvalues --   -0.55280  -0.55123  -0.54942  -0.54719  -0.54597
 Alpha  occ. eigenvalues --   -0.54445  -0.54307  -0.54036  -0.53951  -0.53636
 Alpha  occ. eigenvalues --   -0.53201  -0.53012  -0.52914  -0.52654  -0.52430
 Alpha  occ. eigenvalues --   -0.52077  -0.51777  -0.51603  -0.51509  -0.51291
 Alpha  occ. eigenvalues --   -0.51100  -0.50887  -0.50806  -0.50681  -0.50414
 Alpha  occ. eigenvalues --   -0.50396  -0.50195  -0.49846  -0.49551  -0.49359
 Alpha  occ. eigenvalues --   -0.49183  -0.49151  -0.48988  -0.48734  -0.48627
 Alpha  occ. eigenvalues --   -0.48482  -0.48246  -0.48025  -0.47767  -0.47581
 Alpha  occ. eigenvalues --   -0.47487  -0.47108  -0.46955  -0.46856  -0.46765
 Alpha  occ. eigenvalues --   -0.46292  -0.46171  -0.45968  -0.45838  -0.45590
 Alpha  occ. eigenvalues --   -0.45423  -0.45366  -0.45217  -0.45148  -0.44886
 Alpha  occ. eigenvalues --   -0.44650  -0.44534  -0.44162  -0.44020  -0.43804
 Alpha  occ. eigenvalues --   -0.43732  -0.43685  -0.43540  -0.43247  -0.43073
 Alpha  occ. eigenvalues --   -0.42636  -0.42552  -0.42437  -0.42409  -0.41913
 Alpha  occ. eigenvalues --   -0.41351  -0.41002  -0.40555  -0.40519  -0.40431
 Alpha  occ. eigenvalues --   -0.40288  -0.40094  -0.39976  -0.39916  -0.39587
 Alpha  occ. eigenvalues --   -0.39298  -0.38745  -0.38630  -0.37994  -0.37937
 Alpha  occ. eigenvalues --   -0.37568  -0.37400  -0.36727  -0.36479  -0.36342
 Alpha  occ. eigenvalues --   -0.36123  -0.35585  -0.35465  -0.33630  -0.32786
 Alpha  occ. eigenvalues --   -0.32659  -0.32480  -0.31916  -0.31507  -0.26291
 Alpha  occ. eigenvalues --   -0.23410
 Alpha virt. eigenvalues --   -0.07816   0.00000   0.01987   0.03536   0.04327
 Alpha virt. eigenvalues --    0.07078   0.07548   0.07711   0.08340   0.09577
 Alpha virt. eigenvalues --    0.10844   0.11047   0.11404   0.12791   0.12906

 Mulliken charges:
               1
     1  Mg   0.942021
     2  C    0.002964
     3  C   -0.070620
     4  C   -0.064558
     5  C   -0.110044
     6  N   -0.284109
     7  C   -0.061634
     8  C   -0.067580
     9  C   -0.093042
    10  C    0.023665
    11  C    0.024681
    12  C    0.002764
    13  C   -0.018446
    14  C    0.231781
    15  O   -0.238578
    16  O   -0.362277
    17  N   -0.477378
    18  C    0.170561
    19  C   -0.158310
    20  C   -0.054970
    21  C    0.168455
    22  C    0.095298
    23  C    0.011230
    24  O   -0.227256
    25  C   -0.006686
    26  N   -0.392128
    27  C    0.044878
    28  C   -0.060493
    29  C   -0.057586
    30  C    0.055154
    31  C    0.012179
    32  C   -0.025274
    33  C   -0.058649
    34  N   -0.394610
    35  C    0.125602
    36  C   -0.152706
    37  C    0.037150
    38  C    0.154359
    39  C    0.078284
    40  C    0.003283
    41  O   -0.249845
    42  C   -0.070967
    43  C    0.265817
    44  O   -0.227314
    45  O   -0.341756
    46  C    0.134261
    47  C    0.293199
    48  C   -0.226020
    49  C   -0.155875
    50  C    0.009794
    51  C    0.032716
    52  C   -0.050251
    53  C   -0.004641
    54  C   -0.209294
    55  C    0.019140
    56  C    0.005698
    57  C   -0.017254
    58  C    0.010679
    59  C   -0.194339
    60  C    0.019695
    61  C    0.008627
    62  C   -0.022483
    63  C   -0.003114
    64  C   -0.237366
    65  C   -0.030239
    66  C    0.006581
    67  H    0.005739
    68  H   -0.030255
    69  H    0.008949
    70  H    0.041626
    71  H    0.037880
    72  H    0.046255
    73  H    0.032940
    74  H    0.038154
    75  H    0.040067
    76  H    0.048959
    77  H    0.063233
    78  H    0.055352
    79  H    0.048048
    80  H    0.062583
    81  H    0.008691
    82  H    0.061939
    83  H    0.046425
    84  H    0.060622
    85  H    0.040697
    86  H    0.026215
    87  H    0.039297
    88  H    0.035238
    89  H    0.040064
    90  H    0.035422
    91  H    0.031294
    92  H    0.026487
    93  H    0.047945
    94  H    0.052884
    95  H    0.033801
    96  H    0.070488
    97  H    0.071150
    98  H    0.061573
    99  H    0.057153
   100  H    0.054359
   101  H    0.053765
   102  H    0.034351
   103  H    0.063599
   104  H    0.026052
   105  H    0.037239
   106  H    0.038299
   107  H    0.054009
   108  H    0.035088
   109  H    0.049160
   110  H    0.012189
   111  H    0.028504
   112  H    0.013143
   113  H    0.024866
   114  H    0.024384
   115  H    0.023462
   116  H    0.027924
   117  H    0.038448
   118  H    0.026116
   119  H    0.011451
   120  H    0.017950
   121  H    0.031658
   122  H    0.015120
   123  H    0.008061
   124  H    0.008842
   125  H    0.004842
   126  H    0.019577
   127  H    0.033557
   128  H    0.019197
   129  H    0.007661
   130  H    0.029506
   131  H    0.027279
   132  H    0.018902
   133  H    0.017203
   134  H    0.028119
   135  H    0.027022
   136  H    0.032736
   137  H    0.038813
   138  H    0.030573
   139  H    0.017981
   140  H    0.029254
 Sum of Mulliken charges =  -0.00000

 Dipole moment (field-independent basis, Debye):
    X=             -1.0977    Y=              2.5435    Z=              0.1291  Tot=              2.7733
 Quadrupole moment (field-independent basis, Debye-Ang):
   XX=           -387.9547   YY=           -403.0844   ZZ=           -398.3402
   XY=            -48.0014   XZ=             -3.1989   YZ=            -24.2924

 Normal termination of Gaussian 16 at Thu May  5 07:57:02 2022.
