 Gaussian 16, Revision A.03,
 Gaussian 16:  ES64L-G16RevA.03 25-Dec-2016

 --------------------
 #p ZINDO=(nstates=5)
 --------------------

 -----------------------------
 step_751_chromophore_11 ZINDO
 -----------------------------
 Symbolic Z-matrix:
 Charge =  0 Multiplicity = 1

                         Standard orientation:
 ---------------------------------------------------------------------
 Center     Atomic      Atomic             Coordinates (Angstroms)
 Number     Number       Type             X           Y           Z
 ---------------------------------------------------------------------
      1         12           0       -4.655016    1.510067    0.457433
      2          6           0       -4.957720   -2.091497    0.375012
      3          6           0       -2.204945    1.028774    2.846596
      4          6           0       -4.100895    4.687202    0.098540
      5          6           0       -6.954576    1.519215   -2.222986
      6          7           0       -3.546293   -0.382854    1.366122
      7          6           0       -3.990914   -1.680634    1.324021
      8          6           0       -3.508808   -2.470108    2.540421
      9          6           0       -2.749343   -1.369054    3.357900
     10          6           0       -2.815857   -0.144996    2.474256
     11          6           0       -3.190606   -1.158889    4.809973
     12          6           0       -2.569338   -3.670368    2.130652
     13          6           0       -1.607907   -3.466409    1.025089
     14          6           0       -0.331685   -4.395051    0.978335
     15          8           0        0.279160   -4.730864    1.956087
     16          8           0       -0.069717   -4.913090   -0.268100
     17          7           0       -3.159663    2.619995    1.188647
     18          6           0       -2.399926    2.336348    2.272448
     19          6           0       -1.763515    3.541916    2.753987
     20          6           0       -2.241405    4.612111    1.954951
     21          6           0       -3.216596    3.986512    1.064184
     22          6           0       -0.775039    3.574130    3.880550
     23          6           0       -2.027857    6.059997    2.190136
     24          8           0       -1.368459    6.420345    3.135215
     25          6           0       -2.412351    7.130993    1.218756
     26          7           0       -5.161466    2.859394   -1.065693
     27          6           0       -5.007629    4.201694   -0.860892
     28          6           0       -5.899765    5.061759   -1.830574
     29          6           0       -6.523645    3.939712   -2.743912
     30          6           0       -6.209906    2.652799   -1.918410
     31          6           0       -6.901090    6.010158   -1.169616
     32          6           0       -6.194023    3.960900   -4.290444
     33          6           0       -5.069516    2.916534   -4.752313
     34          7           0       -5.896524    0.051022   -0.615861
     35          6           0       -6.722298    0.217611   -1.689139
     36          6           0       -7.415662   -1.060591   -2.067604
     37          6           0       -6.708006   -1.988736   -1.202813
     38          6           0       -5.784505   -1.296864   -0.439741
     39          6           0       -8.512031   -1.274650   -3.137441
     40          6           0       -6.624749   -3.331662   -0.843253
     41          8           0       -7.275283   -4.313960   -1.283846
     42          6           0       -5.393439   -3.518443    0.111202
     43          6           0       -4.532993   -4.340211   -0.759019
     44          8           0       -4.039235   -3.913662   -1.771991
     45          8           0       -4.314047   -5.574946   -0.243609
     46          6           0       -3.332522   -6.446925   -0.867032
     47          6           0        1.142061   -5.726029   -0.435916
     48          6           0        2.234638   -4.698511   -0.742807
     49          6           0        3.262127   -4.135190   -0.021245
     50          6           0        3.569137   -4.515048    1.521862
     51          6           0        4.322526   -3.292286   -0.755628
     52          6           0        4.963723   -2.112391    0.025439
     53          6           0        5.293770   -0.920573   -0.969328
     54          6           0        6.182934    0.204613   -0.235131
     55          6           0        5.876638    1.675926   -0.677753
     56          6           0        7.650480   -0.067573   -0.536635
     57          6           0        8.528040    0.247436    0.786903
     58          6           0        9.680236    1.255674    0.475560
     59          6           0       11.033241    0.947381    1.007734
     60          6           0       11.220870    1.434104    2.416007
     61          6           0       12.200508    1.508656    0.170095
     62          6           0       12.527404    0.716842   -1.103208
     63          6           0       14.098702    0.417598   -1.136426
     64          6           0       14.762374    1.272863   -2.228849
     65          6           0       14.921601    0.383191   -3.578205
     66          6           0       16.149650    1.937491   -1.912528
     67          1           0       -1.513020    0.877627    3.678463
     68          1           0       -4.114730    5.778897    0.137639
     69          1           0       -7.843138    1.713228   -2.828143
     70          1           0       -4.434156   -2.878259    2.947834
     71          1           0       -1.738761   -1.753078    3.496315
     72          1           0       -2.373128   -1.168415    5.530168
     73          1           0       -3.861355   -1.958323    5.127316
     74          1           0       -3.774086   -0.241750    4.736222
     75          1           0       -3.338121   -4.348869    1.759418
     76          1           0       -2.110580   -3.986860    3.067109
     77          1           0       -1.201637   -2.454673    1.009595
     78          1           0       -2.242870   -3.555797    0.142591
     79          1           0       -1.203447    4.163876    4.690849
     80          1           0        0.206653    3.992551    3.661861
     81          1           0       -0.654953    2.625524    4.403005
     82          1           0       -2.166045    6.865661    0.190888
     83          1           0       -1.863773    8.042883    1.454015
     84          1           0       -3.448732    7.426264    1.380451
     85          1           0       -5.219320    5.727562   -2.361662
     86          1           0       -7.612226    3.927604   -2.685044
     87          1           0       -6.466464    6.985202   -0.952622
     88          1           0       -7.284983    5.582384   -0.243626
     89          1           0       -7.776608    6.230242   -1.779037
     90          1           0       -6.026170    4.997859   -4.584168
     91          1           0       -6.989426    3.558585   -4.917525
     92          1           0       -4.152715    3.137953   -4.205106
     93          1           0       -4.795157    3.053618   -5.798198
     94          1           0       -5.348296    1.926734   -4.390449
     95          1           0       -9.153565   -0.404988   -3.278976
     96          1           0       -9.073056   -2.085668   -2.672053
     97          1           0       -8.103339   -1.511788   -4.119998
     98          1           0       -5.773328   -4.036051    0.992205
     99          1           0       -3.699504   -7.400550   -1.248018
    100          1           0       -2.494561   -6.532893   -0.174911
    101          1           0       -2.906594   -6.095369   -1.806797
    102          1           0        0.991814   -6.088970   -1.452828
    103          1           0        1.486470   -6.448948    0.303687
    104          1           0        2.010928   -4.315613   -1.738559
    105          1           0        4.593593   -4.745811    1.812866
    106          1           0        2.978727   -5.397001    1.770866
    107          1           0        3.235782   -3.669424    2.123606
    108          1           0        3.821001   -2.951443   -1.661359
    109          1           0        5.153421   -3.974936   -0.936456
    110          1           0        5.904877   -2.523230    0.389787
    111          1           0        4.488087   -1.778993    0.947099
    112          1           0        4.379189   -0.423170   -1.292066
    113          1           0        5.625718   -1.327223   -1.924751
    114          1           0        6.092713    0.135600    0.848878
    115          1           0        5.596502    2.160520    0.257940
    116          1           0        4.976607    1.719280   -1.292148
    117          1           0        6.737061    2.184053   -1.111536
    118          1           0        7.993305    0.422879   -1.447999
    119          1           0        7.669248   -1.138151   -0.740168
    120          1           0        9.116367   -0.625138    1.071985
    121          1           0        7.901074    0.625843    1.594457
    122          1           0        9.310391    2.213885    0.840714
    123          1           0        9.760977    1.306514   -0.610660
    124          1           0       11.239933   -0.121885    1.017969
    125          1           0       10.250085    1.685973    2.840884
    126          1           0       11.735437    2.395443    2.397868
    127          1           0       11.665664    0.755515    3.145085
    128          1           0       13.072866    1.668368    0.804915
    129          1           0       11.864732    2.520195   -0.053738
    130          1           0       12.339471    1.316615   -1.993251
    131          1           0       12.037144   -0.254038   -1.176465
    132          1           0       14.192941   -0.652798   -1.319513
    133          1           0       14.614216    0.612532   -0.195397
    134          1           0       14.071171    2.030427   -2.597023
    135          1           0       14.178721   -0.400488   -3.431162
    136          1           0       15.907310   -0.077639   -3.643090
    137          1           0       14.776804    1.085189   -4.398417
    138          1           0       16.945642    1.558319   -2.554309
    139          1           0       16.371272    1.742916   -0.862722
    140          1           0       16.154809    3.024931   -1.976900
 ---------------------------------------------------------------------

 SCF Done:  E(RZINDO/S) =  -474.100957910     A.U. after   20 cycles

 Excitation energies and oscillator strengths:

 Excited State   1:      Singlet-A      1.1857 eV 1045.70 nm  f=0.6120  <S**2>=0.000
     175 ->178        -0.19316
     176 ->177         0.66075
 This state for optimization and/or second-order correction.
 Total Energy, E(CIS/TDA) =  -474.057385704
 Copying the excited state density for this state as the 1-particle RhoCI density.

 Excited State   2:      Singlet-A      1.8427 eV  672.84 nm  f=0.0740  <S**2>=0.000
     175 ->177         0.57204
     176 ->178         0.38316

 Excited State   3:      Singlet-A      2.7735 eV  447.03 nm  f=0.0012  <S**2>=0.000
     168 ->177         0.38846
     168 ->178         0.21549
     168 ->179        -0.39008
     168 ->181        -0.19456
     168 ->185         0.16215
     168 ->187         0.10682
     168 ->200         0.12764
     173 ->177         0.11688

 Excited State   4:      Singlet-A      2.8809 eV  430.36 nm  f=0.6497  <S**2>=0.000
     172 ->177        -0.13082
     173 ->177        -0.11046
     175 ->177        -0.29369
     176 ->178         0.51794
     176 ->179        -0.26896

 Excited State   5:      Singlet-A      2.9349 eV  422.45 nm  f=0.0145  <S**2>=0.000
     169 ->177         0.16216
     169 ->179         0.19363
     169 ->181        -0.25830
     169 ->184         0.10581
     169 ->185        -0.14509
     169 ->196         0.10090
     170 ->177         0.19163
     170 ->179         0.22442
     170 ->181        -0.30209
     170 ->184         0.12342
     170 ->185        -0.16746
     170 ->187         0.11004
     170 ->196         0.11188

 The electronic state is 1-A.
 Alpha  occ. eigenvalues --   -1.84431  -1.81714  -1.80102  -1.74261  -1.73013
 Alpha  occ. eigenvalues --   -1.70964  -1.65623  -1.61312  -1.59625  -1.59031
 Alpha  occ. eigenvalues --   -1.53964  -1.51460  -1.47648  -1.47255  -1.45384
 Alpha  occ. eigenvalues --   -1.44243  -1.43725  -1.40065  -1.38512  -1.35979
 Alpha  occ. eigenvalues --   -1.35578  -1.32029  -1.31310  -1.30414  -1.29024
 Alpha  occ. eigenvalues --   -1.26867  -1.26465  -1.21949  -1.19963  -1.18605
 Alpha  occ. eigenvalues --   -1.17322  -1.15293  -1.14738  -1.13781  -1.12797
 Alpha  occ. eigenvalues --   -1.11726  -1.10633  -1.09903  -1.05267  -1.04581
 Alpha  occ. eigenvalues --   -1.02934  -1.01893  -1.00142  -0.98144  -0.96922
 Alpha  occ. eigenvalues --   -0.95676  -0.94099  -0.93521  -0.92106  -0.91769
 Alpha  occ. eigenvalues --   -0.91320  -0.90249  -0.88746  -0.88366  -0.87823
 Alpha  occ. eigenvalues --   -0.85096  -0.83898  -0.82606  -0.81242  -0.80600
 Alpha  occ. eigenvalues --   -0.79972  -0.78205  -0.77978  -0.76666  -0.76453
 Alpha  occ. eigenvalues --   -0.75675  -0.75434  -0.74872  -0.74552  -0.73569
 Alpha  occ. eigenvalues --   -0.73514  -0.72440  -0.71867  -0.70585  -0.70490
 Alpha  occ. eigenvalues --   -0.69967  -0.69507  -0.69439  -0.68846  -0.68128
 Alpha  occ. eigenvalues --   -0.67194  -0.66333  -0.65560  -0.65263  -0.65206
 Alpha  occ. eigenvalues --   -0.64919  -0.64636  -0.64492  -0.63965  -0.63792
 Alpha  occ. eigenvalues --   -0.63337  -0.62928  -0.62577  -0.62164  -0.61815
 Alpha  occ. eigenvalues --   -0.61455  -0.60838  -0.60760  -0.60114  -0.59890
 Alpha  occ. eigenvalues --   -0.59518  -0.58860  -0.58509  -0.57999  -0.57958
 Alpha  occ. eigenvalues --   -0.57229  -0.57127  -0.57051  -0.56583  -0.56434
 Alpha  occ. eigenvalues --   -0.55524  -0.55345  -0.55229  -0.54908  -0.54395
 Alpha  occ. eigenvalues --   -0.54184  -0.53789  -0.53572  -0.53333  -0.52908
 Alpha  occ. eigenvalues --   -0.52633  -0.52613  -0.52019  -0.51679  -0.51364
 Alpha  occ. eigenvalues --   -0.51200  -0.50778  -0.50443  -0.50130  -0.49924
 Alpha  occ. eigenvalues --   -0.49867  -0.49552  -0.49241  -0.49068  -0.48634
 Alpha  occ. eigenvalues --   -0.48542  -0.48518  -0.48249  -0.47930  -0.47729
 Alpha  occ. eigenvalues --   -0.47588  -0.47333  -0.46981  -0.46805  -0.46765
 Alpha  occ. eigenvalues --   -0.46465  -0.46058  -0.45819  -0.45585  -0.45512
 Alpha  occ. eigenvalues --   -0.45277  -0.45084  -0.44613  -0.44237  -0.44009
 Alpha  occ. eigenvalues --   -0.43363  -0.43237  -0.43215  -0.42293  -0.42186
 Alpha  occ. eigenvalues --   -0.41730  -0.41226  -0.41000  -0.38910  -0.38597
 Alpha  occ. eigenvalues --   -0.38396  -0.37641  -0.35055  -0.34806  -0.34668
 Alpha  occ. eigenvalues --   -0.33167  -0.32971  -0.32145  -0.31421  -0.26713
 Alpha  occ. eigenvalues --   -0.22001
 Alpha virt. eigenvalues --   -0.09195  -0.02344  -0.00855   0.00578   0.01138
 Alpha virt. eigenvalues --    0.02285   0.02667   0.02999   0.04770   0.05034
 Alpha virt. eigenvalues --    0.06040   0.07107   0.07192   0.07806   0.08058

 Mulliken charges:
               1
     1  Mg   0.449396
     2  C   -0.036066
     3  C   -0.065500
     4  C   -0.109185
     5  C   -0.088815
     6  N   -0.287423
     7  C    0.120306
     8  C   -0.002466
     9  C    0.001500
    10  C    0.125522
    11  C   -0.053582
    12  C   -0.018656
    13  C    0.012045
    14  C    0.465283
    15  O   -0.510080
    16  O   -0.262941
    17  N   -0.305349
    18  C    0.093603
    19  C    0.041282
    20  C   -0.058757
    21  C    0.125920
    22  C   -0.037136
    23  C    0.330831
    24  O   -0.525144
    25  C   -0.027602
    26  N   -0.286331
    27  C    0.132790
    28  C    0.013479
    29  C   -0.004457
    30  C    0.145891
    31  C   -0.045539
    32  C   -0.032884
    33  C   -0.062954
    34  N   -0.333020
    35  C    0.120406
    36  C    0.017490
    37  C   -0.029307
    38  C    0.123224
    39  C   -0.030118
    40  C    0.331473
    41  O   -0.549734
    42  C    0.052739
    43  C    0.513932
    44  O   -0.529345
    45  O   -0.266246
    46  C    0.071163
    47  C    0.101777
    48  C   -0.082678
    49  C   -0.026867
    50  C   -0.049844
    51  C   -0.019050
    52  C   -0.038017
    53  C   -0.042738
    54  C   -0.019423
    55  C   -0.062523
    56  C   -0.040434
    57  C   -0.050766
    58  C   -0.028729
    59  C   -0.000450
    60  C   -0.057495
    61  C   -0.035035
    62  C   -0.040969
    63  C   -0.036246
    64  C   -0.025227
    65  C   -0.072756
    66  C   -0.060572
    67  H    0.034386
    68  H    0.022903
    69  H    0.030701
    70  H    0.035444
    71  H    0.028365
    72  H    0.030236
    73  H    0.014274
    74  H    0.025910
    75  H    0.020629
    76  H    0.034190
    77  H    0.043013
    78  H    0.043930
    79  H    0.032581
    80  H    0.043571
    81  H    0.014839
    82  H    0.033932
    83  H    0.029682
    84  H    0.039545
    85  H    0.029878
    86  H    0.020680
    87  H    0.019147
    88  H    0.020765
    89  H    0.019059
    90  H    0.026611
    91  H    0.019226
    92  H    0.010389
    93  H    0.027430
    94  H    0.035927
    95  H    0.025339
    96  H    0.040868
    97  H    0.044717
    98  H    0.051009
    99  H    0.044840
   100  H    0.036503
   101  H    0.042961
   102  H    0.035514
   103  H    0.068907
   104  H    0.023201
   105  H    0.025887
   106  H    0.025180
   107  H    0.031591
   108  H    0.027212
   109  H    0.031719
   110  H    0.010708
   111  H    0.031351
   112  H    0.009279
   113  H    0.028442
   114  H    0.029792
   115  H    0.011521
   116  H    0.021932
   117  H    0.029052
   118  H    0.029316
   119  H    0.009085
   120  H    0.021715
   121  H    0.031570
   122  H    0.017357
   123  H    0.011696
   124  H    0.014763
   125  H    0.004908
   126  H    0.016575
   127  H    0.021042
   128  H    0.021140
   129  H    0.011074
   130  H    0.025642
   131  H    0.024293
   132  H    0.016907
   133  H    0.020595
   134  H    0.022314
   135  H    0.023333
   136  H    0.020923
   137  H    0.023470
   138  H    0.023779
   139  H    0.014773
   140  H    0.017363
 Sum of Mulliken charges =  -0.00000

 Dipole moment (field-independent basis, Debye):
    X=             -3.5888    Y=              3.0460    Z=              0.5156  Tot=              4.7354
 N-N= 4.383851577229D+03 E-N= 0.000000000000D+00  KE=-9.442054139159D+03
 Leave Link  601 at Thu May  5 08:09:41 2022, MaxMem=  6710886400 cpu:               0.8 elap:               0.1
 (Enter /sw/apps/gaussian-16.0/g16/l9999.exe)
 1\1\GINC-BP1-COMPUTE069\SP\RZINDO CIS\STO-3G\C55H74Mg1N4O6\OF15641\05-
 May-2022\0\\#p ZINDO=(nstates=5)\\step_751_chromophore_11 ZINDO\\0,1\M
 g,0,53.541,23.724,44.665\C,0,50.529,25.579,43.919\C,0,51.8,20.917,43.6
 49\C,0,56.415,22.232,44.875\C,0,55.028,26.866,45.289\N,0,51.418,23.333
 ,43.676\C,0,50.35,24.195,43.681\C,0,49.025,23.434,43.657\C,0,49.509,21
 .944,43.712\C,0,51.016,22.046,43.666\C,0,48.941,21.074,44.838\C,0,48.1
 88,23.747,42.356\C,0,48.91,23.9,41.074\C,0,48.103,23.65,39.74\O,0,47.2

 Normal termination of Gaussian 16 at Thu May  5 08:09:41 2022.
