 Gaussian 16, Revision A.03,
 Gaussian 16:  ES64L-G16RevA.03 25-Dec-2016

 ------------------------------
 #p blyp/Def2SVP td=(nstates=5)
 ------------------------------

 --------------------------------------------------
 step_701_chromophore_25 TDDFT with blyp functional
 --------------------------------------------------
 Symbolic Z-matrix:
 Charge =  0 Multiplicity = 1

                         Standard orientation:
 ---------------------------------------------------------------------
 Center     Atomic      Atomic             Coordinates (Angstroms)
 Number     Number       Type             X           Y           Z
 ---------------------------------------------------------------------
      1         12           0        5.913796    0.400466    0.052170
      2          6           0        3.644635   -2.426411    0.028037
      3          6           0        3.053470    2.384815   -0.279625
      4          6           0        7.910365    2.994205   -0.401944
      5          6           0        8.536086   -1.799043    0.396351
      6          7           0        3.526829   -0.049716   -0.104453
      7          6           0        2.902626   -1.220649    0.008276
      8          6           0        1.368623   -0.936154   -0.096655
      9          6           0        1.249322    0.565529   -0.333143
     10          6           0        2.735982    1.026026   -0.168225
     11          6           0        0.497156    1.096550   -1.653228
     12          6           0        0.480560   -1.426205    1.117353
     13          6           0       -0.737680   -2.299682    0.813404
     14          6           0       -2.044005   -1.892918    1.493770
     15          8           0       -2.337238   -2.154218    2.651061
     16          8           0       -2.707642   -1.013780    0.628295
     17          7           0        5.575229    2.378547   -0.262303
     18          6           0        4.348991    2.981701   -0.275333
     19          6           0        4.580419    4.383156   -0.585196
     20          6           0        5.943472    4.626337   -0.637590
     21          6           0        6.540013    3.332906   -0.361482
     22          6           0        3.440221    5.288189   -0.801815
     23          6           0        6.581055    5.999765   -0.796348
     24          8           0        7.796348    6.147964   -0.817141
     25          6           0        5.785977    7.126998   -1.015222
     26          7           0        7.963051    0.621452    0.060738
     27          6           0        8.567836    1.788692   -0.124396
     28          6           0       10.179632    1.620919    0.134994
     29          6           0       10.297919    0.112116    0.581071
     30          6           0        8.863626   -0.391430    0.300924
     31          6           0       11.119480    1.865815   -1.060801
     32          6           0       10.739742   -0.029255    2.045479
     33          6           0       12.288878   -0.226497    2.220517
     34          7           0        6.052226   -1.597820    0.241953
     35          6           0        7.218180   -2.411794    0.321667
     36          6           0        6.894634   -3.807264    0.510937
     37          6           0        5.511046   -3.809795    0.356037
     38          6           0        4.973430   -2.506898    0.196342
     39          6           0        7.769189   -4.994070    0.634631
     40          6           0        4.378626   -4.736545    0.280491
     41          8           0        4.308872   -5.962981    0.334651
     42          6           0        3.107955   -3.789888    0.094504
     43          6           0        2.406934   -4.206486   -1.100074
     44          8           0        2.800507   -4.063116   -2.252780
     45          8           0        1.253810   -4.848466   -0.738481
     46          6           0        0.371105   -5.429614   -1.818594
     47          6           0       -3.952761   -0.522434    1.232602
     48          6           0       -4.873053   -0.418480    0.026915
     49          6           0       -5.968832    0.349289   -0.166330
     50          6           0       -6.623400    1.235073    0.884195
     51          6           0       -6.803853    0.341482   -1.413495
     52          6           0       -7.992442   -0.614885   -1.304063
     53          6           0       -9.353594    0.160034   -1.499908
     54          6           0       -9.935766   -0.035430   -2.902300
     55          6           0       -9.470035    1.201346   -3.778926
     56          6           0      -11.531975   -0.075209   -3.067223
     57          6           0      -12.218720   -1.123418   -2.122666
     58          6           0      -13.425983   -0.548039   -1.457594
     59          6           0      -13.351434   -0.512041    0.107984
     60          6           0      -13.935452   -1.763934    0.816521
     61          6           0      -13.822385    0.878199    0.641168
     62          6           0      -12.641361    1.807400    1.140037
     63          6           0      -11.951045    1.385705    2.439837
     64          6           0      -11.282243    2.578465    3.166269
     65          6           0       -9.883970    2.787932    2.520501
     66          6           0      -11.012627    2.359126    4.714803
     67          1           0        2.170927    3.020700   -0.373728
     68          1           0        8.614387    3.824611   -0.481892
     69          1           0        9.331630   -2.450254    0.765717
     70          1           0        1.011861   -1.447553   -0.990101
     71          1           0        0.760370    1.074546    0.497674
     72          1           0        1.151993    1.483051   -2.433620
     73          1           0       -0.238206    1.869362   -1.424842
     74          1           0       -0.018479    0.287729   -2.170887
     75          1           0        0.114061   -0.532133    1.621435
     76          1           0        1.195854   -1.908580    1.782683
     77          1           0       -0.408974   -3.264639    1.200750
     78          1           0       -0.946133   -2.560222   -0.224086
     79          1           0        3.214012    5.760891    0.154078
     80          1           0        2.516769    4.808038   -1.123619
     81          1           0        3.497303    6.044943   -1.584496
     82          1           0        6.436056    7.997771   -0.938321
     83          1           0        4.932554    7.245250   -0.346890
     84          1           0        5.563442    7.159567   -2.081590
     85          1           0       10.345756    2.285844    0.982268
     86          1           0       10.847017   -0.495039   -0.138875
     87          1           0       11.690570    1.007695   -1.416377
     88          1           0       11.886233    2.589422   -0.782532
     89          1           0       10.672578    2.315975   -1.947443
     90          1           0       10.222609   -0.837817    2.560837
     91          1           0       10.346192    0.865592    2.527275
     92          1           0       12.664939    0.628060    2.784754
     93          1           0       12.676850   -0.209858    1.202027
     94          1           0       12.458158   -1.164042    2.747989
     95          1           0        7.879770   -5.246343    1.689375
     96          1           0        8.738645   -4.925037    0.141819
     97          1           0        7.209124   -5.759424    0.097212
     98          1           0        2.517741   -4.044175    0.975388
     99          1           0        0.829472   -5.474280   -2.805933
    100          1           0       -0.574465   -4.915680   -1.991972
    101          1           0        0.090294   -6.434427   -1.502554
    102          1           0       -3.948430    0.496675    1.620326
    103          1           0       -4.413700   -1.200177    1.951427
    104          1           0       -4.551223   -1.025741   -0.819135
    105          1           0       -5.899530    1.649004    1.586977
    106          1           0       -7.312796    0.626466    1.469104
    107          1           0       -7.124886    2.094483    0.439005
    108          1           0       -6.104995   -0.050514   -2.152247
    109          1           0       -7.030094    1.355952   -1.739830
    110          1           0       -7.940617   -0.948929   -0.268035
    111          1           0       -7.974080   -1.523147   -1.905906
    112          1           0       -9.076979    1.197020   -1.306503
    113          1           0      -10.060052   -0.106175   -0.713021
    114          1           0       -9.483036   -0.928170   -3.334748
    115          1           0      -10.345013    1.767010   -4.099007
    116          1           0       -9.033245    0.693623   -4.638593
    117          1           0       -8.682905    1.850406   -3.394674
    118          1           0      -11.609254   -0.442426   -4.090450
    119          1           0      -11.931972    0.929245   -2.925666
    120          1           0      -11.408241   -1.463674   -1.477103
    121          1           0      -12.510378   -1.937021   -2.786445
    122          1           0      -14.223835   -1.234122   -1.741590
    123          1           0      -13.758316    0.389052   -1.904104
    124          1           0      -12.266441   -0.489304    0.207730
    125          1           0      -13.981464   -2.591640    0.109000
    126          1           0      -14.924499   -1.678637    1.265752
    127          1           0      -13.096546   -1.945691    1.489233
    128          1           0      -14.457444    0.572679    1.472482
    129          1           0      -14.522328    1.365458   -0.037105
    130          1           0      -12.829376    2.879492    1.086684
    131          1           0      -11.936274    1.555592    0.347992
    132          1           0      -11.246767    0.595250    2.180138
    133          1           0      -12.696045    0.970948    3.118552
    134          1           0      -11.907407    3.461588    3.034324
    135          1           0       -9.796614    2.069134    1.706674
    136          1           0       -8.994642    2.756502    3.151113
    137          1           0      -10.078397    3.747535    2.042223
    138          1           0      -11.432838    1.401018    5.017880
    139          1           0      -11.407658    3.047881    5.461748
    140          1           0       -9.954183    2.437944    4.961219
 ---------------------------------------------------------------------

 SCF Done:  E(RB-LYP) =  -3007.33995433     A.U. after   21 cycles

 Excitation energies and oscillator strengths:

 Excited State   1:      Singlet-A      1.8668 eV  664.14 nm  f=0.2910  <S**2>=0.000
     245 -> 248        0.22752
     246 -> 247        0.67836
     246 <- 247       -0.13484
 This state for optimization and/or second-order correction.
 Total Energy, E(TD-HF/TD-DFT) =  -3007.27134900
 Copying the excited state density for this state as the 1-particle RhoCI density.

 Excited State   2:      Singlet-A      2.0317 eV  610.24 nm  f=0.0145  <S**2>=0.000
     244 -> 247        0.60237
     245 -> 247        0.33222
     246 -> 248       -0.13626

 Excited State   3:      Singlet-A      2.0660 eV  600.13 nm  f=0.0407  <S**2>=0.000
     243 -> 247        0.17228
     244 -> 247       -0.36714
     245 -> 247        0.51927
     246 -> 248       -0.24268

 Excited State   4:      Singlet-A      2.1296 eV  582.19 nm  f=0.0045  <S**2>=0.000
     243 -> 247        0.68149
     245 -> 247       -0.15491

 Excited State   5:      Singlet-A      2.3800 eV  520.94 nm  f=0.0000  <S**2>=0.000
     242 -> 247        0.70710

 The electronic state is 1-A.
 Alpha  occ. eigenvalues --  -46.26442 -18.83075 -18.82288 -18.77809 -18.76199
 Alpha  occ. eigenvalues --  -18.76047 -18.75217 -14.03173 -14.02795 -14.01510
 Alpha  occ. eigenvalues --  -14.00984 -10.04554 -10.03370  -9.99848  -9.99411
 Alpha  occ. eigenvalues --   -9.98150  -9.97902  -9.96838  -9.96685  -9.96580
 Alpha  occ. eigenvalues --   -9.96112  -9.96046  -9.96015  -9.95733  -9.94510
 Alpha  occ. eigenvalues --   -9.94403  -9.94078  -9.93871  -9.93704  -9.93585
 Alpha  occ. eigenvalues --   -9.93531  -9.93400  -9.93309  -9.93303  -9.93246
 Alpha  occ. eigenvalues --   -9.93188  -9.93127  -9.92795  -9.92735  -9.92724
 Alpha  occ. eigenvalues --   -9.92556  -9.92549  -9.92351  -9.92329  -9.92279
 Alpha  occ. eigenvalues --   -9.92207  -9.92158  -9.92062  -9.92042  -9.91856
 Alpha  occ. eigenvalues --   -9.91831  -9.91635  -9.91606  -9.91564  -9.91527
 Alpha  occ. eigenvalues --   -9.91422  -9.91276  -9.91268  -9.91238  -9.91187
 Alpha  occ. eigenvalues --   -9.91161  -9.90784  -9.90763  -9.90754  -9.90704
 Alpha  occ. eigenvalues --   -9.90405  -2.91265  -1.71688  -1.71172  -1.70963
 Alpha  occ. eigenvalues --   -0.97764  -0.96871  -0.91742  -0.91151  -0.90728
 Alpha  occ. eigenvalues --   -0.88956  -0.86821  -0.86301  -0.85673  -0.83992
 Alpha  occ. eigenvalues --   -0.76301  -0.73874  -0.72993  -0.72589  -0.72510
 Alpha  occ. eigenvalues --   -0.71906  -0.71820  -0.71137  -0.70702  -0.70331
 Alpha  occ. eigenvalues --   -0.69793  -0.68963  -0.67957  -0.67381  -0.67209
 Alpha  occ. eigenvalues --   -0.66833  -0.66410  -0.65590  -0.64896  -0.64733
 Alpha  occ. eigenvalues --   -0.64012  -0.63065  -0.62267  -0.61923  -0.60930
 Alpha  occ. eigenvalues --   -0.60556  -0.60064  -0.59923  -0.59558  -0.58676
 Alpha  occ. eigenvalues --   -0.58052  -0.57725  -0.57009  -0.55640  -0.54476
 Alpha  occ. eigenvalues --   -0.53871  -0.53540  -0.52879  -0.52724  -0.51902
 Alpha  occ. eigenvalues --   -0.51765  -0.51293  -0.50911  -0.50614  -0.50357
 Alpha  occ. eigenvalues --   -0.49982  -0.49205  -0.48952  -0.48112  -0.47323
 Alpha  occ. eigenvalues --   -0.46385  -0.46045  -0.45648  -0.44997  -0.44698
 Alpha  occ. eigenvalues --   -0.44234  -0.43875  -0.43308  -0.42642  -0.42211
 Alpha  occ. eigenvalues --   -0.41685  -0.41426  -0.41306  -0.41167  -0.40806
 Alpha  occ. eigenvalues --   -0.40707  -0.40663  -0.40612  -0.40281  -0.40215
 Alpha  occ. eigenvalues --   -0.39684  -0.39422  -0.39401  -0.39253  -0.39088
 Alpha  occ. eigenvalues --   -0.38934  -0.38772  -0.38590  -0.38505  -0.38387
 Alpha  occ. eigenvalues --   -0.38209  -0.37871  -0.37789  -0.37593  -0.37489
 Alpha  occ. eigenvalues --   -0.37214  -0.37001  -0.36842  -0.36704  -0.36696
 Alpha  occ. eigenvalues --   -0.36312  -0.36150  -0.35919  -0.35841  -0.35690
 Alpha  occ. eigenvalues --   -0.35485  -0.35376  -0.35221  -0.35089  -0.34563
 Alpha  occ. eigenvalues --   -0.34530  -0.34448  -0.34075  -0.34049  -0.33952
 Alpha  occ. eigenvalues --   -0.33856  -0.33396  -0.33272  -0.33168  -0.33112
 Alpha  occ. eigenvalues --   -0.33017  -0.32804  -0.32731  -0.32518  -0.32394
 Alpha  occ. eigenvalues --   -0.32329  -0.32141  -0.31957  -0.31896  -0.31844
 Alpha  occ. eigenvalues --   -0.31445  -0.31384  -0.31259  -0.31118  -0.30960
 Alpha  occ. eigenvalues --   -0.30609  -0.30477  -0.30466  -0.30095  -0.30018
 Alpha  occ. eigenvalues --   -0.29715  -0.29583  -0.29353  -0.29187  -0.29104
 Alpha  occ. eigenvalues --   -0.28312  -0.28119  -0.27876  -0.27740  -0.27516
 Alpha  occ. eigenvalues --   -0.27489  -0.27251  -0.27046  -0.26727  -0.26612
 Alpha  occ. eigenvalues --   -0.26308  -0.26100  -0.25844  -0.25147  -0.24918
 Alpha  occ. eigenvalues --   -0.24826  -0.24672  -0.24204  -0.23963  -0.23831
 Alpha  occ. eigenvalues --   -0.23112  -0.22522  -0.22266  -0.21532  -0.21288
 Alpha  occ. eigenvalues --   -0.20475  -0.20065  -0.19003  -0.18746  -0.17348
 Alpha  occ. eigenvalues --   -0.15904
 Alpha virt. eigenvalues --   -0.11318  -0.07216  -0.06182  -0.04487  -0.03715
 Alpha virt. eigenvalues --   -0.02218  -0.01509  -0.01305  -0.00837  -0.00071
 Alpha virt. eigenvalues --    0.00845   0.01316   0.01642   0.02498   0.02842

 Mulliken charges:
               1
     1  Mg   0.708806
     2  C    0.027967
     3  C   -0.065088
     4  C   -0.047836
     5  C   -0.058863
     6  N   -0.126577
     7  C   -0.112962
     8  C    0.021123
     9  C   -0.006593
    10  C   -0.032003
    11  C    0.114336
    12  C    0.130598
    13  C    0.157034
    14  C    0.070046
    15  O   -0.177579
    16  O   -0.290204
    17  N   -0.309360
    18  C    0.175099
    19  C   -0.150595
    20  C    0.060555
    21  C    0.097359
    22  C    0.158519
    23  C   -0.102350
    24  O   -0.163338
    25  C    0.180448
    26  N   -0.232427
    27  C    0.018303
    28  C    0.026243
    29  C    0.012895
    30  C   -0.002834
    31  C    0.124514
    32  C    0.080176
    33  C    0.085531
    34  N   -0.340602
    35  C    0.117791
    36  C   -0.172182
    37  C    0.078136
    38  C    0.148530
    39  C    0.174426
    40  C   -0.055749
    41  O   -0.132806
    42  C    0.058854
    43  C    0.100937
    44  O   -0.184420
    45  O   -0.278872
    46  C    0.200975
    47  C    0.342819
    48  C   -0.126335
    49  C   -0.185056
    50  C    0.125917
    51  C    0.152488
    52  C    0.086566
    53  C    0.079537
    54  C   -0.102760
    55  C    0.096592
    56  C    0.074000
    57  C    0.086004
    58  C    0.118243
    59  C   -0.128422
    60  C    0.136734
    61  C    0.126108
    62  C    0.053051
    63  C    0.102901
    64  C   -0.102896
    65  C    0.089683
    66  C    0.095230
    67  H   -0.061573
    68  H   -0.046885
    69  H   -0.053650
    70  H   -0.013246
    71  H   -0.025103
    72  H   -0.005915
    73  H   -0.006028
    74  H   -0.008759
    75  H   -0.015407
    76  H   -0.014270
    77  H   -0.011307
    78  H   -0.009915
    79  H    0.005679
    80  H   -0.017111
    81  H   -0.005421
    82  H   -0.022355
    83  H    0.007279
    84  H    0.014969
    85  H   -0.010369
    86  H   -0.019621
    87  H   -0.008030
    88  H   -0.014671
    89  H   -0.005712
    90  H   -0.025786
    91  H   -0.029509
    92  H   -0.000657
    93  H   -0.003513
    94  H    0.004781
    95  H    0.009258
    96  H   -0.007209
    97  H    0.015850
    98  H    0.000590
    99  H    0.027011
   100  H    0.011577
   101  H    0.021864
   102  H    0.001435
   103  H    0.019393
   104  H   -0.044397
   105  H   -0.024108
   106  H    0.013410
   107  H   -0.003222
   108  H   -0.049164
   109  H   -0.017048
   110  H   -0.035399
   111  H   -0.023241
   112  H   -0.029449
   113  H   -0.031765
   114  H   -0.032546
   115  H   -0.014026
   116  H   -0.024946
   117  H   -0.011898
   118  H   -0.028413
   119  H   -0.014183
   120  H   -0.021541
   121  H   -0.041709
   122  H   -0.053120
   123  H   -0.036980
   124  H   -0.029589
   125  H   -0.023169
   126  H    0.001370
   127  H   -0.009126
   128  H   -0.056891
   129  H   -0.033444
   130  H   -0.029364
   131  H   -0.028728
   132  H   -0.023116
   133  H   -0.033716
   134  H   -0.023530
   135  H   -0.011372
   136  H    0.005515
   137  H   -0.018924
   138  H   -0.019693
   139  H   -0.022422
   140  H   -0.024081
 Sum of Mulliken charges =  -0.00000

 Dipole moment (field-independent basis, Debye):
    X=             -2.2102    Y=              3.5911    Z=             -0.0627  Tot=              4.2173
 Quadrupole moment (field-independent basis, Debye-Ang):
   XX=           -375.4857   YY=           -425.5033   ZZ=           -412.5578
   XY=             -4.2265   XZ=             21.7662   YZ=              5.2726

 Normal termination of Gaussian 16 at Thu May  5 07:22:15 2022.
