 Gaussian 16, Revision A.03,
 Gaussian 16:  ES64L-G16RevA.03 25-Dec-2016

 -----------------------------------
 #p cam-b3lyp/Def2SVP td=(nstates=5)
 -----------------------------------

 -------------------------------------------------------
 step_701_chromophore_25 TDDFT with cam-b3lyp functional
 -------------------------------------------------------
 Symbolic Z-matrix:
 Charge =  0 Multiplicity = 1

                         Standard orientation:
 ---------------------------------------------------------------------
 Center     Atomic      Atomic             Coordinates (Angstroms)
 Number     Number       Type             X           Y           Z
 ---------------------------------------------------------------------
      1         12           0        5.913796    0.400466    0.052170
      2          6           0        3.644635   -2.426411    0.028037
      3          6           0        3.053470    2.384815   -0.279625
      4          6           0        7.910365    2.994205   -0.401944
      5          6           0        8.536086   -1.799043    0.396351
      6          7           0        3.526829   -0.049716   -0.104453
      7          6           0        2.902626   -1.220649    0.008276
      8          6           0        1.368623   -0.936154   -0.096655
      9          6           0        1.249322    0.565529   -0.333143
     10          6           0        2.735982    1.026026   -0.168225
     11          6           0        0.497156    1.096550   -1.653228
     12          6           0        0.480560   -1.426205    1.117353
     13          6           0       -0.737680   -2.299682    0.813404
     14          6           0       -2.044005   -1.892918    1.493770
     15          8           0       -2.337238   -2.154218    2.651061
     16          8           0       -2.707642   -1.013780    0.628295
     17          7           0        5.575229    2.378547   -0.262303
     18          6           0        4.348991    2.981701   -0.275333
     19          6           0        4.580419    4.383156   -0.585196
     20          6           0        5.943472    4.626337   -0.637590
     21          6           0        6.540013    3.332906   -0.361482
     22          6           0        3.440221    5.288189   -0.801815
     23          6           0        6.581055    5.999765   -0.796348
     24          8           0        7.796348    6.147964   -0.817141
     25          6           0        5.785977    7.126998   -1.015222
     26          7           0        7.963051    0.621452    0.060738
     27          6           0        8.567836    1.788692   -0.124396
     28          6           0       10.179632    1.620919    0.134994
     29          6           0       10.297919    0.112116    0.581071
     30          6           0        8.863626   -0.391430    0.300924
     31          6           0       11.119480    1.865815   -1.060801
     32          6           0       10.739742   -0.029255    2.045479
     33          6           0       12.288878   -0.226497    2.220517
     34          7           0        6.052226   -1.597820    0.241953
     35          6           0        7.218180   -2.411794    0.321667
     36          6           0        6.894634   -3.807264    0.510937
     37          6           0        5.511046   -3.809795    0.356037
     38          6           0        4.973430   -2.506898    0.196342
     39          6           0        7.769189   -4.994070    0.634631
     40          6           0        4.378626   -4.736545    0.280491
     41          8           0        4.308872   -5.962981    0.334651
     42          6           0        3.107955   -3.789888    0.094504
     43          6           0        2.406934   -4.206486   -1.100074
     44          8           0        2.800507   -4.063116   -2.252780
     45          8           0        1.253810   -4.848466   -0.738481
     46          6           0        0.371105   -5.429614   -1.818594
     47          6           0       -3.952761   -0.522434    1.232602
     48          6           0       -4.873053   -0.418480    0.026915
     49          6           0       -5.968832    0.349289   -0.166330
     50          6           0       -6.623400    1.235073    0.884195
     51          6           0       -6.803853    0.341482   -1.413495
     52          6           0       -7.992442   -0.614885   -1.304063
     53          6           0       -9.353594    0.160034   -1.499908
     54          6           0       -9.935766   -0.035430   -2.902300
     55          6           0       -9.470035    1.201346   -3.778926
     56          6           0      -11.531975   -0.075209   -3.067223
     57          6           0      -12.218720   -1.123418   -2.122666
     58          6           0      -13.425983   -0.548039   -1.457594
     59          6           0      -13.351434   -0.512041    0.107984
     60          6           0      -13.935452   -1.763934    0.816521
     61          6           0      -13.822385    0.878199    0.641168
     62          6           0      -12.641361    1.807400    1.140037
     63          6           0      -11.951045    1.385705    2.439837
     64          6           0      -11.282243    2.578465    3.166269
     65          6           0       -9.883970    2.787932    2.520501
     66          6           0      -11.012627    2.359126    4.714803
     67          1           0        2.170927    3.020700   -0.373728
     68          1           0        8.614387    3.824611   -0.481892
     69          1           0        9.331630   -2.450254    0.765717
     70          1           0        1.011861   -1.447553   -0.990101
     71          1           0        0.760370    1.074546    0.497674
     72          1           0        1.151993    1.483051   -2.433620
     73          1           0       -0.238206    1.869362   -1.424842
     74          1           0       -0.018479    0.287729   -2.170887
     75          1           0        0.114061   -0.532133    1.621435
     76          1           0        1.195854   -1.908580    1.782683
     77          1           0       -0.408974   -3.264639    1.200750
     78          1           0       -0.946133   -2.560222   -0.224086
     79          1           0        3.214012    5.760891    0.154078
     80          1           0        2.516769    4.808038   -1.123619
     81          1           0        3.497303    6.044943   -1.584496
     82          1           0        6.436056    7.997771   -0.938321
     83          1           0        4.932554    7.245250   -0.346890
     84          1           0        5.563442    7.159567   -2.081590
     85          1           0       10.345756    2.285844    0.982268
     86          1           0       10.847017   -0.495039   -0.138875
     87          1           0       11.690570    1.007695   -1.416377
     88          1           0       11.886233    2.589422   -0.782532
     89          1           0       10.672578    2.315975   -1.947443
     90          1           0       10.222609   -0.837817    2.560837
     91          1           0       10.346192    0.865592    2.527275
     92          1           0       12.664939    0.628060    2.784754
     93          1           0       12.676850   -0.209858    1.202027
     94          1           0       12.458158   -1.164042    2.747989
     95          1           0        7.879770   -5.246343    1.689375
     96          1           0        8.738645   -4.925037    0.141819
     97          1           0        7.209124   -5.759424    0.097212
     98          1           0        2.517741   -4.044175    0.975388
     99          1           0        0.829472   -5.474280   -2.805933
    100          1           0       -0.574465   -4.915680   -1.991972
    101          1           0        0.090294   -6.434427   -1.502554
    102          1           0       -3.948430    0.496675    1.620326
    103          1           0       -4.413700   -1.200177    1.951427
    104          1           0       -4.551223   -1.025741   -0.819135
    105          1           0       -5.899530    1.649004    1.586977
    106          1           0       -7.312796    0.626466    1.469104
    107          1           0       -7.124886    2.094483    0.439005
    108          1           0       -6.104995   -0.050514   -2.152247
    109          1           0       -7.030094    1.355952   -1.739830
    110          1           0       -7.940617   -0.948929   -0.268035
    111          1           0       -7.974080   -1.523147   -1.905906
    112          1           0       -9.076979    1.197020   -1.306503
    113          1           0      -10.060052   -0.106175   -0.713021
    114          1           0       -9.483036   -0.928170   -3.334748
    115          1           0      -10.345013    1.767010   -4.099007
    116          1           0       -9.033245    0.693623   -4.638593
    117          1           0       -8.682905    1.850406   -3.394674
    118          1           0      -11.609254   -0.442426   -4.090450
    119          1           0      -11.931972    0.929245   -2.925666
    120          1           0      -11.408241   -1.463674   -1.477103
    121          1           0      -12.510378   -1.937021   -2.786445
    122          1           0      -14.223835   -1.234122   -1.741590
    123          1           0      -13.758316    0.389052   -1.904104
    124          1           0      -12.266441   -0.489304    0.207730
    125          1           0      -13.981464   -2.591640    0.109000
    126          1           0      -14.924499   -1.678637    1.265752
    127          1           0      -13.096546   -1.945691    1.489233
    128          1           0      -14.457444    0.572679    1.472482
    129          1           0      -14.522328    1.365458   -0.037105
    130          1           0      -12.829376    2.879492    1.086684
    131          1           0      -11.936274    1.555592    0.347992
    132          1           0      -11.246767    0.595250    2.180138
    133          1           0      -12.696045    0.970948    3.118552
    134          1           0      -11.907407    3.461588    3.034324
    135          1           0       -9.796614    2.069134    1.706674
    136          1           0       -8.994642    2.756502    3.151113
    137          1           0      -10.078397    3.747535    2.042223
    138          1           0      -11.432838    1.401018    5.017880
    139          1           0      -11.407658    3.047881    5.461748
    140          1           0       -9.954183    2.437944    4.961219
 ---------------------------------------------------------------------

 SCF Done:  E(RCAM-B3LYP) =  -3007.13176074     A.U. after   17 cycles

 Excitation energies and oscillator strengths:

 Excited State   1:      Singlet-A      1.7640 eV  702.87 nm  f=0.3637  <S**2>=0.000
     245 -> 248        0.20935
     246 -> 247        0.67748
     245 <- 248        0.11311
 This state for optimization and/or second-order correction.
 Total Energy, E(TD-HF/TD-DFT) =  -3007.06693565
 Copying the excited state density for this state as the 1-particle RhoCI density.

 Excited State   2:      Singlet-A      2.2857 eV  542.44 nm  f=0.0726  <S**2>=0.000
     245 -> 247        0.61429
     246 -> 248       -0.34236

 Excited State   3:      Singlet-A      3.4642 eV  357.90 nm  f=0.5710  <S**2>=0.000
     244 -> 247        0.36519
     245 -> 247        0.27291
     246 -> 248        0.52919

 Excited State   4:      Singlet-A      3.5498 eV  349.27 nm  f=0.0279  <S**2>=0.000
     241 -> 247        0.47318
     241 -> 249       -0.24276
     241 -> 250        0.16148
     242 -> 247       -0.23995
     242 -> 249        0.15240
     244 -> 247       -0.25245

 Excited State   5:      Singlet-A      3.5669 eV  347.59 nm  f=0.2769  <S**2>=0.000
     241 -> 247        0.10806
     241 -> 249       -0.12309
     242 -> 247       -0.24052
     244 -> 247        0.52473
     245 -> 247       -0.18100
     246 -> 248       -0.28739

 The electronic state is 1-A.
 Alpha  occ. eigenvalues --  -46.87882 -19.26003 -19.25384 -19.20867 -19.19411
 Alpha  occ. eigenvalues --  -19.19248 -19.18404 -14.41861 -14.41676 -14.39974
 Alpha  occ. eigenvalues --  -14.39389 -10.39949 -10.38923 -10.35290 -10.34507
 Alpha  occ. eigenvalues --  -10.32224 -10.32114 -10.31272 -10.31121 -10.31089
 Alpha  occ. eigenvalues --  -10.30498 -10.30468 -10.30340 -10.30066 -10.28639
 Alpha  occ. eigenvalues --  -10.28515 -10.28132 -10.27993 -10.27872 -10.27853
 Alpha  occ. eigenvalues --  -10.27593 -10.27565 -10.27539 -10.27520 -10.27493
 Alpha  occ. eigenvalues --  -10.27294 -10.27113 -10.26725 -10.26709 -10.26677
 Alpha  occ. eigenvalues --  -10.26459 -10.26384 -10.26321 -10.26030 -10.25987
 Alpha  occ. eigenvalues --  -10.25929 -10.25877 -10.25853 -10.25684 -10.25655
 Alpha  occ. eigenvalues --  -10.25552 -10.25548 -10.25543 -10.25365 -10.25343
 Alpha  occ. eigenvalues --  -10.25267 -10.25185 -10.24956 -10.24922 -10.24910
 Alpha  occ. eigenvalues --  -10.24873 -10.24424 -10.24422 -10.24412 -10.24320
 Alpha  occ. eigenvalues --  -10.24059  -3.16621  -1.91515  -1.91089  -1.90927
 Alpha  occ. eigenvalues --   -1.16241  -1.15531  -1.10152  -1.09564  -1.08649
 Alpha  occ. eigenvalues --   -1.06997  -1.04574  -1.03950  -1.03223  -1.01480
 Alpha  occ. eigenvalues --   -0.93480  -0.90822  -0.89829  -0.89314  -0.89273
 Alpha  occ. eigenvalues --   -0.88625  -0.88533  -0.87829  -0.87295  -0.86848
 Alpha  occ. eigenvalues --   -0.86189  -0.85304  -0.84249  -0.83644  -0.83441
 Alpha  occ. eigenvalues --   -0.82928  -0.82460  -0.81536  -0.80746  -0.80578
 Alpha  occ. eigenvalues --   -0.79784  -0.78829  -0.77877  -0.77451  -0.76338
 Alpha  occ. eigenvalues --   -0.75998  -0.75327  -0.75274  -0.74871  -0.73922
 Alpha  occ. eigenvalues --   -0.73089  -0.72714  -0.71909  -0.70479  -0.68997
 Alpha  occ. eigenvalues --   -0.68500  -0.68121  -0.67347  -0.67165  -0.66042
 Alpha  occ. eigenvalues --   -0.65797  -0.65592  -0.64964  -0.64604  -0.64296
 Alpha  occ. eigenvalues --   -0.64047  -0.63174  -0.62885  -0.61833  -0.60955
 Alpha  occ. eigenvalues --   -0.59949  -0.59571  -0.59292  -0.58686  -0.58022
 Alpha  occ. eigenvalues --   -0.57744  -0.57218  -0.56572  -0.55921  -0.55365
 Alpha  occ. eigenvalues --   -0.54871  -0.54683  -0.54071  -0.54026  -0.53919
 Alpha  occ. eigenvalues --   -0.53817  -0.53342  -0.53238  -0.53139  -0.52856
 Alpha  occ. eigenvalues --   -0.52517  -0.52051  -0.51926  -0.51733  -0.51658
 Alpha  occ. eigenvalues --   -0.51311  -0.51206  -0.51118  -0.51102  -0.50717
 Alpha  occ. eigenvalues --   -0.50633  -0.50186  -0.50052  -0.50003  -0.49848
 Alpha  occ. eigenvalues --   -0.49749  -0.49536  -0.49371  -0.49230  -0.48842
 Alpha  occ. eigenvalues --   -0.48720  -0.48443  -0.48201  -0.47929  -0.47737
 Alpha  occ. eigenvalues --   -0.47605  -0.47276  -0.47205  -0.47052  -0.46747
 Alpha  occ. eigenvalues --   -0.46447  -0.46272  -0.45979  -0.45958  -0.45811
 Alpha  occ. eigenvalues --   -0.45752  -0.45047  -0.44918  -0.44878  -0.44792
 Alpha  occ. eigenvalues --   -0.44686  -0.44580  -0.44416  -0.44185  -0.44104
 Alpha  occ. eigenvalues --   -0.44033  -0.43972  -0.43807  -0.43472  -0.43331
 Alpha  occ. eigenvalues --   -0.43060  -0.42820  -0.42763  -0.42481  -0.42427
 Alpha  occ. eigenvalues --   -0.42204  -0.41915  -0.41771  -0.41742  -0.41359
 Alpha  occ. eigenvalues --   -0.41137  -0.40836  -0.40549  -0.40485  -0.40264
 Alpha  occ. eigenvalues --   -0.39272  -0.39088  -0.38869  -0.38743  -0.38580
 Alpha  occ. eigenvalues --   -0.38394  -0.38156  -0.37956  -0.37816  -0.37531
 Alpha  occ. eigenvalues --   -0.37336  -0.36942  -0.36596  -0.36536  -0.35782
 Alpha  occ. eigenvalues --   -0.35638  -0.35256  -0.34727  -0.34668  -0.34259
 Alpha  occ. eigenvalues --   -0.34218  -0.33830  -0.33225  -0.31454  -0.31239
 Alpha  occ. eigenvalues --   -0.30852  -0.30675  -0.29807  -0.29776  -0.24041
 Alpha  occ. eigenvalues --   -0.21125
 Alpha virt. eigenvalues --   -0.08251  -0.02262   0.00434   0.02604   0.03714
 Alpha virt. eigenvalues --    0.04189   0.05367   0.05782   0.05852   0.06574
 Alpha virt. eigenvalues --    0.07400   0.07838   0.08581   0.08825   0.09187

 Mulliken charges:
               1
     1  Mg   0.843368
     2  C   -0.000233
     3  C   -0.079173
     4  C   -0.068047
     5  C   -0.069378
     6  N   -0.193367
     7  C   -0.061405
     8  C   -0.031080
     9  C   -0.056983
    10  C   -0.009467
    11  C    0.055727
    12  C    0.080808
    13  C    0.088266
    14  C    0.149076
    15  O   -0.218481
    16  O   -0.353863
    17  N   -0.398224
    18  C    0.185095
    19  C   -0.157417
    20  C   -0.007953
    21  C    0.125241
    22  C    0.090207
    23  C   -0.013028
    24  O   -0.204732
    25  C    0.078437
    26  N   -0.310211
    27  C    0.040057
    28  C   -0.023901
    29  C   -0.045212
    30  C    0.021796
    31  C    0.062821
    32  C    0.024825
    33  C    0.025287
    34  N   -0.427619
    35  C    0.124885
    36  C   -0.166477
    37  C   -0.004200
    38  C    0.177173
    39  C    0.118659
    40  C    0.048166
    41  O   -0.171653
    42  C   -0.027239
    43  C    0.194303
    44  O   -0.221728
    45  O   -0.344257
    46  C    0.167425
    47  C    0.306730
    48  C   -0.142462
    49  C   -0.206899
    50  C    0.067522
    51  C    0.089322
    52  C    0.033956
    53  C    0.027628
    54  C   -0.152916
    55  C    0.039863
    56  C    0.026705
    57  C    0.027476
    58  C    0.060841
    59  C   -0.178433
    60  C    0.078278
    61  C    0.074586
    62  C    0.003066
    63  C    0.049369
    64  C   -0.162447
    65  C    0.038121
    66  C    0.038934
    67  H   -0.025068
    68  H   -0.008046
    69  H   -0.020130
    70  H    0.018656
    71  H    0.009159
    72  H    0.019848
    73  H    0.017667
    74  H    0.015569
    75  H    0.015019
    76  H    0.016529
    77  H    0.022449
    78  H    0.020336
    79  H    0.034018
    80  H    0.012024
    81  H    0.023747
    82  H    0.016986
    83  H    0.036878
    84  H    0.045610
    85  H    0.023576
    86  H    0.015193
    87  H    0.015999
    88  H    0.010470
    89  H    0.020740
    90  H    0.004792
    91  H   -0.001209
    92  H    0.022262
    93  H    0.017639
    94  H    0.027445
    95  H    0.035719
    96  H    0.018792
    97  H    0.042092
    98  H    0.043935
    99  H    0.053825
   100  H    0.030570
   101  H    0.044690
   102  H    0.026130
   103  H    0.051441
   104  H   -0.009197
   105  H    0.001088
   106  H    0.035148
   107  H    0.019569
   108  H   -0.016040
   109  H    0.010535
   110  H   -0.004397
   111  H    0.005464
   112  H   -0.004235
   113  H   -0.010102
   114  H   -0.002253
   115  H    0.010786
   116  H   -0.000380
   117  H    0.009919
   118  H    0.001120
   119  H    0.010728
   120  H    0.005515
   121  H   -0.009713
   122  H   -0.021560
   123  H   -0.007232
   124  H   -0.004375
   125  H    0.001372
   126  H    0.024720
   127  H    0.013816
   128  H   -0.026941
   129  H   -0.003229
   130  H   -0.000241
   131  H   -0.007655
   132  H    0.002081
   133  H   -0.005823
   134  H    0.007837
   135  H    0.004924
   136  H    0.026787
   137  H    0.005054
   138  H    0.003991
   139  H    0.002483
   140  H   -0.000448
 Sum of Mulliken charges =  -0.00000

 Dipole moment (field-independent basis, Debye):
    X=             -2.6507    Y=              3.9729    Z=             -0.2114  Tot=              4.7807
 Quadrupole moment (field-independent basis, Debye-Ang):
   XX=           -375.9285   YY=           -421.2171   ZZ=           -412.6883
   XY=             -2.6980   XZ=             22.4422   YZ=              5.4578

 Normal termination of Gaussian 16 at Thu May  5 06:08:17 2022.
