 Gaussian 16, Revision A.03,
 Gaussian 16:  ES64L-G16RevA.03 25-Dec-2016

 ---------------------------------
 #p PBE1PBE/Def2SVP td=(nstates=5)
 ---------------------------------

 -----------------------------------------------------
 step_701_chromophore_25 TDDFT with PBE1PBE functional
 -----------------------------------------------------
 Symbolic Z-matrix:
 Charge =  0 Multiplicity = 1

                         Standard orientation:
 ---------------------------------------------------------------------
 Center     Atomic      Atomic             Coordinates (Angstroms)
 Number     Number       Type             X           Y           Z
 ---------------------------------------------------------------------
      1         12           0        5.913796    0.400466    0.052170
      2          6           0        3.644635   -2.426411    0.028037
      3          6           0        3.053470    2.384815   -0.279625
      4          6           0        7.910365    2.994205   -0.401944
      5          6           0        8.536086   -1.799043    0.396351
      6          7           0        3.526829   -0.049716   -0.104453
      7          6           0        2.902626   -1.220649    0.008276
      8          6           0        1.368623   -0.936154   -0.096655
      9          6           0        1.249322    0.565529   -0.333143
     10          6           0        2.735982    1.026026   -0.168225
     11          6           0        0.497156    1.096550   -1.653228
     12          6           0        0.480560   -1.426205    1.117353
     13          6           0       -0.737680   -2.299682    0.813404
     14          6           0       -2.044005   -1.892918    1.493770
     15          8           0       -2.337238   -2.154218    2.651061
     16          8           0       -2.707642   -1.013780    0.628295
     17          7           0        5.575229    2.378547   -0.262303
     18          6           0        4.348991    2.981701   -0.275333
     19          6           0        4.580419    4.383156   -0.585196
     20          6           0        5.943472    4.626337   -0.637590
     21          6           0        6.540013    3.332906   -0.361482
     22          6           0        3.440221    5.288189   -0.801815
     23          6           0        6.581055    5.999765   -0.796348
     24          8           0        7.796348    6.147964   -0.817141
     25          6           0        5.785977    7.126998   -1.015222
     26          7           0        7.963051    0.621452    0.060738
     27          6           0        8.567836    1.788692   -0.124396
     28          6           0       10.179632    1.620919    0.134994
     29          6           0       10.297919    0.112116    0.581071
     30          6           0        8.863626   -0.391430    0.300924
     31          6           0       11.119480    1.865815   -1.060801
     32          6           0       10.739742   -0.029255    2.045479
     33          6           0       12.288878   -0.226497    2.220517
     34          7           0        6.052226   -1.597820    0.241953
     35          6           0        7.218180   -2.411794    0.321667
     36          6           0        6.894634   -3.807264    0.510937
     37          6           0        5.511046   -3.809795    0.356037
     38          6           0        4.973430   -2.506898    0.196342
     39          6           0        7.769189   -4.994070    0.634631
     40          6           0        4.378626   -4.736545    0.280491
     41          8           0        4.308872   -5.962981    0.334651
     42          6           0        3.107955   -3.789888    0.094504
     43          6           0        2.406934   -4.206486   -1.100074
     44          8           0        2.800507   -4.063116   -2.252780
     45          8           0        1.253810   -4.848466   -0.738481
     46          6           0        0.371105   -5.429614   -1.818594
     47          6           0       -3.952761   -0.522434    1.232602
     48          6           0       -4.873053   -0.418480    0.026915
     49          6           0       -5.968832    0.349289   -0.166330
     50          6           0       -6.623400    1.235073    0.884195
     51          6           0       -6.803853    0.341482   -1.413495
     52          6           0       -7.992442   -0.614885   -1.304063
     53          6           0       -9.353594    0.160034   -1.499908
     54          6           0       -9.935766   -0.035430   -2.902300
     55          6           0       -9.470035    1.201346   -3.778926
     56          6           0      -11.531975   -0.075209   -3.067223
     57          6           0      -12.218720   -1.123418   -2.122666
     58          6           0      -13.425983   -0.548039   -1.457594
     59          6           0      -13.351434   -0.512041    0.107984
     60          6           0      -13.935452   -1.763934    0.816521
     61          6           0      -13.822385    0.878199    0.641168
     62          6           0      -12.641361    1.807400    1.140037
     63          6           0      -11.951045    1.385705    2.439837
     64          6           0      -11.282243    2.578465    3.166269
     65          6           0       -9.883970    2.787932    2.520501
     66          6           0      -11.012627    2.359126    4.714803
     67          1           0        2.170927    3.020700   -0.373728
     68          1           0        8.614387    3.824611   -0.481892
     69          1           0        9.331630   -2.450254    0.765717
     70          1           0        1.011861   -1.447553   -0.990101
     71          1           0        0.760370    1.074546    0.497674
     72          1           0        1.151993    1.483051   -2.433620
     73          1           0       -0.238206    1.869362   -1.424842
     74          1           0       -0.018479    0.287729   -2.170887
     75          1           0        0.114061   -0.532133    1.621435
     76          1           0        1.195854   -1.908580    1.782683
     77          1           0       -0.408974   -3.264639    1.200750
     78          1           0       -0.946133   -2.560222   -0.224086
     79          1           0        3.214012    5.760891    0.154078
     80          1           0        2.516769    4.808038   -1.123619
     81          1           0        3.497303    6.044943   -1.584496
     82          1           0        6.436056    7.997771   -0.938321
     83          1           0        4.932554    7.245250   -0.346890
     84          1           0        5.563442    7.159567   -2.081590
     85          1           0       10.345756    2.285844    0.982268
     86          1           0       10.847017   -0.495039   -0.138875
     87          1           0       11.690570    1.007695   -1.416377
     88          1           0       11.886233    2.589422   -0.782532
     89          1           0       10.672578    2.315975   -1.947443
     90          1           0       10.222609   -0.837817    2.560837
     91          1           0       10.346192    0.865592    2.527275
     92          1           0       12.664939    0.628060    2.784754
     93          1           0       12.676850   -0.209858    1.202027
     94          1           0       12.458158   -1.164042    2.747989
     95          1           0        7.879770   -5.246343    1.689375
     96          1           0        8.738645   -4.925037    0.141819
     97          1           0        7.209124   -5.759424    0.097212
     98          1           0        2.517741   -4.044175    0.975388
     99          1           0        0.829472   -5.474280   -2.805933
    100          1           0       -0.574465   -4.915680   -1.991972
    101          1           0        0.090294   -6.434427   -1.502554
    102          1           0       -3.948430    0.496675    1.620326
    103          1           0       -4.413700   -1.200177    1.951427
    104          1           0       -4.551223   -1.025741   -0.819135
    105          1           0       -5.899530    1.649004    1.586977
    106          1           0       -7.312796    0.626466    1.469104
    107          1           0       -7.124886    2.094483    0.439005
    108          1           0       -6.104995   -0.050514   -2.152247
    109          1           0       -7.030094    1.355952   -1.739830
    110          1           0       -7.940617   -0.948929   -0.268035
    111          1           0       -7.974080   -1.523147   -1.905906
    112          1           0       -9.076979    1.197020   -1.306503
    113          1           0      -10.060052   -0.106175   -0.713021
    114          1           0       -9.483036   -0.928170   -3.334748
    115          1           0      -10.345013    1.767010   -4.099007
    116          1           0       -9.033245    0.693623   -4.638593
    117          1           0       -8.682905    1.850406   -3.394674
    118          1           0      -11.609254   -0.442426   -4.090450
    119          1           0      -11.931972    0.929245   -2.925666
    120          1           0      -11.408241   -1.463674   -1.477103
    121          1           0      -12.510378   -1.937021   -2.786445
    122          1           0      -14.223835   -1.234122   -1.741590
    123          1           0      -13.758316    0.389052   -1.904104
    124          1           0      -12.266441   -0.489304    0.207730
    125          1           0      -13.981464   -2.591640    0.109000
    126          1           0      -14.924499   -1.678637    1.265752
    127          1           0      -13.096546   -1.945691    1.489233
    128          1           0      -14.457444    0.572679    1.472482
    129          1           0      -14.522328    1.365458   -0.037105
    130          1           0      -12.829376    2.879492    1.086684
    131          1           0      -11.936274    1.555592    0.347992
    132          1           0      -11.246767    0.595250    2.180138
    133          1           0      -12.696045    0.970948    3.118552
    134          1           0      -11.907407    3.461588    3.034324
    135          1           0       -9.796614    2.069134    1.706674
    136          1           0       -8.994642    2.756502    3.151113
    137          1           0      -10.078397    3.747535    2.042223
    138          1           0      -11.432838    1.401018    5.017880
    139          1           0      -11.407658    3.047881    5.461748
    140          1           0       -9.954183    2.437944    4.961219
 ---------------------------------------------------------------------

 SCF Done:  E(RPBE1PBE) =  -3005.32113224     A.U. after   15 cycles

 Excitation energies and oscillator strengths:

 Excited State   1:      Singlet-A      1.9222 eV  645.00 nm  f=0.3551  <S**2>=0.000
     245 -> 248        0.20316
     246 -> 247        0.68365
 This state for optimization and/or second-order correction.
 Total Energy, E(TD-HF/TD-DFT) =  -3005.25049116
 Copying the excited state density for this state as the 1-particle RhoCI density.

 Excited State   2:      Singlet-A      2.2898 eV  541.46 nm  f=0.0782  <S**2>=0.000
     245 -> 247        0.63059
     246 -> 248       -0.31241

 Excited State   3:      Singlet-A      3.0977 eV  400.25 nm  f=0.0017  <S**2>=0.000
     242 -> 247        0.66987
     242 -> 249       -0.17668

 Excited State   4:      Singlet-A      3.1837 eV  389.43 nm  f=0.0181  <S**2>=0.000
     243 -> 247        0.67331
     246 -> 248        0.19173

 Excited State   5:      Singlet-A      3.2639 eV  379.86 nm  f=0.0047  <S**2>=0.000
     241 -> 247        0.66536
     241 -> 249        0.17773
     241 -> 250        0.11862

 The electronic state is 1-A.
 Alpha  occ. eigenvalues --  -46.91316 -19.26742 -19.25982 -19.21165 -19.19629
 Alpha  occ. eigenvalues --  -19.19410 -19.18614 -14.41459 -14.41101 -14.39620
 Alpha  occ. eigenvalues --  -14.39125 -10.37018 -10.35843 -10.32446 -10.31585
 Alpha  occ. eigenvalues --  -10.29651 -10.29305 -10.29087 -10.28900 -10.28800
 Alpha  occ. eigenvalues --  -10.28222 -10.28123 -10.28085 -10.27753 -10.26375
 Alpha  occ. eigenvalues --  -10.26363 -10.25930 -10.25685 -10.25588 -10.25577
 Alpha  occ. eigenvalues --  -10.25458 -10.25277 -10.25135 -10.25114 -10.25075
 Alpha  occ. eigenvalues --  -10.25074 -10.24597 -10.24383 -10.24348 -10.24138
 Alpha  occ. eigenvalues --  -10.24057 -10.24013 -10.23943 -10.23773 -10.23674
 Alpha  occ. eigenvalues --  -10.23434 -10.23386 -10.23310 -10.23266 -10.23168
 Alpha  occ. eigenvalues --  -10.23131 -10.23123 -10.23086 -10.22934 -10.22815
 Alpha  occ. eigenvalues --  -10.22811 -10.22788 -10.22514 -10.22504 -10.22498
 Alpha  occ. eigenvalues --  -10.22269 -10.21974 -10.21853 -10.21834 -10.21722
 Alpha  occ. eigenvalues --  -10.21630  -3.13629  -1.86466  -1.86017  -1.85860
 Alpha  occ. eigenvalues --   -1.11063  -1.10220  -1.04868  -1.04291  -1.03543
 Alpha  occ. eigenvalues --   -1.01748  -0.99188  -0.98597  -0.97892  -0.96141
 Alpha  occ. eigenvalues --   -0.87862  -0.84950  -0.83916  -0.83595  -0.83471
 Alpha  occ. eigenvalues --   -0.82886  -0.82640  -0.82140  -0.81427  -0.81209
 Alpha  occ. eigenvalues --   -0.80549  -0.79549  -0.78464  -0.77848  -0.77688
 Alpha  occ. eigenvalues --   -0.77168  -0.76667  -0.75841  -0.74999  -0.74896
 Alpha  occ. eigenvalues --   -0.73972  -0.73135  -0.72127  -0.71741  -0.70672
 Alpha  occ. eigenvalues --   -0.70126  -0.69679  -0.69378  -0.68987  -0.68096
 Alpha  occ. eigenvalues --   -0.67493  -0.67111  -0.66378  -0.64793  -0.63350
 Alpha  occ. eigenvalues --   -0.62969  -0.62351  -0.61783  -0.61409  -0.60507
 Alpha  occ. eigenvalues --   -0.60238  -0.59802  -0.59497  -0.59168  -0.58814
 Alpha  occ. eigenvalues --   -0.58174  -0.57326  -0.57057  -0.56402  -0.55499
 Alpha  occ. eigenvalues --   -0.54547  -0.53978  -0.53814  -0.53080  -0.52640
 Alpha  occ. eigenvalues --   -0.52097  -0.51845  -0.51154  -0.50490  -0.49944
 Alpha  occ. eigenvalues --   -0.49400  -0.49216  -0.48508  -0.48434  -0.48356
 Alpha  occ. eigenvalues --   -0.48322  -0.47911  -0.47750  -0.47718  -0.47314
 Alpha  occ. eigenvalues --   -0.47111  -0.46681  -0.46469  -0.46303  -0.46181
 Alpha  occ. eigenvalues --   -0.45823  -0.45760  -0.45631  -0.45617  -0.45325
 Alpha  occ. eigenvalues --   -0.45255  -0.44755  -0.44596  -0.44592  -0.44417
 Alpha  occ. eigenvalues --   -0.44338  -0.44126  -0.44002  -0.43807  -0.43417
 Alpha  occ. eigenvalues --   -0.43282  -0.43056  -0.42803  -0.42562  -0.42406
 Alpha  occ. eigenvalues --   -0.42295  -0.41961  -0.41834  -0.41714  -0.41451
 Alpha  occ. eigenvalues --   -0.41149  -0.40922  -0.40707  -0.40632  -0.40557
 Alpha  occ. eigenvalues --   -0.40519  -0.39666  -0.39631  -0.39560  -0.39546
 Alpha  occ. eigenvalues --   -0.39487  -0.39415  -0.39148  -0.38974  -0.38864
 Alpha  occ. eigenvalues --   -0.38784  -0.38679  -0.38541  -0.38342  -0.38040
 Alpha  occ. eigenvalues --   -0.37872  -0.37624  -0.37489  -0.37279  -0.37208
 Alpha  occ. eigenvalues --   -0.36976  -0.36805  -0.36598  -0.36494  -0.36178
 Alpha  occ. eigenvalues --   -0.36027  -0.35742  -0.35408  -0.35328  -0.34985
 Alpha  occ. eigenvalues --   -0.34083  -0.34038  -0.33745  -0.33546  -0.33429
 Alpha  occ. eigenvalues --   -0.33171  -0.33130  -0.32841  -0.32802  -0.32444
 Alpha  occ. eigenvalues --   -0.32226  -0.32016  -0.31438  -0.31436  -0.30752
 Alpha  occ. eigenvalues --   -0.30700  -0.30089  -0.29628  -0.29579  -0.29234
 Alpha  occ. eigenvalues --   -0.29218  -0.28950  -0.28566  -0.27097  -0.26321
 Alpha  occ. eigenvalues --   -0.25930  -0.25734  -0.25429  -0.25105  -0.21005
 Alpha  occ. eigenvalues --   -0.18796
 Alpha virt. eigenvalues --   -0.10808  -0.05670  -0.03826  -0.01838  -0.00493
 Alpha virt. eigenvalues --    0.00753   0.01092   0.01429   0.01921   0.02671
 Alpha virt. eigenvalues --    0.03661   0.04021   0.04792   0.05367   0.05809

 Mulliken charges:
               1
     1  Mg   0.998453
     2  C   -0.019597
     3  C   -0.072873
     4  C   -0.060436
     5  C   -0.058156
     6  N   -0.299935
     7  C    0.031437
     8  C   -0.107269
     9  C   -0.125674
    10  C    0.033643
    11  C   -0.003879
    12  C    0.031777
    13  C    0.013068
    14  C    0.208180
    15  O   -0.250311
    16  O   -0.379785
    17  N   -0.516701
    18  C    0.218285
    19  C   -0.192066
    20  C   -0.054241
    21  C    0.153181
    22  C    0.029533
    23  C    0.042584
    24  O   -0.243089
    25  C    0.000806
    26  N   -0.415475
    27  C    0.078223
    28  C   -0.098730
    29  C   -0.123589
    30  C    0.058714
    31  C    0.007059
    32  C   -0.031165
    33  C   -0.048090
    34  N   -0.547312
    35  C    0.141186
    36  C   -0.180191
    37  C   -0.059013
    38  C    0.216270
    39  C    0.062278
    40  C    0.146082
    41  O   -0.218061
    42  C   -0.141983
    43  C    0.294292
    44  O   -0.258772
    45  O   -0.378192
    46  C    0.113341
    47  C    0.261523
    48  C   -0.147879
    49  C   -0.257137
    50  C    0.009866
    51  C    0.021217
    52  C   -0.022827
    53  C   -0.038933
    54  C   -0.234735
    55  C   -0.018506
    56  C   -0.026412
    57  C   -0.040465
    58  C    0.011797
    59  C   -0.272184
    60  C    0.015974
    61  C    0.027628
    62  C   -0.072071
    63  C   -0.007870
    64  C   -0.254574
    65  C   -0.023123
    66  C   -0.017172
    67  H    0.005634
    68  H    0.024525
    69  H    0.011700
    70  H    0.058817
    71  H    0.046975
    72  H    0.047375
    73  H    0.044226
    74  H    0.043000
    75  H    0.047629
    76  H    0.049211
    77  H    0.056882
    78  H    0.051597
    79  H    0.063253
    80  H    0.038503
    81  H    0.050830
    82  H    0.045627
    83  H    0.063177
    84  H    0.073472
    85  H    0.058722
    86  H    0.051023
    87  H    0.041897
    88  H    0.038262
    89  H    0.047669
    90  H    0.037500
    91  H    0.031831
    92  H    0.049979
    93  H    0.045890
    94  H    0.054441
    95  H    0.064006
    96  H    0.045487
    97  H    0.069720
    98  H    0.080862
    99  H    0.073923
   100  H    0.051203
   101  H    0.065950
   102  H    0.053756
   103  H    0.078359
   104  H    0.021168
   105  H    0.028755
   106  H    0.062038
   107  H    0.045331
   108  H    0.018608
   109  H    0.042356
   110  H    0.030774
   111  H    0.035761
   112  H    0.029802
   113  H    0.027076
   114  H    0.034487
   115  H    0.037849
   116  H    0.028042
   117  H    0.037013
   118  H    0.035637
   119  H    0.041036
   120  H    0.038707
   121  H    0.024316
   122  H    0.012788
   123  H    0.023106
   124  H    0.041429
   125  H    0.029560
   126  H    0.050344
   127  H    0.041395
   128  H    0.007868
   129  H    0.028169
   130  H    0.030637
   131  H    0.032666
   132  H    0.033781
   133  H    0.027165
   134  H    0.044190
   135  H    0.035646
   136  H    0.051947
   137  H    0.033031
   138  H    0.030744
   139  H    0.029837
   140  H    0.026104
 Sum of Mulliken charges =  -0.00000

 Dipole moment (field-independent basis, Debye):
    X=             -2.5023    Y=              3.9493    Z=             -0.1891  Tot=              4.6792
 Quadrupole moment (field-independent basis, Debye-Ang):
   XX=           -369.0894   YY=           -418.6536   ZZ=           -410.1215
   XY=             -3.1153   XZ=             23.2314   YZ=              5.2589

 Normal termination of Gaussian 16 at Thu May  5 06:34:53 2022.
