 Gaussian 16, Revision A.03,
 Gaussian 16:  ES64L-G16RevA.03 25-Dec-2016

 --------------------------------
 #p wB97XD/Def2SVP td=(nstates=5)
 --------------------------------

 ----------------------------------------------------
 step_701_chromophore_25 TDDFT with wB97XD functional
 ----------------------------------------------------
 Symbolic Z-matrix:
 Charge =  0 Multiplicity = 1

                         Standard orientation:
 ---------------------------------------------------------------------
 Center     Atomic      Atomic             Coordinates (Angstroms)
 Number     Number       Type             X           Y           Z
 ---------------------------------------------------------------------
      1         12           0        5.913796    0.400466    0.052170
      2          6           0        3.644635   -2.426411    0.028037
      3          6           0        3.053470    2.384815   -0.279625
      4          6           0        7.910365    2.994205   -0.401944
      5          6           0        8.536086   -1.799043    0.396351
      6          7           0        3.526829   -0.049716   -0.104453
      7          6           0        2.902626   -1.220649    0.008276
      8          6           0        1.368623   -0.936154   -0.096655
      9          6           0        1.249322    0.565529   -0.333143
     10          6           0        2.735982    1.026026   -0.168225
     11          6           0        0.497156    1.096550   -1.653228
     12          6           0        0.480560   -1.426205    1.117353
     13          6           0       -0.737680   -2.299682    0.813404
     14          6           0       -2.044005   -1.892918    1.493770
     15          8           0       -2.337238   -2.154218    2.651061
     16          8           0       -2.707642   -1.013780    0.628295
     17          7           0        5.575229    2.378547   -0.262303
     18          6           0        4.348991    2.981701   -0.275333
     19          6           0        4.580419    4.383156   -0.585196
     20          6           0        5.943472    4.626337   -0.637590
     21          6           0        6.540013    3.332906   -0.361482
     22          6           0        3.440221    5.288189   -0.801815
     23          6           0        6.581055    5.999765   -0.796348
     24          8           0        7.796348    6.147964   -0.817141
     25          6           0        5.785977    7.126998   -1.015222
     26          7           0        7.963051    0.621452    0.060738
     27          6           0        8.567836    1.788692   -0.124396
     28          6           0       10.179632    1.620919    0.134994
     29          6           0       10.297919    0.112116    0.581071
     30          6           0        8.863626   -0.391430    0.300924
     31          6           0       11.119480    1.865815   -1.060801
     32          6           0       10.739742   -0.029255    2.045479
     33          6           0       12.288878   -0.226497    2.220517
     34          7           0        6.052226   -1.597820    0.241953
     35          6           0        7.218180   -2.411794    0.321667
     36          6           0        6.894634   -3.807264    0.510937
     37          6           0        5.511046   -3.809795    0.356037
     38          6           0        4.973430   -2.506898    0.196342
     39          6           0        7.769189   -4.994070    0.634631
     40          6           0        4.378626   -4.736545    0.280491
     41          8           0        4.308872   -5.962981    0.334651
     42          6           0        3.107955   -3.789888    0.094504
     43          6           0        2.406934   -4.206486   -1.100074
     44          8           0        2.800507   -4.063116   -2.252780
     45          8           0        1.253810   -4.848466   -0.738481
     46          6           0        0.371105   -5.429614   -1.818594
     47          6           0       -3.952761   -0.522434    1.232602
     48          6           0       -4.873053   -0.418480    0.026915
     49          6           0       -5.968832    0.349289   -0.166330
     50          6           0       -6.623400    1.235073    0.884195
     51          6           0       -6.803853    0.341482   -1.413495
     52          6           0       -7.992442   -0.614885   -1.304063
     53          6           0       -9.353594    0.160034   -1.499908
     54          6           0       -9.935766   -0.035430   -2.902300
     55          6           0       -9.470035    1.201346   -3.778926
     56          6           0      -11.531975   -0.075209   -3.067223
     57          6           0      -12.218720   -1.123418   -2.122666
     58          6           0      -13.425983   -0.548039   -1.457594
     59          6           0      -13.351434   -0.512041    0.107984
     60          6           0      -13.935452   -1.763934    0.816521
     61          6           0      -13.822385    0.878199    0.641168
     62          6           0      -12.641361    1.807400    1.140037
     63          6           0      -11.951045    1.385705    2.439837
     64          6           0      -11.282243    2.578465    3.166269
     65          6           0       -9.883970    2.787932    2.520501
     66          6           0      -11.012627    2.359126    4.714803
     67          1           0        2.170927    3.020700   -0.373728
     68          1           0        8.614387    3.824611   -0.481892
     69          1           0        9.331630   -2.450254    0.765717
     70          1           0        1.011861   -1.447553   -0.990101
     71          1           0        0.760370    1.074546    0.497674
     72          1           0        1.151993    1.483051   -2.433620
     73          1           0       -0.238206    1.869362   -1.424842
     74          1           0       -0.018479    0.287729   -2.170887
     75          1           0        0.114061   -0.532133    1.621435
     76          1           0        1.195854   -1.908580    1.782683
     77          1           0       -0.408974   -3.264639    1.200750
     78          1           0       -0.946133   -2.560222   -0.224086
     79          1           0        3.214012    5.760891    0.154078
     80          1           0        2.516769    4.808038   -1.123619
     81          1           0        3.497303    6.044943   -1.584496
     82          1           0        6.436056    7.997771   -0.938321
     83          1           0        4.932554    7.245250   -0.346890
     84          1           0        5.563442    7.159567   -2.081590
     85          1           0       10.345756    2.285844    0.982268
     86          1           0       10.847017   -0.495039   -0.138875
     87          1           0       11.690570    1.007695   -1.416377
     88          1           0       11.886233    2.589422   -0.782532
     89          1           0       10.672578    2.315975   -1.947443
     90          1           0       10.222609   -0.837817    2.560837
     91          1           0       10.346192    0.865592    2.527275
     92          1           0       12.664939    0.628060    2.784754
     93          1           0       12.676850   -0.209858    1.202027
     94          1           0       12.458158   -1.164042    2.747989
     95          1           0        7.879770   -5.246343    1.689375
     96          1           0        8.738645   -4.925037    0.141819
     97          1           0        7.209124   -5.759424    0.097212
     98          1           0        2.517741   -4.044175    0.975388
     99          1           0        0.829472   -5.474280   -2.805933
    100          1           0       -0.574465   -4.915680   -1.991972
    101          1           0        0.090294   -6.434427   -1.502554
    102          1           0       -3.948430    0.496675    1.620326
    103          1           0       -4.413700   -1.200177    1.951427
    104          1           0       -4.551223   -1.025741   -0.819135
    105          1           0       -5.899530    1.649004    1.586977
    106          1           0       -7.312796    0.626466    1.469104
    107          1           0       -7.124886    2.094483    0.439005
    108          1           0       -6.104995   -0.050514   -2.152247
    109          1           0       -7.030094    1.355952   -1.739830
    110          1           0       -7.940617   -0.948929   -0.268035
    111          1           0       -7.974080   -1.523147   -1.905906
    112          1           0       -9.076979    1.197020   -1.306503
    113          1           0      -10.060052   -0.106175   -0.713021
    114          1           0       -9.483036   -0.928170   -3.334748
    115          1           0      -10.345013    1.767010   -4.099007
    116          1           0       -9.033245    0.693623   -4.638593
    117          1           0       -8.682905    1.850406   -3.394674
    118          1           0      -11.609254   -0.442426   -4.090450
    119          1           0      -11.931972    0.929245   -2.925666
    120          1           0      -11.408241   -1.463674   -1.477103
    121          1           0      -12.510378   -1.937021   -2.786445
    122          1           0      -14.223835   -1.234122   -1.741590
    123          1           0      -13.758316    0.389052   -1.904104
    124          1           0      -12.266441   -0.489304    0.207730
    125          1           0      -13.981464   -2.591640    0.109000
    126          1           0      -14.924499   -1.678637    1.265752
    127          1           0      -13.096546   -1.945691    1.489233
    128          1           0      -14.457444    0.572679    1.472482
    129          1           0      -14.522328    1.365458   -0.037105
    130          1           0      -12.829376    2.879492    1.086684
    131          1           0      -11.936274    1.555592    0.347992
    132          1           0      -11.246767    0.595250    2.180138
    133          1           0      -12.696045    0.970948    3.118552
    134          1           0      -11.907407    3.461588    3.034324
    135          1           0       -9.796614    2.069134    1.706674
    136          1           0       -8.994642    2.756502    3.151113
    137          1           0      -10.078397    3.747535    2.042223
    138          1           0      -11.432838    1.401018    5.017880
    139          1           0      -11.407658    3.047881    5.461748
    140          1           0       -9.954183    2.437944    4.961219
 ---------------------------------------------------------------------

 SCF Done:  E(RwB97XD) =  -3007.82992396     A.U. after   17 cycles

 Excitation energies and oscillator strengths:

 Excited State   1:      Singlet-A      1.7032 eV  727.95 nm  f=0.3614  <S**2>=0.000
     245 -> 248        0.21466
     246 -> 247        0.67581
     245 <- 248        0.12299
 This state for optimization and/or second-order correction.
 Total Energy, E(TD-HF/TD-DFT) =  -3007.76733262
 Copying the excited state density for this state as the 1-particle RhoCI density.

 Excited State   2:      Singlet-A      2.2298 eV  556.02 nm  f=0.0711  <S**2>=0.000
     245 -> 247        0.61351
     246 -> 248       -0.34270

 Excited State   3:      Singlet-A      3.4661 eV  357.70 nm  f=0.5382  <S**2>=0.000
     243 -> 247        0.38468
     245 -> 247        0.26178
     246 -> 248        0.51928

 Excited State   4:      Singlet-A      3.5756 eV  346.75 nm  f=0.1589  <S**2>=0.000
     241 -> 247       -0.25580
     242 -> 247       -0.30720
     242 -> 249        0.22786
     242 -> 250       -0.13157
     243 -> 247        0.42963
     245 -> 247       -0.13340
     246 -> 248       -0.20470

 Excited State   5:      Singlet-A      3.5833 eV  346.01 nm  f=0.1783  <S**2>=0.000
     241 -> 249       -0.14427
     242 -> 247        0.43088
     242 -> 249       -0.19185
     242 -> 250        0.12970
     243 -> 247        0.36379
     245 -> 247       -0.14529
     246 -> 248       -0.23407

 The electronic state is 1-A.
 Alpha  occ. eigenvalues --  -46.94230 -19.31282 -19.30604 -19.25835 -19.24475
 Alpha  occ. eigenvalues --  -19.24196 -19.23428 -14.46442 -14.46263 -14.44583
 Alpha  occ. eigenvalues --  -14.44048 -10.43799 -10.42757 -10.39337 -10.38436
 Alpha  occ. eigenvalues --  -10.36131 -10.35871 -10.35318 -10.35142 -10.35136
 Alpha  occ. eigenvalues --  -10.34533 -10.34526 -10.34395 -10.34131 -10.32647
 Alpha  occ. eigenvalues --  -10.32570 -10.32182 -10.32133 -10.31957 -10.31925
 Alpha  occ. eigenvalues --  -10.31701 -10.31620 -10.31582 -10.31577 -10.31485
 Alpha  occ. eigenvalues --  -10.31355 -10.31027 -10.30761 -10.30724 -10.30682
 Alpha  occ. eigenvalues --  -10.30331 -10.30317 -10.30291 -10.30042 -10.29970
 Alpha  occ. eigenvalues --  -10.29854 -10.29730 -10.29668 -10.29657 -10.29532
 Alpha  occ. eigenvalues --  -10.29505 -10.29492 -10.29397 -10.29396 -10.29314
 Alpha  occ. eigenvalues --  -10.29185 -10.29143 -10.28874 -10.28870 -10.28866
 Alpha  occ. eigenvalues --  -10.28702 -10.28341 -10.28269 -10.28250 -10.28144
 Alpha  occ. eigenvalues --  -10.27991  -3.20391  -1.93980  -1.93531  -1.93367
 Alpha  occ. eigenvalues --   -1.18441  -1.17696  -1.12357  -1.11812  -1.10881
 Alpha  occ. eigenvalues --   -1.09189  -1.06583  -1.05976  -1.05254  -1.03521
 Alpha  occ. eigenvalues --   -0.95485  -0.92631  -0.91591  -0.91206  -0.91111
 Alpha  occ. eigenvalues --   -0.90529  -0.90312  -0.89792  -0.89092  -0.88800
 Alpha  occ. eigenvalues --   -0.88121  -0.87191  -0.86133  -0.85539  -0.85375
 Alpha  occ. eigenvalues --   -0.84798  -0.84316  -0.83463  -0.82624  -0.82530
 Alpha  occ. eigenvalues --   -0.81637  -0.80802  -0.79777  -0.79370  -0.78277
 Alpha  occ. eigenvalues --   -0.77831  -0.77259  -0.77076  -0.76682  -0.75768
 Alpha  occ. eigenvalues --   -0.75051  -0.74685  -0.73895  -0.72408  -0.70901
 Alpha  occ. eigenvalues --   -0.70509  -0.69994  -0.69347  -0.69054  -0.67994
 Alpha  occ. eigenvalues --   -0.67716  -0.67451  -0.66966  -0.66615  -0.66289
 Alpha  occ. eigenvalues --   -0.65859  -0.64998  -0.64712  -0.63830  -0.62958
 Alpha  occ. eigenvalues --   -0.61945  -0.61495  -0.61275  -0.60649  -0.60007
 Alpha  occ. eigenvalues --   -0.59616  -0.59230  -0.58562  -0.57894  -0.57335
 Alpha  occ. eigenvalues --   -0.56831  -0.56619  -0.55973  -0.55942  -0.55846
 Alpha  occ. eigenvalues --   -0.55746  -0.55196  -0.55181  -0.55076  -0.54732
 Alpha  occ. eigenvalues --   -0.54462  -0.53989  -0.53839  -0.53641  -0.53544
 Alpha  occ. eigenvalues --   -0.53211  -0.53136  -0.53057  -0.53007  -0.52629
 Alpha  occ. eigenvalues --   -0.52551  -0.52119  -0.51949  -0.51907  -0.51773
 Alpha  occ. eigenvalues --   -0.51658  -0.51468  -0.51308  -0.51115  -0.50733
 Alpha  occ. eigenvalues --   -0.50634  -0.50343  -0.50102  -0.49847  -0.49660
 Alpha  occ. eigenvalues --   -0.49567  -0.49186  -0.49092  -0.48949  -0.48676
 Alpha  occ. eigenvalues --   -0.48353  -0.48158  -0.47910  -0.47874  -0.47733
 Alpha  occ. eigenvalues --   -0.47694  -0.46911  -0.46841  -0.46747  -0.46741
 Alpha  occ. eigenvalues --   -0.46616  -0.46525  -0.46322  -0.46089  -0.46025
 Alpha  occ. eigenvalues --   -0.45961  -0.45850  -0.45723  -0.45426  -0.45201
 Alpha  occ. eigenvalues --   -0.45018  -0.44738  -0.44628  -0.44362  -0.44346
 Alpha  occ. eigenvalues --   -0.44162  -0.43885  -0.43691  -0.43626  -0.43366
 Alpha  occ. eigenvalues --   -0.43048  -0.42742  -0.42446  -0.42384  -0.42111
 Alpha  occ. eigenvalues --   -0.41115  -0.40987  -0.40766  -0.40595  -0.40477
 Alpha  occ. eigenvalues --   -0.40247  -0.40057  -0.39855  -0.39755  -0.39456
 Alpha  occ. eigenvalues --   -0.39245  -0.39081  -0.38575  -0.38448  -0.37644
 Alpha  occ. eigenvalues --   -0.37560  -0.37095  -0.36652  -0.36547  -0.36202
 Alpha  occ. eigenvalues --   -0.36122  -0.35821  -0.35438  -0.33659  -0.33172
 Alpha  occ. eigenvalues --   -0.32949  -0.32777  -0.31952  -0.31849  -0.25969
 Alpha  occ. eigenvalues --   -0.22938
 Alpha virt. eigenvalues --   -0.06614  -0.00369   0.02492   0.04699   0.06395
 Alpha virt. eigenvalues --    0.06775   0.07511   0.08109   0.08607   0.08947
 Alpha virt. eigenvalues --    0.10332   0.10503   0.11679   0.12105   0.12507

 Mulliken charges:
               1
     1  Mg   0.987153
     2  C   -0.015877
     3  C   -0.085402
     4  C   -0.077853
     5  C   -0.078491
     6  N   -0.259635
     7  C   -0.011984
     8  C   -0.079456
     9  C   -0.101242
    10  C    0.015833
    11  C    0.007539
    12  C    0.043484
    13  C    0.028131
    14  C    0.202434
    15  O   -0.248900
    16  O   -0.380697
    17  N   -0.484973
    18  C    0.203623
    19  C   -0.176953
    20  C   -0.050408
    21  C    0.148470
    22  C    0.040529
    23  C    0.039557
    24  O   -0.237032
    25  C    0.009416
    26  N   -0.384551
    27  C    0.061348
    28  C   -0.073400
    29  C   -0.093093
    30  C    0.046986
    31  C    0.016051
    32  C   -0.019802
    33  C   -0.030343
    34  N   -0.516557
    35  C    0.137100
    36  C   -0.177527
    37  C   -0.051368
    38  C    0.204368
    39  C    0.072808
    40  C    0.125278
    41  O   -0.207396
    42  C   -0.100341
    43  C    0.265327
    44  O   -0.252252
    45  O   -0.375706
    46  C    0.129812
    47  C    0.276580
    48  C   -0.160502
    49  C   -0.234199
    50  C    0.020853
    51  C    0.041673
    52  C   -0.008551
    53  C   -0.009041
    54  C   -0.207232
    55  C   -0.005891
    56  C   -0.011093
    57  C   -0.019999
    58  C    0.022147
    59  C   -0.227419
    60  C    0.028345
    61  C    0.035750
    62  C   -0.039248
    63  C    0.009258
    64  C   -0.226897
    65  C   -0.005223
    66  C   -0.005057
    67  H   -0.001370
    68  H    0.019477
    69  H    0.006196
    70  H    0.043393
    71  H    0.034827
    72  H    0.040985
    73  H    0.039313
    74  H    0.037382
    75  H    0.039022
    76  H    0.041465
    77  H    0.050258
    78  H    0.045445
    79  H    0.058259
    80  H    0.034382
    81  H    0.045787
    82  H    0.044327
    83  H    0.058022
    84  H    0.069238
    85  H    0.049022
    86  H    0.038723
    87  H    0.036032
    88  H    0.032633
    89  H    0.042683
    90  H    0.029288
    91  H    0.022724
    92  H    0.044311
    93  H    0.037663
    94  H    0.049478
    95  H    0.059622
    96  H    0.041052
    97  H    0.064688
    98  H    0.074071
    99  H    0.070617
   100  H    0.047058
   101  H    0.062381
   102  H    0.046859
   103  H    0.073956
   104  H    0.017150
   105  H    0.022971
   106  H    0.055323
   107  H    0.039715
   108  H    0.010467
   109  H    0.031161
   110  H    0.019323
   111  H    0.029534
   112  H    0.014138
   113  H    0.009702
   114  H    0.022223
   115  H    0.031820
   116  H    0.021965
   117  H    0.030078
   118  H    0.026978
   119  H    0.030059
   120  H    0.026540
   121  H    0.018049
   122  H    0.004192
   123  H    0.013881
   124  H    0.011384
   125  H    0.023189
   126  H    0.045890
   127  H    0.035476
   128  H   -0.003345
   129  H    0.021936
   130  H    0.023952
   131  H    0.011343
   132  H    0.023406
   133  H    0.016818
   134  H    0.033978
   135  H    0.021625
   136  H    0.046477
   137  H    0.026923
   138  H    0.024486
   139  H    0.024516
   140  H    0.019142
 Sum of Mulliken charges =  -0.00000

 Dipole moment (field-independent basis, Debye):
    X=             -2.7120    Y=              4.0589    Z=             -0.2348  Tot=              4.8872
 Quadrupole moment (field-independent basis, Debye-Ang):
   XX=           -370.7598   YY=           -416.7720   ZZ=           -409.8264
   XY=             -2.5219   XZ=             23.0408   YZ=              5.3067

 Normal termination of Gaussian 16 at Thu May  5 07:04:54 2022.
