 Gaussian 16, Revision A.03,
 Gaussian 16:  ES64L-G16RevA.03 25-Dec-2016

 --------------------
 #p ZINDO=(nstates=5)
 --------------------

 -----------------------------
 step_701_chromophore_25 ZINDO
 -----------------------------
 Symbolic Z-matrix:
 Charge =  0 Multiplicity = 1

                         Standard orientation:
 ---------------------------------------------------------------------
 Center     Atomic      Atomic             Coordinates (Angstroms)
 Number     Number       Type             X           Y           Z
 ---------------------------------------------------------------------
      1         12           0        5.913796    0.400466    0.052170
      2          6           0        3.644635   -2.426411    0.028037
      3          6           0        3.053470    2.384815   -0.279625
      4          6           0        7.910365    2.994205   -0.401944
      5          6           0        8.536086   -1.799043    0.396351
      6          7           0        3.526829   -0.049716   -0.104453
      7          6           0        2.902626   -1.220649    0.008276
      8          6           0        1.368623   -0.936154   -0.096655
      9          6           0        1.249322    0.565529   -0.333143
     10          6           0        2.735982    1.026026   -0.168225
     11          6           0        0.497156    1.096550   -1.653228
     12          6           0        0.480560   -1.426205    1.117353
     13          6           0       -0.737680   -2.299682    0.813404
     14          6           0       -2.044005   -1.892918    1.493770
     15          8           0       -2.337238   -2.154218    2.651061
     16          8           0       -2.707642   -1.013780    0.628295
     17          7           0        5.575229    2.378547   -0.262303
     18          6           0        4.348991    2.981701   -0.275333
     19          6           0        4.580419    4.383156   -0.585196
     20          6           0        5.943472    4.626337   -0.637590
     21          6           0        6.540013    3.332906   -0.361482
     22          6           0        3.440221    5.288189   -0.801815
     23          6           0        6.581055    5.999765   -0.796348
     24          8           0        7.796348    6.147964   -0.817141
     25          6           0        5.785977    7.126998   -1.015222
     26          7           0        7.963051    0.621452    0.060738
     27          6           0        8.567836    1.788692   -0.124396
     28          6           0       10.179632    1.620919    0.134994
     29          6           0       10.297919    0.112116    0.581071
     30          6           0        8.863626   -0.391430    0.300924
     31          6           0       11.119480    1.865815   -1.060801
     32          6           0       10.739742   -0.029255    2.045479
     33          6           0       12.288878   -0.226497    2.220517
     34          7           0        6.052226   -1.597820    0.241953
     35          6           0        7.218180   -2.411794    0.321667
     36          6           0        6.894634   -3.807264    0.510937
     37          6           0        5.511046   -3.809795    0.356037
     38          6           0        4.973430   -2.506898    0.196342
     39          6           0        7.769189   -4.994070    0.634631
     40          6           0        4.378626   -4.736545    0.280491
     41          8           0        4.308872   -5.962981    0.334651
     42          6           0        3.107955   -3.789888    0.094504
     43          6           0        2.406934   -4.206486   -1.100074
     44          8           0        2.800507   -4.063116   -2.252780
     45          8           0        1.253810   -4.848466   -0.738481
     46          6           0        0.371105   -5.429614   -1.818594
     47          6           0       -3.952761   -0.522434    1.232602
     48          6           0       -4.873053   -0.418480    0.026915
     49          6           0       -5.968832    0.349289   -0.166330
     50          6           0       -6.623400    1.235073    0.884195
     51          6           0       -6.803853    0.341482   -1.413495
     52          6           0       -7.992442   -0.614885   -1.304063
     53          6           0       -9.353594    0.160034   -1.499908
     54          6           0       -9.935766   -0.035430   -2.902300
     55          6           0       -9.470035    1.201346   -3.778926
     56          6           0      -11.531975   -0.075209   -3.067223
     57          6           0      -12.218720   -1.123418   -2.122666
     58          6           0      -13.425983   -0.548039   -1.457594
     59          6           0      -13.351434   -0.512041    0.107984
     60          6           0      -13.935452   -1.763934    0.816521
     61          6           0      -13.822385    0.878199    0.641168
     62          6           0      -12.641361    1.807400    1.140037
     63          6           0      -11.951045    1.385705    2.439837
     64          6           0      -11.282243    2.578465    3.166269
     65          6           0       -9.883970    2.787932    2.520501
     66          6           0      -11.012627    2.359126    4.714803
     67          1           0        2.170927    3.020700   -0.373728
     68          1           0        8.614387    3.824611   -0.481892
     69          1           0        9.331630   -2.450254    0.765717
     70          1           0        1.011861   -1.447553   -0.990101
     71          1           0        0.760370    1.074546    0.497674
     72          1           0        1.151993    1.483051   -2.433620
     73          1           0       -0.238206    1.869362   -1.424842
     74          1           0       -0.018479    0.287729   -2.170887
     75          1           0        0.114061   -0.532133    1.621435
     76          1           0        1.195854   -1.908580    1.782683
     77          1           0       -0.408974   -3.264639    1.200750
     78          1           0       -0.946133   -2.560222   -0.224086
     79          1           0        3.214012    5.760891    0.154078
     80          1           0        2.516769    4.808038   -1.123619
     81          1           0        3.497303    6.044943   -1.584496
     82          1           0        6.436056    7.997771   -0.938321
     83          1           0        4.932554    7.245250   -0.346890
     84          1           0        5.563442    7.159567   -2.081590
     85          1           0       10.345756    2.285844    0.982268
     86          1           0       10.847017   -0.495039   -0.138875
     87          1           0       11.690570    1.007695   -1.416377
     88          1           0       11.886233    2.589422   -0.782532
     89          1           0       10.672578    2.315975   -1.947443
     90          1           0       10.222609   -0.837817    2.560837
     91          1           0       10.346192    0.865592    2.527275
     92          1           0       12.664939    0.628060    2.784754
     93          1           0       12.676850   -0.209858    1.202027
     94          1           0       12.458158   -1.164042    2.747989
     95          1           0        7.879770   -5.246343    1.689375
     96          1           0        8.738645   -4.925037    0.141819
     97          1           0        7.209124   -5.759424    0.097212
     98          1           0        2.517741   -4.044175    0.975388
     99          1           0        0.829472   -5.474280   -2.805933
    100          1           0       -0.574465   -4.915680   -1.991972
    101          1           0        0.090294   -6.434427   -1.502554
    102          1           0       -3.948430    0.496675    1.620326
    103          1           0       -4.413700   -1.200177    1.951427
    104          1           0       -4.551223   -1.025741   -0.819135
    105          1           0       -5.899530    1.649004    1.586977
    106          1           0       -7.312796    0.626466    1.469104
    107          1           0       -7.124886    2.094483    0.439005
    108          1           0       -6.104995   -0.050514   -2.152247
    109          1           0       -7.030094    1.355952   -1.739830
    110          1           0       -7.940617   -0.948929   -0.268035
    111          1           0       -7.974080   -1.523147   -1.905906
    112          1           0       -9.076979    1.197020   -1.306503
    113          1           0      -10.060052   -0.106175   -0.713021
    114          1           0       -9.483036   -0.928170   -3.334748
    115          1           0      -10.345013    1.767010   -4.099007
    116          1           0       -9.033245    0.693623   -4.638593
    117          1           0       -8.682905    1.850406   -3.394674
    118          1           0      -11.609254   -0.442426   -4.090450
    119          1           0      -11.931972    0.929245   -2.925666
    120          1           0      -11.408241   -1.463674   -1.477103
    121          1           0      -12.510378   -1.937021   -2.786445
    122          1           0      -14.223835   -1.234122   -1.741590
    123          1           0      -13.758316    0.389052   -1.904104
    124          1           0      -12.266441   -0.489304    0.207730
    125          1           0      -13.981464   -2.591640    0.109000
    126          1           0      -14.924499   -1.678637    1.265752
    127          1           0      -13.096546   -1.945691    1.489233
    128          1           0      -14.457444    0.572679    1.472482
    129          1           0      -14.522328    1.365458   -0.037105
    130          1           0      -12.829376    2.879492    1.086684
    131          1           0      -11.936274    1.555592    0.347992
    132          1           0      -11.246767    0.595250    2.180138
    133          1           0      -12.696045    0.970948    3.118552
    134          1           0      -11.907407    3.461588    3.034324
    135          1           0       -9.796614    2.069134    1.706674
    136          1           0       -8.994642    2.756502    3.151113
    137          1           0      -10.078397    3.747535    2.042223
    138          1           0      -11.432838    1.401018    5.017880
    139          1           0      -11.407658    3.047881    5.461748
    140          1           0       -9.954183    2.437944    4.961219
 ---------------------------------------------------------------------

 SCF Done:  E(RZINDO/S) =  -474.232251078     A.U. after   20 cycles

 Excitation energies and oscillator strengths:

 Excited State   1:      Singlet-A      1.2880 eV  962.64 nm  f=0.5591  <S**2>=0.000
     175 ->178         0.21670
     176 ->177         0.65567
 This state for optimization and/or second-order correction.
 Total Energy, E(CIS/TDA) =  -474.184919327
 Copying the excited state density for this state as the 1-particle RhoCI density.

 Excited State   2:      Singlet-A      1.9274 eV  643.29 nm  f=0.0111  <S**2>=0.000
     175 ->177         0.50716
     176 ->178        -0.47250

 Excited State   3:      Singlet-A      2.9712 eV  417.29 nm  f=0.0622  <S**2>=0.000
     168 ->177         0.20788
     168 ->179        -0.22264
     168 ->181         0.14679
     168 ->185        -0.13340
     169 ->177        -0.20991
     169 ->179         0.20334
     169 ->181        -0.14762
     169 ->185         0.12089
     170 ->177         0.21019
     170 ->179        -0.20487
     170 ->181         0.13653
     170 ->185        -0.12154
     176 ->178         0.10424

 Excited State   4:      Singlet-A      2.9946 eV  414.03 nm  f=0.8508  <S**2>=0.000
     175 ->177         0.35396
     176 ->178         0.41757
     176 ->179         0.36918

 Excited State   5:      Singlet-A      3.0092 eV  412.02 nm  f=0.0030  <S**2>=0.000
     168 ->177         0.16742
     168 ->179         0.23146
     168 ->181         0.26307
     168 ->182         0.10269
     168 ->185         0.13887
     169 ->177         0.18902
     169 ->179         0.27117
     169 ->181         0.29667
     169 ->182         0.11611
     169 ->185         0.16162

 The electronic state is 1-A.
 Alpha  occ. eigenvalues --   -1.82955  -1.82167  -1.78914  -1.72811  -1.71950
 Alpha  occ. eigenvalues --   -1.69991  -1.66072  -1.62086  -1.61176  -1.57405
 Alpha  occ. eigenvalues --   -1.56206  -1.51275  -1.49086  -1.48565  -1.47866
 Alpha  occ. eigenvalues --   -1.44655  -1.43705  -1.41702  -1.38439  -1.37403
 Alpha  occ. eigenvalues --   -1.34987  -1.33843  -1.32347  -1.31137  -1.28949
 Alpha  occ. eigenvalues --   -1.27099  -1.24140  -1.22547  -1.20693  -1.18779
 Alpha  occ. eigenvalues --   -1.18210  -1.16478  -1.15383  -1.15031  -1.13201
 Alpha  occ. eigenvalues --   -1.13042  -1.11211  -1.10007  -1.05562  -1.03856
 Alpha  occ. eigenvalues --   -1.01547  -1.01450  -0.98657  -0.97913  -0.96401
 Alpha  occ. eigenvalues --   -0.95598  -0.94821  -0.94125  -0.93343  -0.92948
 Alpha  occ. eigenvalues --   -0.91355  -0.90552  -0.89857  -0.88560  -0.88184
 Alpha  occ. eigenvalues --   -0.87138  -0.85888  -0.84134  -0.82317  -0.80991
 Alpha  occ. eigenvalues --   -0.80002  -0.79184  -0.76766  -0.76599  -0.75898
 Alpha  occ. eigenvalues --   -0.75451  -0.75200  -0.74751  -0.73956  -0.73123
 Alpha  occ. eigenvalues --   -0.73009  -0.72667  -0.71478  -0.71208  -0.70732
 Alpha  occ. eigenvalues --   -0.70169  -0.69746  -0.69054  -0.68017  -0.67679
 Alpha  occ. eigenvalues --   -0.67336  -0.66836  -0.66714  -0.66454  -0.65960
 Alpha  occ. eigenvalues --   -0.65161  -0.64436  -0.64301  -0.63910  -0.63802
 Alpha  occ. eigenvalues --   -0.63346  -0.63065  -0.62889  -0.62673  -0.62113
 Alpha  occ. eigenvalues --   -0.61952  -0.61637  -0.60859  -0.60652  -0.59702
 Alpha  occ. eigenvalues --   -0.59162  -0.58503  -0.58395  -0.58146  -0.57879
 Alpha  occ. eigenvalues --   -0.57491  -0.57462  -0.56951  -0.56745  -0.56538
 Alpha  occ. eigenvalues --   -0.55841  -0.55511  -0.55401  -0.55175  -0.55043
 Alpha  occ. eigenvalues --   -0.54603  -0.54171  -0.53541  -0.53435  -0.52932
 Alpha  occ. eigenvalues --   -0.52778  -0.52489  -0.52389  -0.52054  -0.51403
 Alpha  occ. eigenvalues --   -0.51267  -0.50963  -0.50736  -0.50542  -0.50428
 Alpha  occ. eigenvalues --   -0.50277  -0.50145  -0.49550  -0.49461  -0.48908
 Alpha  occ. eigenvalues --   -0.48771  -0.48260  -0.48098  -0.47841  -0.47604
 Alpha  occ. eigenvalues --   -0.47583  -0.47339  -0.47094  -0.46674  -0.46548
 Alpha  occ. eigenvalues --   -0.46297  -0.45746  -0.45571  -0.45489  -0.45310
 Alpha  occ. eigenvalues --   -0.44711  -0.44638  -0.44298  -0.44227  -0.43450
 Alpha  occ. eigenvalues --   -0.43316  -0.42908  -0.42776  -0.42532  -0.42176
 Alpha  occ. eigenvalues --   -0.41978  -0.41779  -0.41671  -0.39536  -0.38977
 Alpha  occ. eigenvalues --   -0.38290  -0.36869  -0.35163  -0.34984  -0.34872
 Alpha  occ. eigenvalues --   -0.33695  -0.32897  -0.32527  -0.31976  -0.26606
 Alpha  occ. eigenvalues --   -0.21786
 Alpha virt. eigenvalues --   -0.08142  -0.02675  -0.00359   0.00974   0.01466
 Alpha virt. eigenvalues --    0.02687   0.02987   0.03402   0.04858   0.04944
 Alpha virt. eigenvalues --    0.06300   0.06603   0.07402   0.07539   0.08102

 Mulliken charges:
               1
     1  Mg   0.425464
     2  C   -0.006715
     3  C   -0.066938
     4  C   -0.073527
     5  C   -0.094119
     6  N   -0.265945
     7  C    0.113724
     8  C    0.010401
     9  C   -0.004914
    10  C    0.110007
    11  C   -0.053743
    12  C   -0.017039
    13  C    0.002856
    14  C    0.467375
    15  O   -0.502370
    16  O   -0.263610
    17  N   -0.308386
    18  C    0.087472
    19  C    0.022291
    20  C   -0.053910
    21  C    0.147827
    22  C   -0.045342
    23  C    0.344494
    24  O   -0.537280
    25  C   -0.023779
    26  N   -0.255309
    27  C    0.132904
    28  C    0.005558
    29  C    0.002661
    30  C    0.119797
    31  C   -0.049364
    32  C   -0.030291
    33  C   -0.060706
    34  N   -0.347581
    35  C    0.101156
    36  C    0.038627
    37  C   -0.041795
    38  C    0.104412
    39  C   -0.033295
    40  C    0.324545
    41  O   -0.517179
    42  C    0.060605
    43  C    0.499418
    44  O   -0.531386
    45  O   -0.273994
    46  C    0.069888
    47  C    0.100720
    48  C   -0.099525
    49  C   -0.010172
    50  C   -0.047060
    51  C   -0.015670
    52  C   -0.032895
    53  C   -0.036733
    54  C   -0.021153
    55  C   -0.071183
    56  C   -0.045932
    57  C   -0.038463
    58  C   -0.034003
    59  C   -0.019654
    60  C   -0.056432
    61  C   -0.039642
    62  C   -0.041061
    63  C   -0.023230
    64  C   -0.010989
    65  C   -0.066532
    66  C   -0.069712
    67  H    0.034562
    68  H    0.034942
    69  H    0.027631
    70  H    0.031453
    71  H    0.024896
    72  H    0.025027
    73  H    0.022000
    74  H    0.019130
    75  H    0.027271
    76  H    0.028366
    77  H    0.029007
    78  H    0.040184
    79  H    0.030941
    80  H    0.017184
    81  H    0.024306
    82  H    0.029170
    83  H    0.036982
    84  H    0.050560
    85  H    0.039637
    86  H    0.037312
    87  H    0.022542
    88  H    0.013669
    89  H    0.025188
    90  H    0.019100
    91  H    0.021917
    92  H    0.023697
    93  H    0.025551
    94  H    0.028544
    95  H    0.038914
    96  H    0.027462
    97  H    0.036413
    98  H    0.053466
    99  H    0.053458
   100  H    0.034646
   101  H    0.037074
   102  H    0.052696
   103  H    0.063543
   104  H    0.027615
   105  H    0.013938
   106  H    0.032583
   107  H    0.023182
   108  H    0.006401
   109  H    0.031027
   110  H    0.014325
   111  H    0.030381
   112  H    0.018032
   113  H    0.015963
   114  H    0.025872
   115  H    0.023250
   116  H    0.008595
   117  H    0.024715
   118  H    0.018890
   119  H    0.031515
   120  H    0.028288
   121  H    0.014575
   122  H    0.004994
   123  H    0.022618
   124  H    0.019084
   125  H    0.016309
   126  H    0.033341
   127  H    0.022725
   128  H    0.006996
   129  H    0.022939
   130  H    0.027467
   131  H    0.011931
   132  H    0.024881
   133  H    0.011665
   134  H    0.027698
   135  H    0.016128
   136  H    0.033771
   137  H    0.014515
   138  H    0.016249
   139  H    0.016801
   140  H    0.018659
 Sum of Mulliken charges =   0.00000

 Dipole moment (field-independent basis, Debye):
    X=             -4.1495    Y=              5.3540    Z=              0.5131  Tot=              6.7932
 N-N= 4.283088036365D+03 E-N= 0.000000000000D+00  KE=-9.240153110765D+03
 Leave Link  601 at Thu May  5 07:22:22 2022, MaxMem=  6710886400 cpu:               2.1 elap:               0.1
 (Enter /sw/apps/gaussian-16.0/g16/l9999.exe)
 1\1\GINC-BP1-COMPUTE179\SP\RZINDO CIS\STO-3G\C55H74Mg1N4O6\OF15641\05-
 May-2022\0\\#p ZINDO=(nstates=5)\\step_701_chromophore_25 ZINDO\\0,1\M
 g,0,-2.45,33.964,26.929\C,0,-3.922,32.111,29.675\C,0,-0.88,35.887,29.3
 92\C,0,-1.433,35.994,24.528\C,0,-4.11,31.896,24.738\N,0,-2.436,33.948,
 29.363\C,0,-3.012,33.07,30.182\C,0,-2.629,33.482,31.641\C,0,-1.794,34.
 75,31.499\C,0,-1.635,34.846,29.945\C,0,-2.278,36.097,32.235\C,0,-1.904
 ,32.379,32.513\C,0,-2.484,32.052,33.89\C,0,-1.486,32.002,35.046\O,0,-0

 Normal termination of Gaussian 16 at Thu May  5 07:22:22 2022.
