 Gaussian 16, Revision A.03,
 Gaussian 16:  ES64L-G16RevA.03 25-Dec-2016

 ------------------------------
 #p blyp/Def2SVP td=(nstates=5)
 ------------------------------

 -------------------------------------------------
 step_451_chromophore_6 TDDFT with blyp functional
 -------------------------------------------------
 Symbolic Z-matrix:
 Charge =  0 Multiplicity = 1

                         Standard orientation:
 ---------------------------------------------------------------------
 Center     Atomic      Atomic             Coordinates (Angstroms)
 Number     Number       Type             X           Y           Z
 ---------------------------------------------------------------------
      1         12           0       -5.477986    1.110776   -0.481374
      2          6           0       -4.832772   -2.338631   -0.041406
      3          6           0       -2.205347    1.756169   -0.388072
      4          6           0       -6.313351    4.360687   -0.300100
      5          6           0       -8.878488    0.403955    0.451583
      6          7           0       -3.694768   -0.157442   -0.102865
      7          6           0       -3.633381   -1.531331   -0.145620
      8          6           0       -2.139186   -2.056796   -0.255979
      9          6           0       -1.333083   -0.728108   -0.076600
     10          6           0       -2.469948    0.377356   -0.177810
     11          6           0       -0.491429   -0.675784    1.194127
     12          6           0       -1.839109   -2.881623   -1.632995
     13          6           0       -1.009951   -4.122549   -1.515733
     14          6           0        0.092242   -4.188516   -0.478391
     15          8           0       -0.125459   -4.500757    0.682361
     16          8           0        1.443196   -3.939065   -0.886125
     17          7           0       -4.425052    2.779285   -0.616241
     18          6           0       -3.071105    2.865533   -0.575831
     19          6           0       -2.627552    4.248677   -0.637923
     20          6           0       -3.801868    5.025581   -0.743507
     21          6           0       -4.948323    4.008274   -0.501380
     22          6           0       -1.230561    4.635873   -0.479948
     23          6           0       -3.976305    6.485588   -0.899458
     24          8           0       -5.102295    7.003815   -1.077038
     25          6           0       -2.854532    7.463718   -0.873523
     26          7           0       -7.288916    2.242095    0.385898
     27          6           0       -7.388324    3.555253    0.096304
     28          6           0       -8.799560    4.056678    0.465660
     29          6           0       -9.606560    2.792793    0.374558
     30          6           0       -8.552334    1.691072    0.420433
     31          6           0       -8.769356    4.733185    1.898806
     32          6           0      -10.426963    2.776873   -0.956003
     33          6           0      -11.858740    3.184808   -0.728305
     34          7           0       -6.610755   -0.566230    0.123810
     35          6           0       -7.987476   -0.754502    0.378063
     36          6           0       -8.309218   -2.104458    0.588310
     37          6           0       -7.032793   -2.728765    0.389906
     38          6           0       -6.118522   -1.784642    0.134052
     39          6           0       -9.666320   -2.726526    0.843501
     40          6           0       -6.461468   -3.986891    0.295610
     41          8           0       -6.974292   -5.028207    0.590089
     42          6           0       -4.912524   -3.830582   -0.006552
     43          6           0       -4.182042   -4.304534    1.206382
     44          8           0       -3.916762   -3.714798    2.238619
     45          8           0       -3.710185   -5.642854    1.095019
     46          6           0       -3.153662   -6.160629    2.369336
     47          6           0        2.419354   -4.068740    0.196882
     48          6           0        3.657018   -3.515738   -0.405859
     49          6           0        4.902137   -4.075914   -0.427353
     50          6           0        5.375011   -5.368026    0.237507
     51          6           0        5.867425   -3.576336   -1.466102
     52          6           0        7.201872   -2.868822   -1.016561
     53          6           0        8.043067   -2.149099   -2.075750
     54          6           0        9.021503   -1.142069   -1.457196
     55          6           0        9.081969    0.156947   -2.212279
     56          6           0       10.379043   -1.752804   -1.272427
     57          6           0       11.020723   -1.298223    0.060220
     58          6           0       12.533414   -1.067941   -0.089129
     59          6           0       12.949897    0.382416   -0.398578
     60          6           0       14.081431    0.373874   -1.467586
     61          6           0       13.398886    1.188895    0.826647
     62          6           0       13.376744    2.714757    0.725094
     63          6           0       14.755120    3.329667    1.074013
     64          6           0       14.647329    4.604175    1.935764
     65          6           0       15.085927    4.275332    3.384157
     66          6           0       15.507000    5.769836    1.389933
     67          1           0       -1.138456    1.987227   -0.426423
     68          1           0       -6.550441    5.424605   -0.362569
     69          1           0       -9.961332    0.284586    0.526500
     70          1           0       -2.030214   -2.683142    0.629005
     71          1           0       -0.721037   -0.623867   -0.973116
     72          1           0       -1.059499   -1.222422    1.947491
     73          1           0       -0.396559    0.349950    1.549019
     74          1           0        0.513038   -1.101125    1.198543
     75          1           0       -1.328978   -2.268506   -2.375700
     76          1           0       -2.804729   -3.162713   -2.052679
     77          1           0       -0.578160   -4.387211   -2.480975
     78          1           0       -1.774659   -4.817726   -1.168610
     79          1           0       -0.714377    4.058895    0.286709
     80          1           0       -1.235057    5.658154   -0.101463
     81          1           0       -0.681356    4.666938   -1.420592
     82          1           0       -2.575541    7.465471    0.180183
     83          1           0       -3.329776    8.399342   -1.170197
     84          1           0       -1.960581    7.163680   -1.420464
     85          1           0       -9.064432    4.838513   -0.246007
     86          1           0      -10.236460    2.820434    1.262744
     87          1           0       -9.375371    4.160208    2.600524
     88          1           0       -9.082325    5.777189    1.925323
     89          1           0       -7.809584    4.594231    2.397499
     90          1           0      -10.252078    1.793117   -1.390953
     91          1           0       -9.929614    3.436497   -1.668251
     92          1           0      -11.951490    4.269227   -0.678569
     93          1           0      -12.212509    2.846958    0.246118
     94          1           0      -12.443159    2.746258   -1.537298
     95          1           0      -10.344068   -2.816512   -0.005407
     96          1           0      -10.333867   -2.112689    1.447732
     97          1           0       -9.351427   -3.700885    1.217526
     98          1           0       -4.626027   -4.284742   -0.955250
     99          1           0       -2.974849   -7.236104    2.334969
    100          1           0       -3.832811   -5.953933    3.196098
    101          1           0       -2.198125   -5.667724    2.547312
    102          1           0        2.649502   -5.090526    0.497347
    103          1           0        2.164515   -3.463838    1.067438
    104          1           0        3.383290   -2.706891   -1.083263
    105          1           0        5.689104   -6.091422   -0.513959
    106          1           0        4.595637   -5.918400    0.764555
    107          1           0        6.204074   -5.226291    0.931329
    108          1           0        5.340228   -2.797052   -2.016902
    109          1           0        5.947686   -4.445119   -2.119144
    110          1           0        7.784426   -3.721457   -0.667682
    111          1           0        7.028249   -2.257298   -0.130964
    112          1           0        7.394978   -1.606747   -2.763366
    113          1           0        8.557780   -2.972378   -2.572056
    114          1           0        8.603492   -0.827356   -0.501231
    115          1           0        9.298743    0.059106   -3.275650
    116          1           0        9.922379    0.675753   -1.749980
    117          1           0        8.222323    0.818523   -2.114706
    118          1           0       10.882313   -1.418285   -2.179550
    119          1           0       10.396595   -2.842584   -1.227371
    120          1           0       10.930106   -2.068096    0.825466
    121          1           0       10.565156   -0.389339    0.453981
    122          1           0       12.861720   -1.707224   -0.908631
    123          1           0       12.981378   -1.396133    0.848668
    124          1           0       12.188028    0.943600   -0.939864
    125          1           0       13.727526   -0.282738   -2.261446
    126          1           0       14.942455   -0.073355   -0.970078
    127          1           0       14.278339    1.391316   -1.805197
    128          1           0       14.344915    0.748936    1.140735
    129          1           0       12.668471    0.754195    1.509783
    130          1           0       12.449425    2.979784    1.232465
    131          1           0       13.213262    3.025508   -0.306232
    132          1           0       15.237328    3.589988    0.131448
    133          1           0       15.382344    2.631849    1.627594
    134          1           0       13.624071    4.980937    1.924950
    135          1           0       14.502942    3.453881    3.799519
    136          1           0       15.025435    5.180050    3.990426
    137          1           0       16.087056    3.847629    3.430374
    138          1           0       16.236236    5.368760    0.687386
    139          1           0       15.994186    6.353703    2.171045
    140          1           0       14.909082    6.382156    0.715491
 ---------------------------------------------------------------------

 SCF Done:  E(RB-LYP) =  -3007.37681094     A.U. after   20 cycles

 Excitation energies and oscillator strengths:

 Excited State   1:      Singlet-A      1.8015 eV  688.22 nm  f=0.3132  <S**2>=0.000
     245 -> 248        0.13442
     245 -> 249       -0.13615
     246 -> 247        0.68798
     246 <- 247       -0.14793
 This state for optimization and/or second-order correction.
 Total Energy, E(TD-HF/TD-DFT) =  -3007.31060672
 Copying the excited state density for this state as the 1-particle RhoCI density.

 Excited State   2:      Singlet-A      1.8513 eV  669.73 nm  f=0.0070  <S**2>=0.000
     244 -> 247        0.66949
     245 -> 247        0.21853

 Excited State   3:      Singlet-A      1.9154 eV  647.32 nm  f=0.0048  <S**2>=0.000
     243 -> 247        0.69435

 Excited State   4:      Singlet-A      1.9801 eV  626.16 nm  f=0.0954  <S**2>=0.000
     243 -> 247        0.11320
     244 -> 247       -0.21243
     245 -> 247        0.61898
     246 -> 248       -0.14389
     246 -> 249        0.14539

 Excited State   5:      Singlet-A      2.2738 eV  545.28 nm  f=0.0003  <S**2>=0.000
     241 -> 247        0.12631
     242 -> 247        0.69561

 The electronic state is 1-A.
 Alpha  occ. eigenvalues --  -46.28100 -18.82084 -18.80056 -18.77563 -18.76273
 Alpha  occ. eigenvalues --  -18.75314 -18.75085 -14.03704 -14.02081 -14.02037
 Alpha  occ. eigenvalues --  -14.00460 -10.04667 -10.03397  -9.99787  -9.98571
 Alpha  occ. eigenvalues --   -9.97411  -9.97091  -9.97078  -9.96939  -9.96293
 Alpha  occ. eigenvalues --   -9.96054  -9.95724  -9.95049  -9.94971  -9.94502
 Alpha  occ. eigenvalues --   -9.94480  -9.94436  -9.94411  -9.94383  -9.94310
 Alpha  occ. eigenvalues --   -9.93749  -9.93547  -9.93490  -9.93375  -9.93344
 Alpha  occ. eigenvalues --   -9.93244  -9.93197  -9.92895  -9.92605  -9.92577
 Alpha  occ. eigenvalues --   -9.92233  -9.92220  -9.92132  -9.91982  -9.91960
 Alpha  occ. eigenvalues --   -9.91882  -9.91866  -9.91815  -9.91791  -9.91763
 Alpha  occ. eigenvalues --   -9.91599  -9.91591  -9.91437  -9.91343  -9.91260
 Alpha  occ. eigenvalues --   -9.91248  -9.91223  -9.91135  -9.91085  -9.90939
 Alpha  occ. eigenvalues --   -9.90841  -9.90805  -9.90638  -9.90582  -9.90345
 Alpha  occ. eigenvalues --   -9.89637  -2.92735  -1.73104  -1.72670  -1.72437
 Alpha  occ. eigenvalues --   -0.97136  -0.95892  -0.92380  -0.90412  -0.89777
 Alpha  occ. eigenvalues --   -0.87640  -0.87121  -0.86636  -0.85779  -0.85302
 Alpha  occ. eigenvalues --   -0.76138  -0.74191  -0.73297  -0.72969  -0.72779
 Alpha  occ. eigenvalues --   -0.72526  -0.72211  -0.71206  -0.71092  -0.70488
 Alpha  occ. eigenvalues --   -0.69679  -0.69580  -0.68248  -0.67126  -0.67001
 Alpha  occ. eigenvalues --   -0.66650  -0.66281  -0.65423  -0.65156  -0.64331
 Alpha  occ. eigenvalues --   -0.63852  -0.63079  -0.62134  -0.61374  -0.60998
 Alpha  occ. eigenvalues --   -0.60308  -0.60051  -0.59806  -0.59636  -0.59215
 Alpha  occ. eigenvalues --   -0.58119  -0.57677  -0.56237  -0.55811  -0.54250
 Alpha  occ. eigenvalues --   -0.54034  -0.53805  -0.53422  -0.52177  -0.51520
 Alpha  occ. eigenvalues --   -0.51295  -0.51197  -0.50755  -0.49855  -0.49693
 Alpha  occ. eigenvalues --   -0.49675  -0.49367  -0.48414  -0.47606  -0.46692
 Alpha  occ. eigenvalues --   -0.46625  -0.46047  -0.45586  -0.45108  -0.44710
 Alpha  occ. eigenvalues --   -0.44428  -0.43352  -0.43127  -0.42797  -0.42579
 Alpha  occ. eigenvalues --   -0.41888  -0.41854  -0.41604  -0.41408  -0.40872
 Alpha  occ. eigenvalues --   -0.40764  -0.40699  -0.40435  -0.40317  -0.40228
 Alpha  occ. eigenvalues --   -0.39723  -0.39673  -0.39669  -0.39226  -0.39163
 Alpha  occ. eigenvalues --   -0.38989  -0.38750  -0.38534  -0.38365  -0.38234
 Alpha  occ. eigenvalues --   -0.38167  -0.37885  -0.37799  -0.37528  -0.37472
 Alpha  occ. eigenvalues --   -0.37151  -0.37002  -0.36874  -0.36629  -0.36562
 Alpha  occ. eigenvalues --   -0.36267  -0.36128  -0.36013  -0.35742  -0.35415
 Alpha  occ. eigenvalues --   -0.35242  -0.35223  -0.35093  -0.34733  -0.34350
 Alpha  occ. eigenvalues --   -0.34140  -0.34110  -0.33952  -0.33853  -0.33802
 Alpha  occ. eigenvalues --   -0.33726  -0.33426  -0.33334  -0.33062  -0.33024
 Alpha  occ. eigenvalues --   -0.32941  -0.32759  -0.32714  -0.32550  -0.32353
 Alpha  occ. eigenvalues --   -0.32337  -0.32184  -0.32105  -0.31914  -0.31777
 Alpha  occ. eigenvalues --   -0.31557  -0.31228  -0.31212  -0.30713  -0.30652
 Alpha  occ. eigenvalues --   -0.30480  -0.30390  -0.30324  -0.29985  -0.29851
 Alpha  occ. eigenvalues --   -0.29694  -0.29649  -0.29012  -0.28945  -0.28854
 Alpha  occ. eigenvalues --   -0.28741  -0.28498  -0.28401  -0.28122  -0.27743
 Alpha  occ. eigenvalues --   -0.27242  -0.27025  -0.27018  -0.26914  -0.26733
 Alpha  occ. eigenvalues --   -0.26627  -0.26094  -0.25943  -0.25684  -0.25507
 Alpha  occ. eigenvalues --   -0.25348  -0.24233  -0.23949  -0.23593  -0.23376
 Alpha  occ. eigenvalues --   -0.23355  -0.22491  -0.22089  -0.21443  -0.21316
 Alpha  occ. eigenvalues --   -0.20135  -0.20086  -0.18656  -0.18473  -0.17135
 Alpha  occ. eigenvalues --   -0.16010
 Alpha virt. eigenvalues --   -0.11733  -0.06856  -0.06237  -0.04586  -0.04244
 Alpha virt. eigenvalues --   -0.04062  -0.02268  -0.02047  -0.01558   0.00581
 Alpha virt. eigenvalues --    0.01559   0.02186   0.02684   0.02836   0.03124

 Mulliken charges:
               1
     1  Mg   0.716136
     2  C   -0.111320
     3  C   -0.074379
     4  C   -0.027518
     5  C   -0.062242
     6  N   -0.196028
     7  C   -0.088549
     8  C   -0.004754
     9  C    0.024825
    10  C    0.002519
    11  C    0.127042
    12  C    0.099988
    13  C    0.172641
    14  C    0.083938
    15  O   -0.194122
    16  O   -0.310821
    17  N   -0.301058
    18  C    0.150175
    19  C   -0.149152
    20  C    0.070169
    21  C    0.104001
    22  C    0.191959
    23  C   -0.113921
    24  O   -0.197672
    25  C    0.142948
    26  N   -0.191974
    27  C   -0.016531
    28  C   -0.004369
    29  C    0.033845
    30  C    0.013460
    31  C    0.136209
    32  C    0.102058
    33  C    0.103230
    34  N   -0.226182
    35  C    0.119813
    36  C   -0.159780
    37  C    0.122646
    38  C    0.144476
    39  C    0.163735
    40  C   -0.157331
    41  O   -0.111706
    42  C    0.130505
    43  C    0.140369
    44  O   -0.184930
    45  O   -0.308769
    46  C    0.227886
    47  C    0.341134
    48  C   -0.122962
    49  C   -0.117507
    50  C    0.138999
    51  C    0.114048
    52  C    0.043958
    53  C    0.152072
    54  C   -0.076037
    55  C    0.113177
    56  C    0.119715
    57  C    0.062967
    58  C    0.117661
    59  C   -0.113619
    60  C    0.087356
    61  C    0.090824
    62  C    0.115048
    63  C    0.113256
    64  C   -0.083990
    65  C    0.089750
    66  C    0.103131
    67  H   -0.064088
    68  H   -0.045476
    69  H   -0.069587
    70  H    0.021136
    71  H   -0.032433
    72  H    0.005081
    73  H   -0.019885
    74  H    0.002541
    75  H   -0.016588
    76  H   -0.015867
    77  H   -0.002464
    78  H    0.005690
    79  H    0.006448
    80  H   -0.032161
    81  H    0.008425
    82  H    0.015223
    83  H    0.004292
    84  H    0.003102
    85  H   -0.030677
    86  H   -0.033686
    87  H   -0.027058
    88  H    0.006332
    89  H   -0.008970
    90  H   -0.035671
    91  H   -0.027863
    92  H   -0.010706
    93  H   -0.013546
    94  H   -0.002706
    95  H   -0.008502
    96  H   -0.018021
    97  H    0.024098
    98  H    0.002763
    99  H    0.004325
   100  H    0.011163
   101  H    0.015495
   102  H   -0.013027
   103  H    0.005754
   104  H   -0.034525
   105  H   -0.009948
   106  H   -0.024762
   107  H    0.006113
   108  H   -0.044395
   109  H   -0.017505
   110  H   -0.040062
   111  H   -0.030350
   112  H   -0.046088
   113  H   -0.034467
   114  H   -0.040802
   115  H   -0.018023
   116  H   -0.033118
   117  H   -0.017961
   118  H   -0.030146
   119  H   -0.031124
   120  H   -0.035626
   121  H   -0.022886
   122  H   -0.041267
   123  H   -0.045726
   124  H   -0.037072
   125  H   -0.014807
   126  H   -0.023574
   127  H   -0.016849
   128  H   -0.037549
   129  H   -0.047921
   130  H   -0.024193
   131  H   -0.031869
   132  H   -0.032800
   133  H   -0.025748
   134  H   -0.031789
   135  H   -0.023176
   136  H   -0.009578
   137  H   -0.018559
   138  H   -0.028569
   139  H   -0.012590
   140  H   -0.024026
 Sum of Mulliken charges =  -0.00000

 Dipole moment (field-independent basis, Debye):
    X=              3.6825    Y=              2.3239    Z=             -2.7125  Tot=              5.1302
 Quadrupole moment (field-independent basis, Debye-Ang):
   XX=           -399.7701   YY=           -428.5541   ZZ=           -406.4128
   XY=            -25.2766   XZ=             11.2004   YZ=             12.0707

 Normal termination of Gaussian 16 at Fri Apr 29 21:17:05 2022.
