 Gaussian 16, Revision A.03,
 Gaussian 16:  ES64L-G16RevA.03 25-Dec-2016

 -----------------------------------
 #p cam-b3lyp/Def2SVP td=(nstates=5)
 -----------------------------------

 ------------------------------------------------------
 step_451_chromophore_6 TDDFT with cam-b3lyp functional
 ------------------------------------------------------
 Symbolic Z-matrix:
 Charge =  0 Multiplicity = 1

                         Standard orientation:
 ---------------------------------------------------------------------
 Center     Atomic      Atomic             Coordinates (Angstroms)
 Number     Number       Type             X           Y           Z
 ---------------------------------------------------------------------
      1         12           0       -5.477986    1.110776   -0.481374
      2          6           0       -4.832772   -2.338631   -0.041406
      3          6           0       -2.205347    1.756169   -0.388072
      4          6           0       -6.313351    4.360687   -0.300100
      5          6           0       -8.878488    0.403955    0.451583
      6          7           0       -3.694768   -0.157442   -0.102865
      7          6           0       -3.633381   -1.531331   -0.145620
      8          6           0       -2.139186   -2.056796   -0.255979
      9          6           0       -1.333083   -0.728108   -0.076600
     10          6           0       -2.469948    0.377356   -0.177810
     11          6           0       -0.491429   -0.675784    1.194127
     12          6           0       -1.839109   -2.881623   -1.632995
     13          6           0       -1.009951   -4.122549   -1.515733
     14          6           0        0.092242   -4.188516   -0.478391
     15          8           0       -0.125459   -4.500757    0.682361
     16          8           0        1.443196   -3.939065   -0.886125
     17          7           0       -4.425052    2.779285   -0.616241
     18          6           0       -3.071105    2.865533   -0.575831
     19          6           0       -2.627552    4.248677   -0.637923
     20          6           0       -3.801868    5.025581   -0.743507
     21          6           0       -4.948323    4.008274   -0.501380
     22          6           0       -1.230561    4.635873   -0.479948
     23          6           0       -3.976305    6.485588   -0.899458
     24          8           0       -5.102295    7.003815   -1.077038
     25          6           0       -2.854532    7.463718   -0.873523
     26          7           0       -7.288916    2.242095    0.385898
     27          6           0       -7.388324    3.555253    0.096304
     28          6           0       -8.799560    4.056678    0.465660
     29          6           0       -9.606560    2.792793    0.374558
     30          6           0       -8.552334    1.691072    0.420433
     31          6           0       -8.769356    4.733185    1.898806
     32          6           0      -10.426963    2.776873   -0.956003
     33          6           0      -11.858740    3.184808   -0.728305
     34          7           0       -6.610755   -0.566230    0.123810
     35          6           0       -7.987476   -0.754502    0.378063
     36          6           0       -8.309218   -2.104458    0.588310
     37          6           0       -7.032793   -2.728765    0.389906
     38          6           0       -6.118522   -1.784642    0.134052
     39          6           0       -9.666320   -2.726526    0.843501
     40          6           0       -6.461468   -3.986891    0.295610
     41          8           0       -6.974292   -5.028207    0.590089
     42          6           0       -4.912524   -3.830582   -0.006552
     43          6           0       -4.182042   -4.304534    1.206382
     44          8           0       -3.916762   -3.714798    2.238619
     45          8           0       -3.710185   -5.642854    1.095019
     46          6           0       -3.153662   -6.160629    2.369336
     47          6           0        2.419354   -4.068740    0.196882
     48          6           0        3.657018   -3.515738   -0.405859
     49          6           0        4.902137   -4.075914   -0.427353
     50          6           0        5.375011   -5.368026    0.237507
     51          6           0        5.867425   -3.576336   -1.466102
     52          6           0        7.201872   -2.868822   -1.016561
     53          6           0        8.043067   -2.149099   -2.075750
     54          6           0        9.021503   -1.142069   -1.457196
     55          6           0        9.081969    0.156947   -2.212279
     56          6           0       10.379043   -1.752804   -1.272427
     57          6           0       11.020723   -1.298223    0.060220
     58          6           0       12.533414   -1.067941   -0.089129
     59          6           0       12.949897    0.382416   -0.398578
     60          6           0       14.081431    0.373874   -1.467586
     61          6           0       13.398886    1.188895    0.826647
     62          6           0       13.376744    2.714757    0.725094
     63          6           0       14.755120    3.329667    1.074013
     64          6           0       14.647329    4.604175    1.935764
     65          6           0       15.085927    4.275332    3.384157
     66          6           0       15.507000    5.769836    1.389933
     67          1           0       -1.138456    1.987227   -0.426423
     68          1           0       -6.550441    5.424605   -0.362569
     69          1           0       -9.961332    0.284586    0.526500
     70          1           0       -2.030214   -2.683142    0.629005
     71          1           0       -0.721037   -0.623867   -0.973116
     72          1           0       -1.059499   -1.222422    1.947491
     73          1           0       -0.396559    0.349950    1.549019
     74          1           0        0.513038   -1.101125    1.198543
     75          1           0       -1.328978   -2.268506   -2.375700
     76          1           0       -2.804729   -3.162713   -2.052679
     77          1           0       -0.578160   -4.387211   -2.480975
     78          1           0       -1.774659   -4.817726   -1.168610
     79          1           0       -0.714377    4.058895    0.286709
     80          1           0       -1.235057    5.658154   -0.101463
     81          1           0       -0.681356    4.666938   -1.420592
     82          1           0       -2.575541    7.465471    0.180183
     83          1           0       -3.329776    8.399342   -1.170197
     84          1           0       -1.960581    7.163680   -1.420464
     85          1           0       -9.064432    4.838513   -0.246007
     86          1           0      -10.236460    2.820434    1.262744
     87          1           0       -9.375371    4.160208    2.600524
     88          1           0       -9.082325    5.777189    1.925323
     89          1           0       -7.809584    4.594231    2.397499
     90          1           0      -10.252078    1.793117   -1.390953
     91          1           0       -9.929614    3.436497   -1.668251
     92          1           0      -11.951490    4.269227   -0.678569
     93          1           0      -12.212509    2.846958    0.246118
     94          1           0      -12.443159    2.746258   -1.537298
     95          1           0      -10.344068   -2.816512   -0.005407
     96          1           0      -10.333867   -2.112689    1.447732
     97          1           0       -9.351427   -3.700885    1.217526
     98          1           0       -4.626027   -4.284742   -0.955250
     99          1           0       -2.974849   -7.236104    2.334969
    100          1           0       -3.832811   -5.953933    3.196098
    101          1           0       -2.198125   -5.667724    2.547312
    102          1           0        2.649502   -5.090526    0.497347
    103          1           0        2.164515   -3.463838    1.067438
    104          1           0        3.383290   -2.706891   -1.083263
    105          1           0        5.689104   -6.091422   -0.513959
    106          1           0        4.595637   -5.918400    0.764555
    107          1           0        6.204074   -5.226291    0.931329
    108          1           0        5.340228   -2.797052   -2.016902
    109          1           0        5.947686   -4.445119   -2.119144
    110          1           0        7.784426   -3.721457   -0.667682
    111          1           0        7.028249   -2.257298   -0.130964
    112          1           0        7.394978   -1.606747   -2.763366
    113          1           0        8.557780   -2.972378   -2.572056
    114          1           0        8.603492   -0.827356   -0.501231
    115          1           0        9.298743    0.059106   -3.275650
    116          1           0        9.922379    0.675753   -1.749980
    117          1           0        8.222323    0.818523   -2.114706
    118          1           0       10.882313   -1.418285   -2.179550
    119          1           0       10.396595   -2.842584   -1.227371
    120          1           0       10.930106   -2.068096    0.825466
    121          1           0       10.565156   -0.389339    0.453981
    122          1           0       12.861720   -1.707224   -0.908631
    123          1           0       12.981378   -1.396133    0.848668
    124          1           0       12.188028    0.943600   -0.939864
    125          1           0       13.727526   -0.282738   -2.261446
    126          1           0       14.942455   -0.073355   -0.970078
    127          1           0       14.278339    1.391316   -1.805197
    128          1           0       14.344915    0.748936    1.140735
    129          1           0       12.668471    0.754195    1.509783
    130          1           0       12.449425    2.979784    1.232465
    131          1           0       13.213262    3.025508   -0.306232
    132          1           0       15.237328    3.589988    0.131448
    133          1           0       15.382344    2.631849    1.627594
    134          1           0       13.624071    4.980937    1.924950
    135          1           0       14.502942    3.453881    3.799519
    136          1           0       15.025435    5.180050    3.990426
    137          1           0       16.087056    3.847629    3.430374
    138          1           0       16.236236    5.368760    0.687386
    139          1           0       15.994186    6.353703    2.171045
    140          1           0       14.909082    6.382156    0.715491
 ---------------------------------------------------------------------

 SCF Done:  E(RCAM-B3LYP) =  -3007.17853426     A.U. after   17 cycles

 Excitation energies and oscillator strengths:

 Excited State   1:      Singlet-A      1.7786 eV  697.07 nm  f=0.3850  <S**2>=0.000
     245 -> 248        0.15885
     246 -> 247        0.68787
 This state for optimization and/or second-order correction.
 Total Energy, E(TD-HF/TD-DFT) =  -3007.11317029
 Copying the excited state density for this state as the 1-particle RhoCI density.

 Excited State   2:      Singlet-A      2.2095 eV  561.14 nm  f=0.1671  <S**2>=0.000
     245 -> 247        0.66190
     246 -> 248       -0.21951

 Excited State   3:      Singlet-A      3.3341 eV  371.87 nm  f=0.0090  <S**2>=0.000
     241 -> 247       -0.10490
     244 -> 247        0.68150

 Excited State   4:      Singlet-A      3.4487 eV  359.51 nm  f=0.0002  <S**2>=0.000
     239 -> 247        0.20872
     239 -> 249        0.14975
     240 -> 247        0.50968
     240 -> 248       -0.15508
     240 -> 249        0.28550
     240 -> 250       -0.12673

 Excited State   5:      Singlet-A      3.5527 eV  348.99 nm  f=0.0115  <S**2>=0.000
     242 -> 247        0.59496
     242 -> 249       -0.19756
     242 -> 251        0.24177

 The electronic state is 1-A.
 Alpha  occ. eigenvalues --  -46.89688 -19.24938 -19.22735 -19.20583 -19.19283
 Alpha  occ. eigenvalues --  -19.19114 -19.17582 -14.42779 -14.40862 -14.40650
 Alpha  occ. eigenvalues --  -14.38390 -10.40043 -10.38818 -10.35577 -10.33289
 Alpha  occ. eigenvalues --  -10.32356 -10.32107 -10.31474 -10.31411 -10.31140
 Alpha  occ. eigenvalues --  -10.30929 -10.29998 -10.29477 -10.28764 -10.28754
 Alpha  occ. eigenvalues --  -10.28648 -10.28644 -10.28526 -10.28442 -10.28414
 Alpha  occ. eigenvalues --  -10.28202 -10.27998 -10.27983 -10.27925 -10.27404
 Alpha  occ. eigenvalues --  -10.27160 -10.26912 -10.26753 -10.26313 -10.26295
 Alpha  occ. eigenvalues --  -10.26250 -10.26002 -10.25985 -10.25726 -10.25704
 Alpha  occ. eigenvalues --  -10.25570 -10.25509 -10.25506 -10.25396 -10.25325
 Alpha  occ. eigenvalues --  -10.25267 -10.25113 -10.25057 -10.25036 -10.24985
 Alpha  occ. eigenvalues --  -10.24962 -10.24946 -10.24805 -10.24768 -10.24576
 Alpha  occ. eigenvalues --  -10.24522 -10.24459 -10.24321 -10.24200 -10.24001
 Alpha  occ. eigenvalues --  -10.22810  -3.18223  -1.93068  -1.92701  -1.92524
 Alpha  occ. eigenvalues --   -1.15567  -1.14289  -1.10249  -1.09332  -1.07570
 Alpha  occ. eigenvalues --   -1.05303  -1.05235  -1.04018  -1.03398  -1.02738
 Alpha  occ. eigenvalues --   -0.92967  -0.91119  -0.90135  -0.90102  -0.89788
 Alpha  occ. eigenvalues --   -0.89303  -0.88929  -0.87860  -0.87853  -0.87067
 Alpha  occ. eigenvalues --   -0.86207  -0.85601  -0.84535  -0.83331  -0.83035
 Alpha  occ. eigenvalues --   -0.82952  -0.82729  -0.81348  -0.80987  -0.80164
 Alpha  occ. eigenvalues --   -0.79756  -0.79276  -0.77584  -0.76679  -0.76419
 Alpha  occ. eigenvalues --   -0.75620  -0.75421  -0.74988  -0.74920  -0.74499
 Alpha  occ. eigenvalues --   -0.73116  -0.72630  -0.71128  -0.70679  -0.69251
 Alpha  occ. eigenvalues --   -0.68533  -0.68409  -0.67708  -0.66533  -0.65823
 Alpha  occ. eigenvalues --   -0.65462  -0.65315  -0.64740  -0.63738  -0.63733
 Alpha  occ. eigenvalues --   -0.63508  -0.63395  -0.62348  -0.61224  -0.60683
 Alpha  occ. eigenvalues --   -0.60210  -0.59398  -0.59159  -0.58439  -0.58085
 Alpha  occ. eigenvalues --   -0.57560  -0.56934  -0.56367  -0.55979  -0.55567
 Alpha  occ. eigenvalues --   -0.55295  -0.54699  -0.54504  -0.54177  -0.53810
 Alpha  occ. eigenvalues --   -0.53634  -0.53446  -0.53355  -0.53018  -0.52881
 Alpha  occ. eigenvalues --   -0.52733  -0.52588  -0.52201  -0.51976  -0.51845
 Alpha  occ. eigenvalues --   -0.51542  -0.51397  -0.51221  -0.51157  -0.50619
 Alpha  occ. eigenvalues --   -0.50555  -0.50490  -0.50145  -0.50055  -0.49773
 Alpha  occ. eigenvalues --   -0.49570  -0.49371  -0.49225  -0.49013  -0.48897
 Alpha  occ. eigenvalues --   -0.48582  -0.48441  -0.48230  -0.48069  -0.47956
 Alpha  occ. eigenvalues --   -0.47246  -0.47188  -0.47048  -0.46773  -0.46587
 Alpha  occ. eigenvalues --   -0.46045  -0.45925  -0.45838  -0.45547  -0.45466
 Alpha  occ. eigenvalues --   -0.45369  -0.45010  -0.44961  -0.44726  -0.44586
 Alpha  occ. eigenvalues --   -0.44562  -0.44452  -0.44432  -0.44321  -0.44182
 Alpha  occ. eigenvalues --   -0.44071  -0.43909  -0.43611  -0.43532  -0.43248
 Alpha  occ. eigenvalues --   -0.42902  -0.42579  -0.42529  -0.42138  -0.42009
 Alpha  occ. eigenvalues --   -0.41870  -0.41714  -0.41683  -0.41610  -0.41208
 Alpha  occ. eigenvalues --   -0.41171  -0.40698  -0.40451  -0.40077  -0.39983
 Alpha  occ. eigenvalues --   -0.39897  -0.39828  -0.39455  -0.39095  -0.38668
 Alpha  occ. eigenvalues --   -0.38188  -0.38050  -0.37879  -0.37802  -0.37610
 Alpha  occ. eigenvalues --   -0.37422  -0.37055  -0.36677  -0.36627  -0.36395
 Alpha  occ. eigenvalues --   -0.36158  -0.34876  -0.34730  -0.34463  -0.34416
 Alpha  occ. eigenvalues --   -0.34154  -0.33571  -0.32875  -0.32004  -0.31608
 Alpha  occ. eigenvalues --   -0.30934  -0.29892  -0.29700  -0.28724  -0.23899
 Alpha  occ. eigenvalues --   -0.21552
 Alpha virt. eigenvalues --   -0.08842  -0.01274  -0.00396   0.00962   0.02583
 Alpha virt. eigenvalues --    0.03565   0.05226   0.05695   0.05791   0.07410
 Alpha virt. eigenvalues --    0.08231   0.08771   0.08966   0.09268   0.09337

 Mulliken charges:
               1
     1  Mg   0.844604
     2  C   -0.122784
     3  C   -0.092183
     4  C   -0.059272
     5  C   -0.066519
     6  N   -0.262590
     7  C   -0.048847
     8  C   -0.056639
     9  C   -0.024924
    10  C    0.025423
    11  C    0.071345
    12  C    0.052423
    13  C    0.103960
    14  C    0.161626
    15  O   -0.232553
    16  O   -0.376189
    17  N   -0.397091
    18  C    0.168650
    19  C   -0.147664
    20  C    0.001694
    21  C    0.142583
    22  C    0.125182
    23  C   -0.034199
    24  O   -0.235825
    25  C    0.059668
    26  N   -0.258308
    27  C    0.012207
    28  C   -0.055721
    29  C   -0.028370
    30  C    0.026033
    31  C    0.077478
    32  C    0.046693
    33  C    0.040260
    34  N   -0.315923
    35  C    0.116162
    36  C   -0.156955
    37  C    0.039516
    38  C    0.170528
    39  C    0.116423
    40  C   -0.065790
    41  O   -0.155489
    42  C    0.048452
    43  C    0.229709
    44  O   -0.219346
    45  O   -0.371889
    46  C    0.187837
    47  C    0.306283
    48  C   -0.138914
    49  C   -0.139909
    50  C    0.077831
    51  C    0.058015
    52  C   -0.006788
    53  C    0.093490
    54  C   -0.136553
    55  C    0.058628
    56  C    0.064698
    57  C    0.012502
    58  C    0.056808
    59  C   -0.165674
    60  C    0.036904
    61  C    0.039809
    62  C    0.055369
    63  C    0.058118
    64  C   -0.143591
    65  C    0.031159
    66  C    0.043191
    67  H   -0.027093
    68  H   -0.003604
    69  H   -0.035567
    70  H    0.053543
    71  H    0.002733
    72  H    0.031340
    73  H    0.004791
    74  H    0.025858
    75  H    0.011544
    76  H    0.014324
    77  H    0.031480
    78  H    0.037111
    79  H    0.037256
    80  H   -0.001347
    81  H    0.040640
    82  H    0.042324
    83  H    0.042688
    84  H    0.032244
    85  H    0.004706
    86  H    0.001510
    87  H    0.000016
    88  H    0.030184
    89  H    0.017644
    90  H   -0.003138
    91  H   -0.001223
    92  H    0.011419
    93  H    0.008854
    94  H    0.021658
    95  H    0.014459
    96  H    0.003916
    97  H    0.047915
    98  H    0.043980
    99  H    0.027571
   100  H    0.034658
   101  H    0.037244
   102  H    0.013637
   103  H    0.032404
   104  H    0.000284
   105  H    0.015216
   106  H    0.001133
   107  H    0.030140
   108  H   -0.015009
   109  H    0.009731
   110  H   -0.014667
   111  H   -0.002355
   112  H   -0.015951
   113  H   -0.005293
   114  H   -0.008396
   115  H    0.006212
   116  H   -0.011341
   117  H    0.007611
   118  H   -0.003203
   119  H   -0.000755
   120  H   -0.005085
   121  H    0.002060
   122  H   -0.010447
   123  H   -0.014158
   124  H   -0.009103
   125  H    0.007324
   126  H   -0.000617
   127  H    0.005933
   128  H   -0.010348
   129  H   -0.018771
   130  H    0.005072
   131  H   -0.003816
   132  H   -0.003980
   133  H    0.001870
   134  H   -0.000440
   135  H    0.001335
   136  H    0.014084
   137  H    0.004865
   138  H   -0.004569
   139  H    0.011957
   140  H    0.001036
 Sum of Mulliken charges =  -0.00000

 Dipole moment (field-independent basis, Debye):
    X=              4.9418    Y=              3.9539    Z=             -3.0961  Tot=              7.0456
 Quadrupole moment (field-independent basis, Debye-Ang):
   XX=           -410.5875   YY=           -422.3381   ZZ=           -406.3423
   XY=            -31.9966   XZ=             12.6908   YZ=             11.8787

 Normal termination of Gaussian 16 at Fri Apr 29 20:24:05 2022.
