 Gaussian 16, Revision A.03,
 Gaussian 16:  ES64L-G16RevA.03 25-Dec-2016

 ---------------------------------
 #p PBE1PBE/Def2SVP td=(nstates=5)
 ---------------------------------

 ----------------------------------------------------
 step_451_chromophore_6 TDDFT with PBE1PBE functional
 ----------------------------------------------------
 Symbolic Z-matrix:
 Charge =  0 Multiplicity = 1

                         Standard orientation:
 ---------------------------------------------------------------------
 Center     Atomic      Atomic             Coordinates (Angstroms)
 Number     Number       Type             X           Y           Z
 ---------------------------------------------------------------------
      1         12           0       -5.477986    1.110776   -0.481374
      2          6           0       -4.832772   -2.338631   -0.041406
      3          6           0       -2.205347    1.756169   -0.388072
      4          6           0       -6.313351    4.360687   -0.300100
      5          6           0       -8.878488    0.403955    0.451583
      6          7           0       -3.694768   -0.157442   -0.102865
      7          6           0       -3.633381   -1.531331   -0.145620
      8          6           0       -2.139186   -2.056796   -0.255979
      9          6           0       -1.333083   -0.728108   -0.076600
     10          6           0       -2.469948    0.377356   -0.177810
     11          6           0       -0.491429   -0.675784    1.194127
     12          6           0       -1.839109   -2.881623   -1.632995
     13          6           0       -1.009951   -4.122549   -1.515733
     14          6           0        0.092242   -4.188516   -0.478391
     15          8           0       -0.125459   -4.500757    0.682361
     16          8           0        1.443196   -3.939065   -0.886125
     17          7           0       -4.425052    2.779285   -0.616241
     18          6           0       -3.071105    2.865533   -0.575831
     19          6           0       -2.627552    4.248677   -0.637923
     20          6           0       -3.801868    5.025581   -0.743507
     21          6           0       -4.948323    4.008274   -0.501380
     22          6           0       -1.230561    4.635873   -0.479948
     23          6           0       -3.976305    6.485588   -0.899458
     24          8           0       -5.102295    7.003815   -1.077038
     25          6           0       -2.854532    7.463718   -0.873523
     26          7           0       -7.288916    2.242095    0.385898
     27          6           0       -7.388324    3.555253    0.096304
     28          6           0       -8.799560    4.056678    0.465660
     29          6           0       -9.606560    2.792793    0.374558
     30          6           0       -8.552334    1.691072    0.420433
     31          6           0       -8.769356    4.733185    1.898806
     32          6           0      -10.426963    2.776873   -0.956003
     33          6           0      -11.858740    3.184808   -0.728305
     34          7           0       -6.610755   -0.566230    0.123810
     35          6           0       -7.987476   -0.754502    0.378063
     36          6           0       -8.309218   -2.104458    0.588310
     37          6           0       -7.032793   -2.728765    0.389906
     38          6           0       -6.118522   -1.784642    0.134052
     39          6           0       -9.666320   -2.726526    0.843501
     40          6           0       -6.461468   -3.986891    0.295610
     41          8           0       -6.974292   -5.028207    0.590089
     42          6           0       -4.912524   -3.830582   -0.006552
     43          6           0       -4.182042   -4.304534    1.206382
     44          8           0       -3.916762   -3.714798    2.238619
     45          8           0       -3.710185   -5.642854    1.095019
     46          6           0       -3.153662   -6.160629    2.369336
     47          6           0        2.419354   -4.068740    0.196882
     48          6           0        3.657018   -3.515738   -0.405859
     49          6           0        4.902137   -4.075914   -0.427353
     50          6           0        5.375011   -5.368026    0.237507
     51          6           0        5.867425   -3.576336   -1.466102
     52          6           0        7.201872   -2.868822   -1.016561
     53          6           0        8.043067   -2.149099   -2.075750
     54          6           0        9.021503   -1.142069   -1.457196
     55          6           0        9.081969    0.156947   -2.212279
     56          6           0       10.379043   -1.752804   -1.272427
     57          6           0       11.020723   -1.298223    0.060220
     58          6           0       12.533414   -1.067941   -0.089129
     59          6           0       12.949897    0.382416   -0.398578
     60          6           0       14.081431    0.373874   -1.467586
     61          6           0       13.398886    1.188895    0.826647
     62          6           0       13.376744    2.714757    0.725094
     63          6           0       14.755120    3.329667    1.074013
     64          6           0       14.647329    4.604175    1.935764
     65          6           0       15.085927    4.275332    3.384157
     66          6           0       15.507000    5.769836    1.389933
     67          1           0       -1.138456    1.987227   -0.426423
     68          1           0       -6.550441    5.424605   -0.362569
     69          1           0       -9.961332    0.284586    0.526500
     70          1           0       -2.030214   -2.683142    0.629005
     71          1           0       -0.721037   -0.623867   -0.973116
     72          1           0       -1.059499   -1.222422    1.947491
     73          1           0       -0.396559    0.349950    1.549019
     74          1           0        0.513038   -1.101125    1.198543
     75          1           0       -1.328978   -2.268506   -2.375700
     76          1           0       -2.804729   -3.162713   -2.052679
     77          1           0       -0.578160   -4.387211   -2.480975
     78          1           0       -1.774659   -4.817726   -1.168610
     79          1           0       -0.714377    4.058895    0.286709
     80          1           0       -1.235057    5.658154   -0.101463
     81          1           0       -0.681356    4.666938   -1.420592
     82          1           0       -2.575541    7.465471    0.180183
     83          1           0       -3.329776    8.399342   -1.170197
     84          1           0       -1.960581    7.163680   -1.420464
     85          1           0       -9.064432    4.838513   -0.246007
     86          1           0      -10.236460    2.820434    1.262744
     87          1           0       -9.375371    4.160208    2.600524
     88          1           0       -9.082325    5.777189    1.925323
     89          1           0       -7.809584    4.594231    2.397499
     90          1           0      -10.252078    1.793117   -1.390953
     91          1           0       -9.929614    3.436497   -1.668251
     92          1           0      -11.951490    4.269227   -0.678569
     93          1           0      -12.212509    2.846958    0.246118
     94          1           0      -12.443159    2.746258   -1.537298
     95          1           0      -10.344068   -2.816512   -0.005407
     96          1           0      -10.333867   -2.112689    1.447732
     97          1           0       -9.351427   -3.700885    1.217526
     98          1           0       -4.626027   -4.284742   -0.955250
     99          1           0       -2.974849   -7.236104    2.334969
    100          1           0       -3.832811   -5.953933    3.196098
    101          1           0       -2.198125   -5.667724    2.547312
    102          1           0        2.649502   -5.090526    0.497347
    103          1           0        2.164515   -3.463838    1.067438
    104          1           0        3.383290   -2.706891   -1.083263
    105          1           0        5.689104   -6.091422   -0.513959
    106          1           0        4.595637   -5.918400    0.764555
    107          1           0        6.204074   -5.226291    0.931329
    108          1           0        5.340228   -2.797052   -2.016902
    109          1           0        5.947686   -4.445119   -2.119144
    110          1           0        7.784426   -3.721457   -0.667682
    111          1           0        7.028249   -2.257298   -0.130964
    112          1           0        7.394978   -1.606747   -2.763366
    113          1           0        8.557780   -2.972378   -2.572056
    114          1           0        8.603492   -0.827356   -0.501231
    115          1           0        9.298743    0.059106   -3.275650
    116          1           0        9.922379    0.675753   -1.749980
    117          1           0        8.222323    0.818523   -2.114706
    118          1           0       10.882313   -1.418285   -2.179550
    119          1           0       10.396595   -2.842584   -1.227371
    120          1           0       10.930106   -2.068096    0.825466
    121          1           0       10.565156   -0.389339    0.453981
    122          1           0       12.861720   -1.707224   -0.908631
    123          1           0       12.981378   -1.396133    0.848668
    124          1           0       12.188028    0.943600   -0.939864
    125          1           0       13.727526   -0.282738   -2.261446
    126          1           0       14.942455   -0.073355   -0.970078
    127          1           0       14.278339    1.391316   -1.805197
    128          1           0       14.344915    0.748936    1.140735
    129          1           0       12.668471    0.754195    1.509783
    130          1           0       12.449425    2.979784    1.232465
    131          1           0       13.213262    3.025508   -0.306232
    132          1           0       15.237328    3.589988    0.131448
    133          1           0       15.382344    2.631849    1.627594
    134          1           0       13.624071    4.980937    1.924950
    135          1           0       14.502942    3.453881    3.799519
    136          1           0       15.025435    5.180050    3.990426
    137          1           0       16.087056    3.847629    3.430374
    138          1           0       16.236236    5.368760    0.687386
    139          1           0       15.994186    6.353703    2.171045
    140          1           0       14.909082    6.382156    0.715491
 ---------------------------------------------------------------------

 SCF Done:  E(RPBE1PBE) =  -3005.36638075     A.U. after   16 cycles

 Excitation energies and oscillator strengths:

 Excited State   1:      Singlet-A      1.8642 eV  665.07 nm  f=0.3746  <S**2>=0.000
     245 -> 248        0.15164
     246 -> 247        0.69316
     246 <- 247       -0.10360
 This state for optimization and/or second-order correction.
 Total Energy, E(TD-HF/TD-DFT) =  -3005.29787189
 Copying the excited state density for this state as the 1-particle RhoCI density.

 Excited State   2:      Singlet-A      2.1895 eV  566.27 nm  f=0.1525  <S**2>=0.000
     245 -> 247        0.66928
     246 -> 248       -0.19118
     246 -> 249       -0.10209

 Excited State   3:      Singlet-A      2.8768 eV  430.98 nm  f=0.0041  <S**2>=0.000
     242 -> 247        0.29927
     244 -> 247        0.62197

 Excited State   4:      Singlet-A      2.9768 eV  416.50 nm  f=0.0064  <S**2>=0.000
     241 -> 247       -0.19459
     242 -> 247        0.59674
     244 -> 247       -0.29037

 Excited State   5:      Singlet-A      2.9951 eV  413.96 nm  f=0.0013  <S**2>=0.000
     241 -> 247        0.62880
     241 -> 248       -0.13479
     241 -> 249        0.16542
     242 -> 247        0.16600
     244 -> 247       -0.11149

 The electronic state is 1-A.
 Alpha  occ. eigenvalues --  -46.93099 -19.25649 -19.23501 -19.20842 -19.19603
 Alpha  occ. eigenvalues --  -19.18993 -19.18207 -14.42175 -14.40295 -14.40250
 Alpha  occ. eigenvalues --  -14.38327 -10.37112 -10.35944 -10.32331 -10.30743
 Alpha  occ. eigenvalues --  -10.29580 -10.29496 -10.29214 -10.28803 -10.28612
 Alpha  occ. eigenvalues --  -10.28351 -10.27024 -10.26811 -10.26778 -10.26746
 Alpha  occ. eigenvalues --  -10.26534 -10.26305 -10.26304 -10.26083 -10.25979
 Alpha  occ. eigenvalues --  -10.25875 -10.25701 -10.25336 -10.25078 -10.25015
 Alpha  occ. eigenvalues --  -10.24942 -10.24919 -10.24638 -10.24185 -10.23747
 Alpha  occ. eigenvalues --  -10.23690 -10.23610 -10.23452 -10.23321 -10.23316
 Alpha  occ. eigenvalues --  -10.23152 -10.23145 -10.23121 -10.23063 -10.22888
 Alpha  occ. eigenvalues --  -10.22846 -10.22750 -10.22696 -10.22656 -10.22632
 Alpha  occ. eigenvalues --  -10.22503 -10.22479 -10.22341 -10.22296 -10.22070
 Alpha  occ. eigenvalues --  -10.21943 -10.21861 -10.21822 -10.21569 -10.21379
 Alpha  occ. eigenvalues --  -10.21016  -3.15212  -1.87994  -1.87607  -1.87437
 Alpha  occ. eigenvalues --   -1.10352  -1.09118  -1.05378  -1.03683  -1.02442
 Alpha  occ. eigenvalues --   -1.00195  -0.99626  -0.98877  -0.98047  -0.97480
 Alpha  occ. eigenvalues --   -0.87583  -0.85204  -0.84301  -0.84019  -0.83921
 Alpha  occ. eigenvalues --   -0.83430  -0.83213  -0.82084  -0.81948  -0.81378
 Alpha  occ. eigenvalues --   -0.80459  -0.80247  -0.78674  -0.77494  -0.77384
 Alpha  occ. eigenvalues --   -0.77062  -0.76843  -0.75673  -0.75253  -0.74315
 Alpha  occ. eigenvalues --   -0.74012  -0.73322  -0.71952  -0.71062  -0.70568
 Alpha  occ. eigenvalues --   -0.69948  -0.69477  -0.69304  -0.69089  -0.68661
 Alpha  occ. eigenvalues --   -0.67569  -0.67049  -0.65524  -0.64957  -0.63458
 Alpha  occ. eigenvalues --   -0.62882  -0.62623  -0.62386  -0.60785  -0.60164
 Alpha  occ. eigenvalues --   -0.59883  -0.59636  -0.59250  -0.58342  -0.57993
 Alpha  occ. eigenvalues --   -0.57848  -0.57517  -0.56486  -0.55871  -0.54988
 Alpha  occ. eigenvalues --   -0.54659  -0.54080  -0.53700  -0.53045  -0.52648
 Alpha  occ. eigenvalues --   -0.52326  -0.51335  -0.50910  -0.50332  -0.50039
 Alpha  occ. eigenvalues --   -0.49773  -0.49283  -0.48940  -0.48578  -0.48199
 Alpha  occ. eigenvalues --   -0.48130  -0.47780  -0.47704  -0.47565  -0.47464
 Alpha  occ. eigenvalues --   -0.47284  -0.47248  -0.46729  -0.46573  -0.46397
 Alpha  occ. eigenvalues --   -0.46027  -0.45961  -0.45699  -0.45408  -0.45242
 Alpha  occ. eigenvalues --   -0.45152  -0.45049  -0.44615  -0.44566  -0.44302
 Alpha  occ. eigenvalues --   -0.44196  -0.43899  -0.43766  -0.43563  -0.43528
 Alpha  occ. eigenvalues --   -0.43189  -0.43022  -0.42910  -0.42714  -0.42565
 Alpha  occ. eigenvalues --   -0.41911  -0.41800  -0.41744  -0.41327  -0.41297
 Alpha  occ. eigenvalues --   -0.40865  -0.40700  -0.40665  -0.40236  -0.40139
 Alpha  occ. eigenvalues --   -0.40101  -0.39777  -0.39688  -0.39393  -0.39361
 Alpha  occ. eigenvalues --   -0.39249  -0.39179  -0.39092  -0.39031  -0.38975
 Alpha  occ. eigenvalues --   -0.38860  -0.38703  -0.38497  -0.38336  -0.38055
 Alpha  occ. eigenvalues --   -0.37912  -0.37520  -0.37263  -0.37001  -0.36768
 Alpha  occ. eigenvalues --   -0.36629  -0.36519  -0.36407  -0.36257  -0.35989
 Alpha  occ. eigenvalues --   -0.35946  -0.35643  -0.35317  -0.35019  -0.34740
 Alpha  occ. eigenvalues --   -0.34727  -0.34696  -0.34397  -0.33886  -0.33488
 Alpha  occ. eigenvalues --   -0.33176  -0.32813  -0.32617  -0.32590  -0.32554
 Alpha  occ. eigenvalues --   -0.32209  -0.31979  -0.31784  -0.31480  -0.31451
 Alpha  occ. eigenvalues --   -0.31051  -0.29850  -0.29652  -0.29413  -0.29334
 Alpha  occ. eigenvalues --   -0.29251  -0.28566  -0.28382  -0.27270  -0.26538
 Alpha  occ. eigenvalues --   -0.26009  -0.25195  -0.25030  -0.24725  -0.20799
 Alpha  occ. eigenvalues --   -0.19040
 Alpha virt. eigenvalues --   -0.11348  -0.04936  -0.04259  -0.01976  -0.01847
 Alpha virt. eigenvalues --   -0.00970   0.00735   0.01064   0.01253   0.03648
 Alpha virt. eigenvalues --    0.04584   0.04936   0.05537   0.05737   0.06120

 Mulliken charges:
               1
     1  Mg   0.984713
     2  C   -0.123904
     3  C   -0.081714
     4  C   -0.044616
     5  C   -0.058054
     6  N   -0.367056
     7  C    0.036365
     8  C   -0.124532
     9  C   -0.099477
    10  C    0.063686
    11  C    0.013259
    12  C    0.003658
    13  C    0.020828
    14  C    0.228413
    15  O   -0.263117
    16  O   -0.406616
    17  N   -0.517367
    18  C    0.186166
    19  C   -0.177435
    20  C   -0.044670
    21  C    0.167252
    22  C    0.063087
    23  C    0.010781
    24  O   -0.273971
    25  C   -0.013963
    26  N   -0.347801
    27  C    0.039867
    28  C   -0.129555
    29  C   -0.112968
    30  C    0.062253
    31  C    0.025298
    32  C   -0.010180
    33  C   -0.033278
    34  N   -0.445946
    35  C    0.133355
    36  C   -0.155041
    37  C   -0.015925
    38  C    0.216046
    39  C    0.065041
    40  C    0.032990
    41  O   -0.198099
    42  C   -0.073646
    43  C    0.318665
    44  O   -0.250946
    45  O   -0.402637
    46  C    0.130074
    47  C    0.261146
    48  C   -0.151830
    49  C   -0.179704
    50  C    0.017585
    51  C   -0.007870
    52  C   -0.069027
    53  C    0.036661
    54  C   -0.224732
    55  C   -0.008723
    56  C    0.011623
    57  C   -0.049170
    58  C   -0.002793
    59  C   -0.254132
    60  C   -0.024652
    61  C   -0.012949
    62  C   -0.005756
    63  C    0.002869
    64  C   -0.235734
    65  C   -0.033206
    66  C   -0.016577
    67  H    0.004093
    68  H    0.028633
    69  H   -0.002357
    70  H    0.095044
    71  H    0.039773
    72  H    0.057097
    73  H    0.033464
    74  H    0.054042
    75  H    0.043627
    76  H    0.047362
    77  H    0.062982
    78  H    0.071970
    79  H    0.061451
    80  H    0.027439
    81  H    0.066626
    82  H    0.069023
    83  H    0.068229
    84  H    0.058601
    85  H    0.040995
    86  H    0.037765
    87  H    0.026298
    88  H    0.056541
    89  H    0.045842
    90  H    0.029579
    91  H    0.033136
    92  H    0.040389
    93  H    0.036076
    94  H    0.049731
    95  H    0.044633
    96  H    0.033011
    97  H    0.076520
    98  H    0.078641
    99  H    0.050572
   100  H    0.057121
   101  H    0.061427
   102  H    0.042147
   103  H    0.060795
   104  H    0.030279
   105  H    0.041843
   106  H    0.028085
   107  H    0.057476
   108  H    0.018767
   109  H    0.042111
   110  H    0.019922
   111  H    0.029697
   112  H    0.017035
   113  H    0.027706
   114  H    0.029966
   115  H    0.034015
   116  H    0.022801
   117  H    0.036336
   118  H    0.030138
   119  H    0.031631
   120  H    0.028296
   121  H    0.033236
   122  H    0.022435
   123  H    0.018453
   124  H    0.033880
   125  H    0.035806
   126  H    0.027820
   127  H    0.034255
   128  H    0.021135
   129  H    0.016714
   130  H    0.035906
   131  H    0.028718
   132  H    0.028251
   133  H    0.033134
   134  H    0.037060
   135  H    0.030933
   136  H    0.042015
   137  H    0.032610
   138  H    0.023016
   139  H    0.038557
   140  H    0.029329
 Sum of Mulliken charges =  -0.00000

 Dipole moment (field-independent basis, Debye):
    X=              4.2782    Y=              3.1132    Z=             -2.9525  Tot=              6.0591
 Quadrupole moment (field-independent basis, Debye-Ang):
   XX=           -397.7300   YY=           -421.2518   ZZ=           -403.9361
   XY=            -29.0401   XZ=             11.6504   YZ=             12.1339

 Normal termination of Gaussian 16 at Fri Apr 29 20:39:09 2022.
