 Gaussian 16, Revision A.03,
 Gaussian 16:  ES64L-G16RevA.03 25-Dec-2016

 --------------------------------
 #p wB97XD/Def2SVP td=(nstates=5)
 --------------------------------

 ---------------------------------------------------
 step_451_chromophore_6 TDDFT with wB97XD functional
 ---------------------------------------------------
 Symbolic Z-matrix:
 Charge =  0 Multiplicity = 1

                         Standard orientation:
 ---------------------------------------------------------------------
 Center     Atomic      Atomic             Coordinates (Angstroms)
 Number     Number       Type             X           Y           Z
 ---------------------------------------------------------------------
      1         12           0       -5.477986    1.110776   -0.481374
      2          6           0       -4.832772   -2.338631   -0.041406
      3          6           0       -2.205347    1.756169   -0.388072
      4          6           0       -6.313351    4.360687   -0.300100
      5          6           0       -8.878488    0.403955    0.451583
      6          7           0       -3.694768   -0.157442   -0.102865
      7          6           0       -3.633381   -1.531331   -0.145620
      8          6           0       -2.139186   -2.056796   -0.255979
      9          6           0       -1.333083   -0.728108   -0.076600
     10          6           0       -2.469948    0.377356   -0.177810
     11          6           0       -0.491429   -0.675784    1.194127
     12          6           0       -1.839109   -2.881623   -1.632995
     13          6           0       -1.009951   -4.122549   -1.515733
     14          6           0        0.092242   -4.188516   -0.478391
     15          8           0       -0.125459   -4.500757    0.682361
     16          8           0        1.443196   -3.939065   -0.886125
     17          7           0       -4.425052    2.779285   -0.616241
     18          6           0       -3.071105    2.865533   -0.575831
     19          6           0       -2.627552    4.248677   -0.637923
     20          6           0       -3.801868    5.025581   -0.743507
     21          6           0       -4.948323    4.008274   -0.501380
     22          6           0       -1.230561    4.635873   -0.479948
     23          6           0       -3.976305    6.485588   -0.899458
     24          8           0       -5.102295    7.003815   -1.077038
     25          6           0       -2.854532    7.463718   -0.873523
     26          7           0       -7.288916    2.242095    0.385898
     27          6           0       -7.388324    3.555253    0.096304
     28          6           0       -8.799560    4.056678    0.465660
     29          6           0       -9.606560    2.792793    0.374558
     30          6           0       -8.552334    1.691072    0.420433
     31          6           0       -8.769356    4.733185    1.898806
     32          6           0      -10.426963    2.776873   -0.956003
     33          6           0      -11.858740    3.184808   -0.728305
     34          7           0       -6.610755   -0.566230    0.123810
     35          6           0       -7.987476   -0.754502    0.378063
     36          6           0       -8.309218   -2.104458    0.588310
     37          6           0       -7.032793   -2.728765    0.389906
     38          6           0       -6.118522   -1.784642    0.134052
     39          6           0       -9.666320   -2.726526    0.843501
     40          6           0       -6.461468   -3.986891    0.295610
     41          8           0       -6.974292   -5.028207    0.590089
     42          6           0       -4.912524   -3.830582   -0.006552
     43          6           0       -4.182042   -4.304534    1.206382
     44          8           0       -3.916762   -3.714798    2.238619
     45          8           0       -3.710185   -5.642854    1.095019
     46          6           0       -3.153662   -6.160629    2.369336
     47          6           0        2.419354   -4.068740    0.196882
     48          6           0        3.657018   -3.515738   -0.405859
     49          6           0        4.902137   -4.075914   -0.427353
     50          6           0        5.375011   -5.368026    0.237507
     51          6           0        5.867425   -3.576336   -1.466102
     52          6           0        7.201872   -2.868822   -1.016561
     53          6           0        8.043067   -2.149099   -2.075750
     54          6           0        9.021503   -1.142069   -1.457196
     55          6           0        9.081969    0.156947   -2.212279
     56          6           0       10.379043   -1.752804   -1.272427
     57          6           0       11.020723   -1.298223    0.060220
     58          6           0       12.533414   -1.067941   -0.089129
     59          6           0       12.949897    0.382416   -0.398578
     60          6           0       14.081431    0.373874   -1.467586
     61          6           0       13.398886    1.188895    0.826647
     62          6           0       13.376744    2.714757    0.725094
     63          6           0       14.755120    3.329667    1.074013
     64          6           0       14.647329    4.604175    1.935764
     65          6           0       15.085927    4.275332    3.384157
     66          6           0       15.507000    5.769836    1.389933
     67          1           0       -1.138456    1.987227   -0.426423
     68          1           0       -6.550441    5.424605   -0.362569
     69          1           0       -9.961332    0.284586    0.526500
     70          1           0       -2.030214   -2.683142    0.629005
     71          1           0       -0.721037   -0.623867   -0.973116
     72          1           0       -1.059499   -1.222422    1.947491
     73          1           0       -0.396559    0.349950    1.549019
     74          1           0        0.513038   -1.101125    1.198543
     75          1           0       -1.328978   -2.268506   -2.375700
     76          1           0       -2.804729   -3.162713   -2.052679
     77          1           0       -0.578160   -4.387211   -2.480975
     78          1           0       -1.774659   -4.817726   -1.168610
     79          1           0       -0.714377    4.058895    0.286709
     80          1           0       -1.235057    5.658154   -0.101463
     81          1           0       -0.681356    4.666938   -1.420592
     82          1           0       -2.575541    7.465471    0.180183
     83          1           0       -3.329776    8.399342   -1.170197
     84          1           0       -1.960581    7.163680   -1.420464
     85          1           0       -9.064432    4.838513   -0.246007
     86          1           0      -10.236460    2.820434    1.262744
     87          1           0       -9.375371    4.160208    2.600524
     88          1           0       -9.082325    5.777189    1.925323
     89          1           0       -7.809584    4.594231    2.397499
     90          1           0      -10.252078    1.793117   -1.390953
     91          1           0       -9.929614    3.436497   -1.668251
     92          1           0      -11.951490    4.269227   -0.678569
     93          1           0      -12.212509    2.846958    0.246118
     94          1           0      -12.443159    2.746258   -1.537298
     95          1           0      -10.344068   -2.816512   -0.005407
     96          1           0      -10.333867   -2.112689    1.447732
     97          1           0       -9.351427   -3.700885    1.217526
     98          1           0       -4.626027   -4.284742   -0.955250
     99          1           0       -2.974849   -7.236104    2.334969
    100          1           0       -3.832811   -5.953933    3.196098
    101          1           0       -2.198125   -5.667724    2.547312
    102          1           0        2.649502   -5.090526    0.497347
    103          1           0        2.164515   -3.463838    1.067438
    104          1           0        3.383290   -2.706891   -1.083263
    105          1           0        5.689104   -6.091422   -0.513959
    106          1           0        4.595637   -5.918400    0.764555
    107          1           0        6.204074   -5.226291    0.931329
    108          1           0        5.340228   -2.797052   -2.016902
    109          1           0        5.947686   -4.445119   -2.119144
    110          1           0        7.784426   -3.721457   -0.667682
    111          1           0        7.028249   -2.257298   -0.130964
    112          1           0        7.394978   -1.606747   -2.763366
    113          1           0        8.557780   -2.972378   -2.572056
    114          1           0        8.603492   -0.827356   -0.501231
    115          1           0        9.298743    0.059106   -3.275650
    116          1           0        9.922379    0.675753   -1.749980
    117          1           0        8.222323    0.818523   -2.114706
    118          1           0       10.882313   -1.418285   -2.179550
    119          1           0       10.396595   -2.842584   -1.227371
    120          1           0       10.930106   -2.068096    0.825466
    121          1           0       10.565156   -0.389339    0.453981
    122          1           0       12.861720   -1.707224   -0.908631
    123          1           0       12.981378   -1.396133    0.848668
    124          1           0       12.188028    0.943600   -0.939864
    125          1           0       13.727526   -0.282738   -2.261446
    126          1           0       14.942455   -0.073355   -0.970078
    127          1           0       14.278339    1.391316   -1.805197
    128          1           0       14.344915    0.748936    1.140735
    129          1           0       12.668471    0.754195    1.509783
    130          1           0       12.449425    2.979784    1.232465
    131          1           0       13.213262    3.025508   -0.306232
    132          1           0       15.237328    3.589988    0.131448
    133          1           0       15.382344    2.631849    1.627594
    134          1           0       13.624071    4.980937    1.924950
    135          1           0       14.502942    3.453881    3.799519
    136          1           0       15.025435    5.180050    3.990426
    137          1           0       16.087056    3.847629    3.430374
    138          1           0       16.236236    5.368760    0.687386
    139          1           0       15.994186    6.353703    2.171045
    140          1           0       14.909082    6.382156    0.715491
 ---------------------------------------------------------------------

 SCF Done:  E(RwB97XD) =  -3007.87448893     A.U. after   17 cycles

 Excitation energies and oscillator strengths:

 Excited State   1:      Singlet-A      1.7585 eV  705.05 nm  f=0.3866  <S**2>=0.000
     245 -> 248        0.16350
     246 -> 247        0.68557
     245 <- 248        0.10154
 This state for optimization and/or second-order correction.
 Total Energy, E(TD-HF/TD-DFT) =  -3007.80986478
 Copying the excited state density for this state as the 1-particle RhoCI density.

 Excited State   2:      Singlet-A      2.1692 eV  571.57 nm  f=0.1620  <S**2>=0.000
     245 -> 247        0.65866
     246 -> 248       -0.22638

 Excited State   3:      Singlet-A      3.4000 eV  364.66 nm  f=0.0082  <S**2>=0.000
     241 -> 247       -0.14027
     244 -> 247        0.66200
     244 -> 249       -0.12146

 Excited State   4:      Singlet-A      3.4447 eV  359.93 nm  f=0.0004  <S**2>=0.000
     239 -> 247       -0.10217
     239 -> 249       -0.10223
     240 -> 247        0.52493
     240 -> 248       -0.14901
     240 -> 249        0.34434
     244 -> 247       -0.10477

 Excited State   5:      Singlet-A      3.6183 eV  342.66 nm  f=0.0842  <S**2>=0.000
     239 -> 247        0.18685
     241 -> 247        0.22169
     242 -> 247        0.45929
     242 -> 249       -0.18070
     242 -> 251        0.20783
     246 -> 248        0.28954

 The electronic state is 1-A.
 Alpha  occ. eigenvalues --  -46.96028 -19.30167 -19.27907 -19.25458 -19.24241
 Alpha  occ. eigenvalues --  -19.24135 -19.22510 -14.47373 -14.45483 -14.45208
 Alpha  occ. eigenvalues --  -14.42918 -10.43841 -10.42615 -10.39618 -10.37175
 Alpha  occ. eigenvalues --  -10.36532 -10.36218 -10.35648 -10.35279 -10.35130
 Alpha  occ. eigenvalues --  -10.35013 -10.34252 -10.33175 -10.32966 -10.32730
 Alpha  occ. eigenvalues --  -10.32700 -10.32688 -10.32501 -10.32372 -10.32354
 Alpha  occ. eigenvalues --  -10.32094 -10.32071 -10.32040 -10.31995 -10.31427
 Alpha  occ. eigenvalues --  -10.31204 -10.30769 -10.30685 -10.30297 -10.30272
 Alpha  occ. eigenvalues --  -10.30146 -10.30078 -10.29835 -10.29634 -10.29574
 Alpha  occ. eigenvalues --  -10.29506 -10.29459 -10.29449 -10.29327 -10.29259
 Alpha  occ. eigenvalues --  -10.29062 -10.29034 -10.29009 -10.28957 -10.28887
 Alpha  occ. eigenvalues --  -10.28871 -10.28856 -10.28738 -10.28697 -10.28456
 Alpha  occ. eigenvalues --  -10.28419 -10.28282 -10.28247 -10.28015 -10.27839
 Alpha  occ. eigenvalues --  -10.26698  -3.22021  -1.95551  -1.95165  -1.94983
 Alpha  occ. eigenvalues --   -1.17690  -1.16357  -1.12378  -1.11618  -1.09749
 Alpha  occ. eigenvalues --   -1.07424  -1.07370  -1.06006  -1.05382  -1.04733
 Alpha  occ. eigenvalues --   -0.94894  -0.92887  -0.92126  -0.91953  -0.91585
 Alpha  occ. eigenvalues --   -0.91104  -0.90795  -0.89830  -0.89630  -0.88979
 Alpha  occ. eigenvalues --   -0.88108  -0.87464  -0.86357  -0.85271  -0.84889
 Alpha  occ. eigenvalues --   -0.84853  -0.84661  -0.83233  -0.82863  -0.81994
 Alpha  occ. eigenvalues --   -0.81732  -0.81276  -0.79450  -0.78557  -0.78257
 Alpha  occ. eigenvalues --   -0.77559  -0.77204  -0.76806  -0.76799  -0.76339
 Alpha  occ. eigenvalues --   -0.75046  -0.74570  -0.73095  -0.72603  -0.71293
 Alpha  occ. eigenvalues --   -0.70415  -0.70279  -0.69680  -0.68419  -0.67764
 Alpha  occ. eigenvalues --   -0.67337  -0.67239  -0.66704  -0.65715  -0.65549
 Alpha  occ. eigenvalues --   -0.65451  -0.65212  -0.64172  -0.63204  -0.62730
 Alpha  occ. eigenvalues --   -0.62125  -0.61356  -0.61135  -0.60392  -0.59989
 Alpha  occ. eigenvalues --   -0.59518  -0.58963  -0.58307  -0.57828  -0.57445
 Alpha  occ. eigenvalues --   -0.57288  -0.56578  -0.56375  -0.56040  -0.55802
 Alpha  occ. eigenvalues --   -0.55600  -0.55392  -0.55219  -0.54937  -0.54766
 Alpha  occ. eigenvalues --   -0.54644  -0.54487  -0.54103  -0.53889  -0.53751
 Alpha  occ. eigenvalues --   -0.53429  -0.53259  -0.53240  -0.53020  -0.52539
 Alpha  occ. eigenvalues --   -0.52433  -0.52388  -0.52096  -0.51947  -0.51653
 Alpha  occ. eigenvalues --   -0.51512  -0.51304  -0.51130  -0.50926  -0.50832
 Alpha  occ. eigenvalues --   -0.50522  -0.50334  -0.50170  -0.49971  -0.49875
 Alpha  occ. eigenvalues --   -0.49140  -0.49063  -0.48932  -0.48719  -0.48473
 Alpha  occ. eigenvalues --   -0.47987  -0.47820  -0.47716  -0.47404  -0.47337
 Alpha  occ. eigenvalues --   -0.47256  -0.46885  -0.46839  -0.46590  -0.46476
 Alpha  occ. eigenvalues --   -0.46460  -0.46391  -0.46320  -0.46199  -0.46057
 Alpha  occ. eigenvalues --   -0.45955  -0.45823  -0.45515  -0.45471  -0.45136
 Alpha  occ. eigenvalues --   -0.44769  -0.44494  -0.44431  -0.44059  -0.43910
 Alpha  occ. eigenvalues --   -0.43844  -0.43628  -0.43583  -0.43521  -0.43059
 Alpha  occ. eigenvalues --   -0.43019  -0.42607  -0.42346  -0.41967  -0.41827
 Alpha  occ. eigenvalues --   -0.41762  -0.41701  -0.41344  -0.40946  -0.40519
 Alpha  occ. eigenvalues --   -0.40107  -0.39883  -0.39708  -0.39661  -0.39549
 Alpha  occ. eigenvalues --   -0.39255  -0.39022  -0.38741  -0.38471  -0.38361
 Alpha  occ. eigenvalues --   -0.38002  -0.36802  -0.36573  -0.36315  -0.36276
 Alpha  occ. eigenvalues --   -0.36121  -0.35421  -0.35116  -0.34209  -0.33645
 Alpha  occ. eigenvalues --   -0.33157  -0.31779  -0.31724  -0.30790  -0.25847
 Alpha  occ. eigenvalues --   -0.23391
 Alpha virt. eigenvalues --   -0.07154   0.00692   0.01709   0.04115   0.04738
 Alpha virt. eigenvalues --    0.05913   0.07406   0.08009   0.08035   0.10263
 Alpha virt. eigenvalues --    0.11015   0.11725   0.12122   0.12418   0.12820

 Mulliken charges:
               1
     1  Mg   0.978512
     2  C   -0.121816
     3  C   -0.102106
     4  C   -0.070655
     5  C   -0.076730
     6  N   -0.330291
     7  C   -0.004606
     8  C   -0.095658
     9  C   -0.074706
    10  C    0.051853
    11  C    0.022926
    12  C    0.013687
    13  C    0.042244
    14  C    0.214799
    15  O   -0.260334
    16  O   -0.405880
    17  N   -0.487943
    18  C    0.185473
    19  C   -0.162553
    20  C   -0.040089
    21  C    0.167753
    22  C    0.073310
    23  C    0.010548
    24  O   -0.265493
    25  C   -0.003811
    26  N   -0.320072
    27  C    0.034421
    28  C   -0.104672
    29  C   -0.080880
    30  C    0.051455
    31  C    0.032444
    32  C    0.002535
    33  C   -0.016552
    34  N   -0.407418
    35  C    0.123292
    36  C   -0.163202
    37  C   -0.009054
    38  C    0.196319
    39  C    0.076867
    40  C    0.010789
    41  O   -0.192176
    42  C   -0.034401
    43  C    0.296038
    44  O   -0.246378
    45  O   -0.402150
    46  C    0.146647
    47  C    0.275993
    48  C   -0.156636
    49  C   -0.170066
    50  C    0.029184
    51  C    0.014628
    52  C   -0.050704
    53  C    0.049502
    54  C   -0.190669
    55  C    0.008423
    56  C    0.024021
    57  C   -0.032511
    58  C    0.014720
    59  C   -0.220484
    60  C   -0.008410
    61  C    0.004720
    62  C    0.005861
    63  C    0.019836
    64  C   -0.208064
    65  C   -0.018511
    66  C   -0.004981
    67  H   -0.001429
    68  H    0.024523
    69  H   -0.008581
    70  H    0.074007
    71  H    0.029605
    72  H    0.052993
    73  H    0.026388
    74  H    0.050090
    75  H    0.035722
    76  H    0.038252
    77  H    0.059287
    78  H    0.064169
    79  H    0.059880
    80  H    0.021695
    81  H    0.066132
    82  H    0.064243
    83  H    0.069073
    84  H    0.054448
    85  H    0.030843
    86  H    0.024173
    87  H    0.021488
    88  H    0.052484
    89  H    0.039282
    90  H    0.021252
    91  H    0.022893
    92  H    0.033208
    93  H    0.029269
    94  H    0.044776
    95  H    0.036916
    96  H    0.025029
    97  H    0.070084
    98  H    0.073492
    99  H    0.046724
   100  H    0.051987
   101  H    0.057165
   102  H    0.034624
   103  H    0.054973
   104  H    0.025912
   105  H    0.036406
   106  H    0.022700
   107  H    0.052469
   108  H    0.008307
   109  H    0.033881
   110  H    0.008566
   111  H    0.020683
   112  H    0.008758
   113  H    0.019339
   114  H    0.014825
   115  H    0.027987
   116  H    0.009556
   117  H    0.031476
   118  H    0.017730
   119  H    0.024258
   120  H    0.021924
   121  H    0.021857
   122  H    0.012166
   123  H    0.011056
   124  H    0.014327
   125  H    0.027937
   126  H    0.020010
   127  H    0.027748
   128  H    0.009703
   129  H    0.005071
   130  H    0.029752
   131  H    0.019623
   132  H    0.019538
   133  H    0.022427
   134  H    0.026412
   135  H    0.023688
   136  H    0.036167
   137  H    0.025446
   138  H    0.015575
   139  H    0.033652
   140  H    0.023773
 Sum of Mulliken charges =  -0.00000

 Dipole moment (field-independent basis, Debye):
    X=              5.1308    Y=              4.2251    Z=             -3.1801  Tot=              7.3682
 Quadrupole moment (field-independent basis, Debye-Ang):
   XX=           -406.7947   YY=           -417.4361   ZZ=           -403.4998
   XY=            -33.2283   XZ=             12.9470   YZ=             11.7726

 Normal termination of Gaussian 16 at Fri Apr 29 21:05:46 2022.
