 Gaussian 16, Revision A.03,
 Gaussian 16:  ES64L-G16RevA.03 25-Dec-2016

 --------------------
 #p ZINDO=(nstates=5)
 --------------------

 ----------------------------
 step_451_chromophore_6 ZINDO
 ----------------------------
 Symbolic Z-matrix:
 Charge =  0 Multiplicity = 1

                         Standard orientation:
 ---------------------------------------------------------------------
 Center     Atomic      Atomic             Coordinates (Angstroms)
 Number     Number       Type             X           Y           Z
 ---------------------------------------------------------------------
      1         12           0       -5.477986    1.110776   -0.481374
      2          6           0       -4.832772   -2.338631   -0.041406
      3          6           0       -2.205347    1.756169   -0.388072
      4          6           0       -6.313351    4.360687   -0.300100
      5          6           0       -8.878488    0.403955    0.451583
      6          7           0       -3.694768   -0.157442   -0.102865
      7          6           0       -3.633381   -1.531331   -0.145620
      8          6           0       -2.139186   -2.056796   -0.255979
      9          6           0       -1.333083   -0.728108   -0.076600
     10          6           0       -2.469948    0.377356   -0.177810
     11          6           0       -0.491429   -0.675784    1.194127
     12          6           0       -1.839109   -2.881623   -1.632995
     13          6           0       -1.009951   -4.122549   -1.515733
     14          6           0        0.092242   -4.188516   -0.478391
     15          8           0       -0.125459   -4.500757    0.682361
     16          8           0        1.443196   -3.939065   -0.886125
     17          7           0       -4.425052    2.779285   -0.616241
     18          6           0       -3.071105    2.865533   -0.575831
     19          6           0       -2.627552    4.248677   -0.637923
     20          6           0       -3.801868    5.025581   -0.743507
     21          6           0       -4.948323    4.008274   -0.501380
     22          6           0       -1.230561    4.635873   -0.479948
     23          6           0       -3.976305    6.485588   -0.899458
     24          8           0       -5.102295    7.003815   -1.077038
     25          6           0       -2.854532    7.463718   -0.873523
     26          7           0       -7.288916    2.242095    0.385898
     27          6           0       -7.388324    3.555253    0.096304
     28          6           0       -8.799560    4.056678    0.465660
     29          6           0       -9.606560    2.792793    0.374558
     30          6           0       -8.552334    1.691072    0.420433
     31          6           0       -8.769356    4.733185    1.898806
     32          6           0      -10.426963    2.776873   -0.956003
     33          6           0      -11.858740    3.184808   -0.728305
     34          7           0       -6.610755   -0.566230    0.123810
     35          6           0       -7.987476   -0.754502    0.378063
     36          6           0       -8.309218   -2.104458    0.588310
     37          6           0       -7.032793   -2.728765    0.389906
     38          6           0       -6.118522   -1.784642    0.134052
     39          6           0       -9.666320   -2.726526    0.843501
     40          6           0       -6.461468   -3.986891    0.295610
     41          8           0       -6.974292   -5.028207    0.590089
     42          6           0       -4.912524   -3.830582   -0.006552
     43          6           0       -4.182042   -4.304534    1.206382
     44          8           0       -3.916762   -3.714798    2.238619
     45          8           0       -3.710185   -5.642854    1.095019
     46          6           0       -3.153662   -6.160629    2.369336
     47          6           0        2.419354   -4.068740    0.196882
     48          6           0        3.657018   -3.515738   -0.405859
     49          6           0        4.902137   -4.075914   -0.427353
     50          6           0        5.375011   -5.368026    0.237507
     51          6           0        5.867425   -3.576336   -1.466102
     52          6           0        7.201872   -2.868822   -1.016561
     53          6           0        8.043067   -2.149099   -2.075750
     54          6           0        9.021503   -1.142069   -1.457196
     55          6           0        9.081969    0.156947   -2.212279
     56          6           0       10.379043   -1.752804   -1.272427
     57          6           0       11.020723   -1.298223    0.060220
     58          6           0       12.533414   -1.067941   -0.089129
     59          6           0       12.949897    0.382416   -0.398578
     60          6           0       14.081431    0.373874   -1.467586
     61          6           0       13.398886    1.188895    0.826647
     62          6           0       13.376744    2.714757    0.725094
     63          6           0       14.755120    3.329667    1.074013
     64          6           0       14.647329    4.604175    1.935764
     65          6           0       15.085927    4.275332    3.384157
     66          6           0       15.507000    5.769836    1.389933
     67          1           0       -1.138456    1.987227   -0.426423
     68          1           0       -6.550441    5.424605   -0.362569
     69          1           0       -9.961332    0.284586    0.526500
     70          1           0       -2.030214   -2.683142    0.629005
     71          1           0       -0.721037   -0.623867   -0.973116
     72          1           0       -1.059499   -1.222422    1.947491
     73          1           0       -0.396559    0.349950    1.549019
     74          1           0        0.513038   -1.101125    1.198543
     75          1           0       -1.328978   -2.268506   -2.375700
     76          1           0       -2.804729   -3.162713   -2.052679
     77          1           0       -0.578160   -4.387211   -2.480975
     78          1           0       -1.774659   -4.817726   -1.168610
     79          1           0       -0.714377    4.058895    0.286709
     80          1           0       -1.235057    5.658154   -0.101463
     81          1           0       -0.681356    4.666938   -1.420592
     82          1           0       -2.575541    7.465471    0.180183
     83          1           0       -3.329776    8.399342   -1.170197
     84          1           0       -1.960581    7.163680   -1.420464
     85          1           0       -9.064432    4.838513   -0.246007
     86          1           0      -10.236460    2.820434    1.262744
     87          1           0       -9.375371    4.160208    2.600524
     88          1           0       -9.082325    5.777189    1.925323
     89          1           0       -7.809584    4.594231    2.397499
     90          1           0      -10.252078    1.793117   -1.390953
     91          1           0       -9.929614    3.436497   -1.668251
     92          1           0      -11.951490    4.269227   -0.678569
     93          1           0      -12.212509    2.846958    0.246118
     94          1           0      -12.443159    2.746258   -1.537298
     95          1           0      -10.344068   -2.816512   -0.005407
     96          1           0      -10.333867   -2.112689    1.447732
     97          1           0       -9.351427   -3.700885    1.217526
     98          1           0       -4.626027   -4.284742   -0.955250
     99          1           0       -2.974849   -7.236104    2.334969
    100          1           0       -3.832811   -5.953933    3.196098
    101          1           0       -2.198125   -5.667724    2.547312
    102          1           0        2.649502   -5.090526    0.497347
    103          1           0        2.164515   -3.463838    1.067438
    104          1           0        3.383290   -2.706891   -1.083263
    105          1           0        5.689104   -6.091422   -0.513959
    106          1           0        4.595637   -5.918400    0.764555
    107          1           0        6.204074   -5.226291    0.931329
    108          1           0        5.340228   -2.797052   -2.016902
    109          1           0        5.947686   -4.445119   -2.119144
    110          1           0        7.784426   -3.721457   -0.667682
    111          1           0        7.028249   -2.257298   -0.130964
    112          1           0        7.394978   -1.606747   -2.763366
    113          1           0        8.557780   -2.972378   -2.572056
    114          1           0        8.603492   -0.827356   -0.501231
    115          1           0        9.298743    0.059106   -3.275650
    116          1           0        9.922379    0.675753   -1.749980
    117          1           0        8.222323    0.818523   -2.114706
    118          1           0       10.882313   -1.418285   -2.179550
    119          1           0       10.396595   -2.842584   -1.227371
    120          1           0       10.930106   -2.068096    0.825466
    121          1           0       10.565156   -0.389339    0.453981
    122          1           0       12.861720   -1.707224   -0.908631
    123          1           0       12.981378   -1.396133    0.848668
    124          1           0       12.188028    0.943600   -0.939864
    125          1           0       13.727526   -0.282738   -2.261446
    126          1           0       14.942455   -0.073355   -0.970078
    127          1           0       14.278339    1.391316   -1.805197
    128          1           0       14.344915    0.748936    1.140735
    129          1           0       12.668471    0.754195    1.509783
    130          1           0       12.449425    2.979784    1.232465
    131          1           0       13.213262    3.025508   -0.306232
    132          1           0       15.237328    3.589988    0.131448
    133          1           0       15.382344    2.631849    1.627594
    134          1           0       13.624071    4.980937    1.924950
    135          1           0       14.502942    3.453881    3.799519
    136          1           0       15.025435    5.180050    3.990426
    137          1           0       16.087056    3.847629    3.430374
    138          1           0       16.236236    5.368760    0.687386
    139          1           0       15.994186    6.353703    2.171045
    140          1           0       14.909082    6.382156    0.715491
 ---------------------------------------------------------------------

 SCF Done:  E(RZINDO/S) =  -474.540187189     A.U. after   18 cycles

 Excitation energies and oscillator strengths:

 Excited State   1:      Singlet-A      1.3884 eV  893.03 nm  f=0.5114  <S**2>=0.000
     175 ->178         0.13439
     176 ->177         0.67626
 This state for optimization and/or second-order correction.
 Total Energy, E(CIS/TDA) =  -474.489165902
 Copying the excited state density for this state as the 1-particle RhoCI density.

 Excited State   2:      Singlet-A      1.8982 eV  653.16 nm  f=0.1282  <S**2>=0.000
     175 ->177         0.59945
     176 ->178        -0.31556

 Excited State   3:      Singlet-A      2.7887 eV  444.60 nm  f=0.0003  <S**2>=0.000
     167 ->179         0.11130
     168 ->177         0.35928
     168 ->179        -0.45212
     168 ->182         0.10774
     168 ->185        -0.17454
     168 ->186        -0.14653

 Excited State   4:      Singlet-A      2.9386 eV  421.92 nm  f=0.0354  <S**2>=0.000
     171 ->177         0.28612
     171 ->178        -0.20107
     171 ->179         0.17296
     171 ->181        -0.18334
     171 ->182         0.35106
     171 ->186         0.21039
     171 ->188         0.16917
     174 ->177        -0.10351
     176 ->178         0.13692

 Excited State   5:      Singlet-A      2.9917 eV  414.43 nm  f=0.6496  <S**2>=0.000
     169 ->177         0.10903
     175 ->177         0.28529
     176 ->178         0.55909
     176 ->179        -0.10811
     176 ->182        -0.12576

 The electronic state is 1-A.
 Alpha  occ. eigenvalues --   -1.85052  -1.83206  -1.80106  -1.72706  -1.70684
 Alpha  occ. eigenvalues --   -1.70147  -1.67946  -1.62052  -1.60400  -1.59393
 Alpha  occ. eigenvalues --   -1.56160  -1.53738  -1.49506  -1.48232  -1.47631
 Alpha  occ. eigenvalues --   -1.43000  -1.42300  -1.40068  -1.39336  -1.37773
 Alpha  occ. eigenvalues --   -1.35813  -1.33543  -1.32479  -1.30980  -1.28996
 Alpha  occ. eigenvalues --   -1.27718  -1.24291  -1.22184  -1.20829  -1.18269
 Alpha  occ. eigenvalues --   -1.16301  -1.15929  -1.15694  -1.14447  -1.14125
 Alpha  occ. eigenvalues --   -1.12473  -1.11336  -1.10383  -1.04993  -1.03323
 Alpha  occ. eigenvalues --   -1.02469  -1.01337  -0.99060  -0.96945  -0.96804
 Alpha  occ. eigenvalues --   -0.95698  -0.94981  -0.94452  -0.93130  -0.91851
 Alpha  occ. eigenvalues --   -0.90634  -0.89435  -0.88598  -0.87877  -0.87767
 Alpha  occ. eigenvalues --   -0.85945  -0.85411  -0.83173  -0.82268  -0.79942
 Alpha  occ. eigenvalues --   -0.79678  -0.78485  -0.76632  -0.76520  -0.76238
 Alpha  occ. eigenvalues --   -0.75777  -0.75171  -0.74715  -0.74195  -0.73485
 Alpha  occ. eigenvalues --   -0.72972  -0.72691  -0.72106  -0.71710  -0.70906
 Alpha  occ. eigenvalues --   -0.70258  -0.69360  -0.69262  -0.68725  -0.67810
 Alpha  occ. eigenvalues --   -0.67658  -0.67534  -0.67364  -0.66328  -0.65397
 Alpha  occ. eigenvalues --   -0.64812  -0.64533  -0.64171  -0.63962  -0.63511
 Alpha  occ. eigenvalues --   -0.63361  -0.63176  -0.62129  -0.61841  -0.61514
 Alpha  occ. eigenvalues --   -0.61424  -0.60236  -0.59937  -0.59653  -0.59439
 Alpha  occ. eigenvalues --   -0.58935  -0.58624  -0.58230  -0.58118  -0.58047
 Alpha  occ. eigenvalues --   -0.57650  -0.57279  -0.57085  -0.56456  -0.56233
 Alpha  occ. eigenvalues --   -0.56022  -0.55894  -0.55692  -0.55114  -0.54450
 Alpha  occ. eigenvalues --   -0.54023  -0.53772  -0.52935  -0.52819  -0.52432
 Alpha  occ. eigenvalues --   -0.52097  -0.51936  -0.51655  -0.51550  -0.51340
 Alpha  occ. eigenvalues --   -0.51215  -0.50854  -0.50534  -0.50303  -0.50226
 Alpha  occ. eigenvalues --   -0.49926  -0.49707  -0.48977  -0.48726  -0.48521
 Alpha  occ. eigenvalues --   -0.48410  -0.48360  -0.48062  -0.47719  -0.47249
 Alpha  occ. eigenvalues --   -0.47090  -0.46524  -0.46454  -0.46238  -0.46183
 Alpha  occ. eigenvalues --   -0.46136  -0.46020  -0.45731  -0.45620  -0.45487
 Alpha  occ. eigenvalues --   -0.44887  -0.44737  -0.44312  -0.44137  -0.44047
 Alpha  occ. eigenvalues --   -0.43614  -0.43137  -0.42708  -0.42099  -0.42093
 Alpha  occ. eigenvalues --   -0.41890  -0.41324  -0.40547  -0.38874  -0.38416
 Alpha  occ. eigenvalues --   -0.37252  -0.36781  -0.36326  -0.34782  -0.33963
 Alpha  occ. eigenvalues --   -0.32500  -0.32169  -0.31999  -0.30507  -0.26210
 Alpha  occ. eigenvalues --   -0.22170
 Alpha virt. eigenvalues --   -0.08323  -0.01455  -0.01264   0.00834   0.01608
 Alpha virt. eigenvalues --    0.01755   0.03573   0.03883   0.04238   0.05111
 Alpha virt. eigenvalues --    0.05726   0.06905   0.07284   0.07662   0.07937

 Mulliken charges:
               1
     1  Mg   0.437969
     2  C   -0.019061
     3  C   -0.094061
     4  C   -0.100031
     5  C   -0.070965
     6  N   -0.256829
     7  C    0.055743
     8  C   -0.007573
     9  C    0.015455
    10  C    0.171391
    11  C   -0.045444
    12  C   -0.016465
    13  C    0.015690
    14  C    0.454701
    15  O   -0.505579
    16  O   -0.280029
    17  N   -0.312625
    18  C    0.144566
    19  C    0.052284
    20  C   -0.042111
    21  C    0.179837
    22  C   -0.035259
    23  C    0.330515
    24  O   -0.535241
    25  C   -0.029237
    26  N   -0.308708
    27  C    0.203194
    28  C    0.010817
    29  C    0.000001
    30  C    0.094932
    31  C   -0.056560
    32  C   -0.029214
    33  C   -0.051200
    34  N   -0.328905
    35  C    0.053849
    36  C   -0.018651
    37  C   -0.057131
    38  C    0.119336
    39  C   -0.046657
    40  C    0.327172
    41  O   -0.537382
    42  C    0.059061
    43  C    0.488983
    44  O   -0.514815
    45  O   -0.288837
    46  C    0.077910
    47  C    0.109325
    48  C   -0.088278
    49  C   -0.012477
    50  C   -0.041163
    51  C   -0.028389
    52  C   -0.035564
    53  C   -0.031234
    54  C   -0.003608
    55  C   -0.054083
    56  C   -0.027408
    57  C   -0.038475
    58  C   -0.034478
    59  C   -0.018975
    60  C   -0.066439
    61  C   -0.039978
    62  C   -0.033235
    63  C   -0.027684
    64  C   -0.012939
    65  C   -0.055726
    66  C   -0.062195
    67  H    0.018836
    68  H    0.045208
    69  H    0.020391
    70  H    0.057302
    71  H    0.023023
    72  H    0.030903
    73  H    0.013307
    74  H    0.029541
    75  H    0.019745
    76  H    0.024111
    77  H    0.035820
    78  H    0.047164
    79  H    0.037216
    80  H    0.019443
    81  H    0.041994
    82  H    0.040193
    83  H    0.051007
    84  H    0.035847
    85  H    0.026840
    86  H    0.032520
    87  H    0.018869
    88  H    0.029018
    89  H    0.023634
    90  H    0.024009
    91  H    0.016299
    92  H    0.020317
    93  H    0.020103
    94  H    0.020323
    95  H    0.025224
    96  H    0.024251
    97  H    0.041922
    98  H    0.060863
    99  H    0.027641
   100  H    0.046970
   101  H    0.043419
   102  H    0.051544
   103  H    0.051430
   104  H    0.030930
   105  H    0.024738
   106  H    0.017413
   107  H    0.030216
   108  H    0.007406
   109  H    0.032817
   110  H    0.008374
   111  H    0.024130
   112  H    0.017277
   113  H    0.021818
   114  H    0.015985
   115  H    0.017819
   116  H    0.009267
   117  H    0.015535
   118  H    0.024077
   119  H    0.018804
   120  H    0.015504
   121  H    0.020720
   122  H    0.017882
   123  H    0.016317
   124  H    0.016443
   125  H    0.016024
   126  H    0.018049
   127  H    0.020172
   128  H    0.019974
   129  H    0.009915
   130  H    0.029150
   131  H    0.014671
   132  H    0.020622
   133  H    0.025318
   134  H    0.020847
   135  H    0.012644
   136  H    0.017935
   137  H    0.018749
   138  H    0.015061
   139  H    0.025774
   140  H    0.013538
 Sum of Mulliken charges =  -0.00000

 Dipole moment (field-independent basis, Debye):
    X=              9.7628    Y=              7.5076    Z=             -5.9136  Tot=             13.6619
 N-N= 4.224589931141D+03 E-N= 0.000000000000D+00  KE=-9.124337488887D+03
 Leave Link  601 at Fri Apr 29 21:17:12 2022, MaxMem=  6710886400 cpu:               0.8 elap:               0.1
 (Enter /sw/apps/gaussian-16.0/g16/l9999.exe)
 1\1\GINC-BP1-COMPUTE161\SP\RZINDO CIS\STO-3G\C55H74Mg1N4O6\OF15641\29-
 Apr-2022\0\\#p ZINDO=(nstates=5)\\step_451_chromophore_6 ZINDO\\0,1\Mg
 ,0,16.841,-2.124,28.153\C,0,15.944,0.031,30.81\C,0,19.035,-3.68,30.128
 \C,0,17.971,-3.651,25.381\C,0,15.258,0.237,25.95\N,0,17.529,-1.761,30.
 233\C,0,16.911,-0.982,31.184\C,0,17.435,-1.303,32.648\C,0,18.614,-2.28
 5,32.343\C,0,18.407,-2.598,30.799\C,0,19.99,-1.742,32.714\C,0,16.276,-
 1.882,33.642\C,0,16.26,-1.36,35.045\C,0,17.567,-1.007,35.725\O,0,18.10

 Normal termination of Gaussian 16 at Fri Apr 29 21:17:12 2022.
