 Gaussian 16, Revision A.03,
 Gaussian 16:  ES64L-G16RevA.03 25-Dec-2016

 ------------------------------
 #p blyp/Def2SVP td=(nstates=5)
 ------------------------------

 --------------------------------------------------
 step_1351_chromophore_9 TDDFT with blyp functional
 --------------------------------------------------
 Symbolic Z-matrix:
 Charge =  0 Multiplicity = 1

                         Standard orientation:
 ---------------------------------------------------------------------
 Center     Atomic      Atomic             Coordinates (Angstroms)
 Number     Number       Type             X           Y           Z
 ---------------------------------------------------------------------
      1         12           0       -4.822853    0.743022   -0.189321
      2          6           0       -3.531103   -2.490152   -0.020186
      3          6           0       -1.629743    1.964335   -0.608434
      4          6           0       -6.049001    3.857317    0.265992
      5          6           0       -8.015318   -0.471761    0.649722
      6          7           0       -2.784916   -0.195048   -0.405396
      7          6           0       -2.545016   -1.553208   -0.319643
      8          6           0       -1.054526   -1.864013   -0.450172
      9          6           0       -0.434900   -0.389324   -0.413056
     10          6           0       -1.662702    0.551537   -0.450081
     11          6           0        0.542419   -0.011036    0.717848
     12          6           0       -0.829366   -2.659065   -1.711355
     13          6           0        0.092851   -3.881525   -1.517518
     14          6           0        1.263637   -3.691842   -0.464791
     15          8           0        1.333039   -4.178209    0.663877
     16          8           0        2.234833   -2.949231   -1.090688
     17          7           0       -4.014554    2.661950   -0.259928
     18          6           0       -2.659956    2.921536   -0.435944
     19          6           0       -2.452741    4.342740   -0.276050
     20          6           0       -3.762184    4.957036   -0.144551
     21          6           0       -4.724158    3.806360   -0.037359
     22          6           0       -1.084549    5.005270   -0.218543
     23          6           0       -4.179070    6.465205   -0.078319
     24          8           0       -5.371557    6.817282    0.033584
     25          6           0       -3.126207    7.572264   -0.271782
     26          7           0       -6.929322    1.554075   -0.023875
     27          6           0       -7.093626    2.893498    0.163780
     28          6           0       -8.633315    3.214469    0.323415
     29          6           0       -9.245209    1.762859    0.516006
     30          6           0       -8.086609    0.879793    0.231920
     31          6           0       -8.939583    4.127508    1.526985
     32          6           0      -10.569611    1.413725   -0.300952
     33          6           0      -10.221422    0.770353   -1.631984
     34          7           0       -5.650061   -1.111891    0.253823
     35          6           0       -6.967370   -1.415579    0.604646
     36          6           0       -7.015535   -2.897110    0.656681
     37          6           0       -5.689392   -3.357832    0.439340
     38          6           0       -4.921443   -2.191047    0.185628
     39          6           0       -8.323213   -3.676655    0.865164
     40          6           0       -4.883213   -4.485900    0.229114
     41          8           0       -5.166884   -5.683334    0.286834
     42          6           0       -3.399884   -3.992368    0.076816
     43          6           0       -2.615468   -4.414315    1.278016
     44          8           0       -2.253635   -3.749010    2.257476
     45          8           0       -2.131484   -5.661060    0.969278
     46          6           0       -1.137793   -6.358027    1.775321
     47          6           0        3.333101   -2.659275   -0.255519
     48          6           0        4.535715   -2.180386   -1.069169
     49          6           0        5.465415   -2.906921   -1.798148
     50          6           0        5.493055   -4.356841   -1.712125
     51          6           0        6.412782   -2.213820   -2.720312
     52          6           0        7.583448   -1.429175   -2.108184
     53          6           0        8.424805   -0.825583   -3.256996
     54          6           0        8.234973    0.731226   -3.411741
     55          6           0        8.214600    1.111220   -4.922312
     56          6           0        9.396474    1.515358   -2.820148
     57          6           0        8.851437    2.388108   -1.649685
     58          6           0       10.125848    3.180897   -1.063416
     59          6           0       10.461677    2.912848    0.546214
     60          6           0       11.547406    3.928606    0.988198
     61          6           0       10.840146    1.438032    0.807064
     62          6           0        9.946906    0.719999    1.915909
     63          6           0       10.765433    0.394893    3.164035
     64          6           0       10.244771    0.999557    4.539558
     65          6           0       11.353108    0.671419    5.555912
     66          6           0        8.832910    0.525958    4.847033
     67          1           0       -0.579368    2.218785   -0.763464
     68          1           0       -6.574354    4.813830    0.316359
     69          1           0       -8.881849   -1.104512    0.851941
     70          1           0       -0.589013   -2.335659    0.415200
     71          1           0        0.185999   -0.337379   -1.307747
     72          1           0        0.401637   -0.628631    1.605709
     73          1           0        0.347903    1.020798    1.012228
     74          1           0        1.569001    0.087933    0.365499
     75          1           0       -0.403977   -2.037500   -2.499372
     76          1           0       -1.778710   -3.010997   -2.113586
     77          1           0        0.589811   -4.161764   -2.446666
     78          1           0       -0.538081   -4.660598   -1.090440
     79          1           0       -1.111964    5.873605    0.439555
     80          1           0       -0.735747    5.372682   -1.183451
     81          1           0       -0.290284    4.338047    0.117525
     82          1           0       -2.720416    7.927041    0.675220
     83          1           0       -3.675390    8.409812   -0.701669
     84          1           0       -2.402994    7.335965   -1.052034
     85          1           0       -8.993899    3.650815   -0.608844
     86          1           0       -9.433336    1.576357    1.572924
     87          1           0       -9.634979    3.673362    2.233236
     88          1           0       -9.429278    5.042221    1.192694
     89          1           0       -8.067307    4.344340    2.144286
     90          1           0      -11.196182    2.293996   -0.448683
     91          1           0      -11.191106    0.674627    0.204183
     92          1           0       -9.341458    1.179306   -2.128481
     93          1           0      -10.915202    1.035250   -2.430729
     94          1           0      -10.310373   -0.304432   -1.472523
     95          1           0       -9.133008   -3.209374    0.305096
     96          1           0       -8.566604   -3.542119    1.918907
     97          1           0       -8.227413   -4.733347    0.617508
     98          1           0       -3.003378   -4.490172   -0.808686
     99          1           0       -1.528004   -7.374115    1.815825
    100          1           0       -0.988759   -5.942622    2.771611
    101          1           0       -0.149636   -6.383505    1.314043
    102          1           0        3.720941   -3.367092    0.476384
    103          1           0        3.035219   -1.827362    0.383084
    104          1           0        4.651825   -1.096057   -1.074357
    105          1           0        4.903735   -4.834013   -0.929297
    106          1           0        6.530307   -4.638812   -1.527728
    107          1           0        5.153417   -4.813142   -2.641754
    108          1           0        5.901547   -1.675816   -3.518825
    109          1           0        6.921513   -3.011241   -3.260173
    110          1           0        8.150933   -2.129249   -1.495997
    111          1           0        7.213900   -0.536306   -1.604487
    112          1           0        8.205243   -1.219679   -4.249318
    113          1           0        9.450868   -1.174537   -3.137075
    114          1           0        7.355639    1.106104   -2.888508
    115          1           0        7.386277    0.563319   -5.371128
    116          1           0        9.175411    0.859342   -5.372594
    117          1           0        8.011556    2.179773   -4.994831
    118          1           0       10.075166    1.999452   -3.520909
    119          1           0       10.049442    0.712029   -2.478826
    120          1           0        8.409078    1.783118   -0.857625
    121          1           0        8.215164    3.189040   -2.025132
    122          1           0        9.895534    4.240343   -1.183626
    123          1           0       11.057316    2.950859   -1.580959
    124          1           0        9.551941    3.067418    1.126988
    125          1           0       12.154529    4.310855    0.167123
    126          1           0       12.229168    3.441888    1.686435
    127          1           0       11.006123    4.726908    1.496159
    128          1           0       11.914238    1.368579    0.977792
    129          1           0       10.688158    1.029092   -0.191770
    130          1           0        9.594514   -0.247133    1.557761
    131          1           0        9.143960    1.406487    2.184468
    132          1           0       11.773324    0.771654    2.988681
    133          1           0       10.918756   -0.683849    3.193310
    134          1           0       10.223320    2.088361    4.585963
    135          1           0       11.856225    1.624050    5.721861
    136          1           0       12.044122   -0.105337    5.229174
    137          1           0       10.830446    0.323149    6.446253
    138          1           0        8.172975    1.284670    5.267139
    139          1           0        8.839635   -0.288459    5.572450
    140          1           0        8.379811    0.051185    3.976247
 ---------------------------------------------------------------------

 SCF Done:  E(RB-LYP) =  -3007.37558292     A.U. after   21 cycles

 Excitation energies and oscillator strengths:

 Excited State   1:      Singlet-A      1.7684 eV  701.12 nm  f=0.2609  <S**2>=0.000
     244 -> 247       -0.13487
     245 -> 248       -0.17910
     246 -> 247        0.66939
     246 <- 247       -0.14017
 This state for optimization and/or second-order correction.
 Total Energy, E(TD-HF/TD-DFT) =  -3007.31059643
 Copying the excited state density for this state as the 1-particle RhoCI density.

 Excited State   2:      Singlet-A      1.8270 eV  678.61 nm  f=0.0306  <S**2>=0.000
     244 -> 247        0.63409
     245 -> 247       -0.26322
     246 -> 247        0.14914

 Excited State   3:      Singlet-A      1.9813 eV  625.76 nm  f=0.0494  <S**2>=0.000
     243 -> 247       -0.34117
     244 -> 247        0.25201
     245 -> 247        0.51744
     246 -> 248        0.18640
     246 -> 249        0.10333

 Excited State   4:      Singlet-A      2.0594 eV  602.04 nm  f=0.0167  <S**2>=0.000
     243 -> 247        0.61529
     244 -> 247        0.10930
     245 -> 247        0.28245
     246 -> 248        0.13921

 Excited State   5:      Singlet-A      2.2907 eV  541.24 nm  f=0.0001  <S**2>=0.000
     242 -> 247        0.70705

 The electronic state is 1-A.
 Alpha  occ. eigenvalues --  -46.27692 -18.83497 -18.80809 -18.78283 -18.76061
 Alpha  occ. eigenvalues --  -18.75950 -18.74878 -14.03164 -14.02976 -14.01377
 Alpha  occ. eigenvalues --  -14.00756 -10.05005 -10.03466 -10.00661  -9.98808
 Alpha  occ. eigenvalues --   -9.97626  -9.96735  -9.96638  -9.96434  -9.96325
 Alpha  occ. eigenvalues --   -9.96285  -9.96262  -9.95960  -9.95582  -9.94419
 Alpha  occ. eigenvalues --   -9.94378  -9.94322  -9.94149  -9.93946  -9.93750
 Alpha  occ. eigenvalues --   -9.93730  -9.93555  -9.93551  -9.93505  -9.93360
 Alpha  occ. eigenvalues --   -9.93310  -9.93305  -9.93215  -9.93177  -9.93082
 Alpha  occ. eigenvalues --   -9.92816  -9.92454  -9.92395  -9.92235  -9.92229
 Alpha  occ. eigenvalues --   -9.92201  -9.92194  -9.92122  -9.91963  -9.91959
 Alpha  occ. eigenvalues --   -9.91911  -9.91846  -9.91807  -9.91749  -9.91536
 Alpha  occ. eigenvalues --   -9.91516  -9.91491  -9.91270  -9.91260  -9.90923
 Alpha  occ. eigenvalues --   -9.90820  -9.90803  -9.90717  -9.90688  -9.90675
 Alpha  occ. eigenvalues --   -9.90540  -2.92125  -1.72573  -1.72008  -1.71828
 Alpha  occ. eigenvalues --   -0.99445  -0.96186  -0.91177  -0.90388  -0.90227
 Alpha  occ. eigenvalues --   -0.88371  -0.86416  -0.85591  -0.85398  -0.84513
 Alpha  occ. eigenvalues --   -0.75386  -0.74237  -0.73164  -0.72689  -0.72204
 Alpha  occ. eigenvalues --   -0.72055  -0.71450  -0.70504  -0.70305  -0.69955
 Alpha  occ. eigenvalues --   -0.69197  -0.69097  -0.68185  -0.67472  -0.67241
 Alpha  occ. eigenvalues --   -0.66285  -0.65770  -0.65158  -0.65020  -0.64369
 Alpha  occ. eigenvalues --   -0.64292  -0.62411  -0.62211  -0.61655  -0.60693
 Alpha  occ. eigenvalues --   -0.60514  -0.60358  -0.59678  -0.59028  -0.58521
 Alpha  occ. eigenvalues --   -0.57983  -0.57603  -0.56640  -0.55347  -0.54894
 Alpha  occ. eigenvalues --   -0.53857  -0.53391  -0.52563  -0.52356  -0.51618
 Alpha  occ. eigenvalues --   -0.51354  -0.50960  -0.50813  -0.50707  -0.50619
 Alpha  occ. eigenvalues --   -0.50400  -0.49140  -0.48218  -0.47938  -0.46463
 Alpha  occ. eigenvalues --   -0.46305  -0.46059  -0.46015  -0.44906  -0.44154
 Alpha  occ. eigenvalues --   -0.43805  -0.43682  -0.42966  -0.42722  -0.42665
 Alpha  occ. eigenvalues --   -0.42341  -0.41974  -0.41778  -0.41411  -0.41242
 Alpha  occ. eigenvalues --   -0.40921  -0.40647  -0.40382  -0.39994  -0.39801
 Alpha  occ. eigenvalues --   -0.39692  -0.39597  -0.39490  -0.39322  -0.39106
 Alpha  occ. eigenvalues --   -0.38968  -0.38742  -0.38513  -0.38000  -0.37925
 Alpha  occ. eigenvalues --   -0.37686  -0.37637  -0.37386  -0.37303  -0.37131
 Alpha  occ. eigenvalues --   -0.36987  -0.36820  -0.36435  -0.36301  -0.36239
 Alpha  occ. eigenvalues --   -0.36063  -0.35766  -0.35594  -0.35426  -0.35361
 Alpha  occ. eigenvalues --   -0.35181  -0.35043  -0.34850  -0.34796  -0.34716
 Alpha  occ. eigenvalues --   -0.34546  -0.34505  -0.34353  -0.33998  -0.33915
 Alpha  occ. eigenvalues --   -0.33809  -0.33682  -0.33589  -0.33138  -0.33008
 Alpha  occ. eigenvalues --   -0.32910  -0.32656  -0.32265  -0.32189  -0.32003
 Alpha  occ. eigenvalues --   -0.31856  -0.31701  -0.31558  -0.31453  -0.31377
 Alpha  occ. eigenvalues --   -0.31314  -0.31030  -0.30817  -0.30699  -0.30572
 Alpha  occ. eigenvalues --   -0.30536  -0.30334  -0.30036  -0.29977  -0.29785
 Alpha  occ. eigenvalues --   -0.29772  -0.29393  -0.29340  -0.28925  -0.28835
 Alpha  occ. eigenvalues --   -0.28520  -0.28450  -0.28258  -0.28107  -0.27810
 Alpha  occ. eigenvalues --   -0.27727  -0.27665  -0.27598  -0.27052  -0.26534
 Alpha  occ. eigenvalues --   -0.26245  -0.25730  -0.25637  -0.25416  -0.25382
 Alpha  occ. eigenvalues --   -0.25285  -0.24195  -0.23864  -0.23736  -0.23036
 Alpha  occ. eigenvalues --   -0.22928  -0.22710  -0.21946  -0.21215  -0.20598
 Alpha  occ. eigenvalues --   -0.20381  -0.19935  -0.18901  -0.18178  -0.17200
 Alpha  occ. eigenvalues --   -0.15766
 Alpha virt. eigenvalues --   -0.11518  -0.07369  -0.06212  -0.05081  -0.03906
 Alpha virt. eigenvalues --   -0.03332  -0.02472  -0.01727  -0.00764  -0.00184
 Alpha virt. eigenvalues --    0.00770   0.01489   0.02159   0.02258   0.02540

 Mulliken charges:
               1
     1  Mg   0.679593
     2  C    0.064109
     3  C   -0.061828
     4  C   -0.019230
     5  C   -0.010251
     6  N   -0.200880
     7  C   -0.086107
     8  C   -0.029300
     9  C   -0.018543
    10  C   -0.010169
    11  C    0.125514
    12  C    0.150295
    13  C    0.137476
    14  C    0.069636
    15  O   -0.191098
    16  O   -0.239357
    17  N   -0.306261
    18  C    0.196043
    19  C   -0.139948
    20  C    0.016235
    21  C    0.140302
    22  C    0.159040
    23  C   -0.046966
    24  O   -0.181690
    25  C    0.114779
    26  N   -0.189049
    27  C   -0.064759
    28  C    0.030543
    29  C    0.043167
    30  C    0.012221
    31  C    0.126198
    32  C    0.088412
    33  C    0.075209
    34  N   -0.248383
    35  C    0.039230
    36  C   -0.171322
    37  C    0.121653
    38  C    0.053758
    39  C    0.168197
    40  C   -0.101997
    41  O   -0.142049
    42  C    0.015490
    43  C    0.162437
    44  O   -0.186592
    45  O   -0.275819
    46  C    0.208558
    47  C    0.318430
    48  C   -0.137936
    49  C   -0.126651
    50  C    0.162772
    51  C    0.106942
    52  C    0.107233
    53  C    0.116385
    54  C   -0.095158
    55  C    0.098381
    56  C    0.088082
    57  C    0.080887
    58  C    0.051761
    59  C   -0.113326
    60  C    0.120832
    61  C    0.112682
    62  C    0.096829
    63  C    0.047191
    64  C   -0.097101
    65  C    0.121773
    66  C    0.120630
    67  H   -0.061290
    68  H   -0.029106
    69  H   -0.071595
    70  H    0.017414
    71  H   -0.030024
    72  H    0.014994
    73  H   -0.027063
    74  H   -0.007393
    75  H   -0.026852
    76  H   -0.010107
    77  H   -0.001685
    78  H   -0.004806
    79  H   -0.000650
    80  H    0.001965
    81  H   -0.010167
    82  H    0.024451
    83  H   -0.010312
    84  H    0.000439
    85  H   -0.010399
    86  H   -0.023932
    87  H   -0.016405
    88  H   -0.006318
    89  H    0.002410
    90  H   -0.020739
    91  H   -0.024391
    92  H   -0.002255
    93  H   -0.028000
    94  H   -0.001441
    95  H   -0.001563
    96  H    0.003555
    97  H    0.013066
    98  H    0.005849
    99  H    0.011964
   100  H    0.018713
   101  H    0.019370
   102  H    0.003571
   103  H   -0.037227
   104  H   -0.043693
   105  H   -0.014934
   106  H   -0.008305
   107  H   -0.000472
   108  H   -0.011735
   109  H   -0.050949
   110  H   -0.026595
   111  H   -0.013794
   112  H   -0.052039
   113  H   -0.035747
   114  H   -0.032344
   115  H   -0.018766
   116  H   -0.006150
   117  H   -0.015044
   118  H   -0.033089
   119  H   -0.047471
   120  H   -0.006266
   121  H   -0.020756
   122  H   -0.032913
   123  H   -0.018777
   124  H   -0.042892
   125  H   -0.013435
   126  H   -0.023563
   127  H   -0.013735
   128  H   -0.036094
   129  H   -0.051794
   130  H   -0.027138
   131  H   -0.014399
   132  H   -0.037088
   133  H   -0.030750
   134  H   -0.037620
   135  H   -0.011806
   136  H   -0.009806
   137  H   -0.029230
   138  H   -0.012878
   139  H   -0.032185
   140  H   -0.016920
 Sum of Mulliken charges =  -0.00000

 Dipole moment (field-independent basis, Debye):
    X=              3.2906    Y=              2.3999    Z=             -3.0900  Tot=              5.1123
 Quadrupole moment (field-independent basis, Debye-Ang):
   XX=           -369.7879   YY=           -432.1520   ZZ=           -407.6310
   XY=            -13.4552   XZ=             -3.8361   YZ=              8.5434

 Normal termination of Gaussian 16 at Wed May  4 05:30:00 2022.
