 Gaussian 16, Revision A.03,
 Gaussian 16:  ES64L-G16RevA.03 25-Dec-2016

 -----------------------------------
 #p cam-b3lyp/Def2SVP td=(nstates=5)
 -----------------------------------

 -------------------------------------------------------
 step_1351_chromophore_9 TDDFT with cam-b3lyp functional
 -------------------------------------------------------
 Symbolic Z-matrix:
 Charge =  0 Multiplicity = 1

                         Standard orientation:
 ---------------------------------------------------------------------
 Center     Atomic      Atomic             Coordinates (Angstroms)
 Number     Number       Type             X           Y           Z
 ---------------------------------------------------------------------
      1         12           0       -4.822853    0.743022   -0.189321
      2          6           0       -3.531103   -2.490152   -0.020186
      3          6           0       -1.629743    1.964335   -0.608434
      4          6           0       -6.049001    3.857317    0.265992
      5          6           0       -8.015318   -0.471761    0.649722
      6          7           0       -2.784916   -0.195048   -0.405396
      7          6           0       -2.545016   -1.553208   -0.319643
      8          6           0       -1.054526   -1.864013   -0.450172
      9          6           0       -0.434900   -0.389324   -0.413056
     10          6           0       -1.662702    0.551537   -0.450081
     11          6           0        0.542419   -0.011036    0.717848
     12          6           0       -0.829366   -2.659065   -1.711355
     13          6           0        0.092851   -3.881525   -1.517518
     14          6           0        1.263637   -3.691842   -0.464791
     15          8           0        1.333039   -4.178209    0.663877
     16          8           0        2.234833   -2.949231   -1.090688
     17          7           0       -4.014554    2.661950   -0.259928
     18          6           0       -2.659956    2.921536   -0.435944
     19          6           0       -2.452741    4.342740   -0.276050
     20          6           0       -3.762184    4.957036   -0.144551
     21          6           0       -4.724158    3.806360   -0.037359
     22          6           0       -1.084549    5.005270   -0.218543
     23          6           0       -4.179070    6.465205   -0.078319
     24          8           0       -5.371557    6.817282    0.033584
     25          6           0       -3.126207    7.572264   -0.271782
     26          7           0       -6.929322    1.554075   -0.023875
     27          6           0       -7.093626    2.893498    0.163780
     28          6           0       -8.633315    3.214469    0.323415
     29          6           0       -9.245209    1.762859    0.516006
     30          6           0       -8.086609    0.879793    0.231920
     31          6           0       -8.939583    4.127508    1.526985
     32          6           0      -10.569611    1.413725   -0.300952
     33          6           0      -10.221422    0.770353   -1.631984
     34          7           0       -5.650061   -1.111891    0.253823
     35          6           0       -6.967370   -1.415579    0.604646
     36          6           0       -7.015535   -2.897110    0.656681
     37          6           0       -5.689392   -3.357832    0.439340
     38          6           0       -4.921443   -2.191047    0.185628
     39          6           0       -8.323213   -3.676655    0.865164
     40          6           0       -4.883213   -4.485900    0.229114
     41          8           0       -5.166884   -5.683334    0.286834
     42          6           0       -3.399884   -3.992368    0.076816
     43          6           0       -2.615468   -4.414315    1.278016
     44          8           0       -2.253635   -3.749010    2.257476
     45          8           0       -2.131484   -5.661060    0.969278
     46          6           0       -1.137793   -6.358027    1.775321
     47          6           0        3.333101   -2.659275   -0.255519
     48          6           0        4.535715   -2.180386   -1.069169
     49          6           0        5.465415   -2.906921   -1.798148
     50          6           0        5.493055   -4.356841   -1.712125
     51          6           0        6.412782   -2.213820   -2.720312
     52          6           0        7.583448   -1.429175   -2.108184
     53          6           0        8.424805   -0.825583   -3.256996
     54          6           0        8.234973    0.731226   -3.411741
     55          6           0        8.214600    1.111220   -4.922312
     56          6           0        9.396474    1.515358   -2.820148
     57          6           0        8.851437    2.388108   -1.649685
     58          6           0       10.125848    3.180897   -1.063416
     59          6           0       10.461677    2.912848    0.546214
     60          6           0       11.547406    3.928606    0.988198
     61          6           0       10.840146    1.438032    0.807064
     62          6           0        9.946906    0.719999    1.915909
     63          6           0       10.765433    0.394893    3.164035
     64          6           0       10.244771    0.999557    4.539558
     65          6           0       11.353108    0.671419    5.555912
     66          6           0        8.832910    0.525958    4.847033
     67          1           0       -0.579368    2.218785   -0.763464
     68          1           0       -6.574354    4.813830    0.316359
     69          1           0       -8.881849   -1.104512    0.851941
     70          1           0       -0.589013   -2.335659    0.415200
     71          1           0        0.185999   -0.337379   -1.307747
     72          1           0        0.401637   -0.628631    1.605709
     73          1           0        0.347903    1.020798    1.012228
     74          1           0        1.569001    0.087933    0.365499
     75          1           0       -0.403977   -2.037500   -2.499372
     76          1           0       -1.778710   -3.010997   -2.113586
     77          1           0        0.589811   -4.161764   -2.446666
     78          1           0       -0.538081   -4.660598   -1.090440
     79          1           0       -1.111964    5.873605    0.439555
     80          1           0       -0.735747    5.372682   -1.183451
     81          1           0       -0.290284    4.338047    0.117525
     82          1           0       -2.720416    7.927041    0.675220
     83          1           0       -3.675390    8.409812   -0.701669
     84          1           0       -2.402994    7.335965   -1.052034
     85          1           0       -8.993899    3.650815   -0.608844
     86          1           0       -9.433336    1.576357    1.572924
     87          1           0       -9.634979    3.673362    2.233236
     88          1           0       -9.429278    5.042221    1.192694
     89          1           0       -8.067307    4.344340    2.144286
     90          1           0      -11.196182    2.293996   -0.448683
     91          1           0      -11.191106    0.674627    0.204183
     92          1           0       -9.341458    1.179306   -2.128481
     93          1           0      -10.915202    1.035250   -2.430729
     94          1           0      -10.310373   -0.304432   -1.472523
     95          1           0       -9.133008   -3.209374    0.305096
     96          1           0       -8.566604   -3.542119    1.918907
     97          1           0       -8.227413   -4.733347    0.617508
     98          1           0       -3.003378   -4.490172   -0.808686
     99          1           0       -1.528004   -7.374115    1.815825
    100          1           0       -0.988759   -5.942622    2.771611
    101          1           0       -0.149636   -6.383505    1.314043
    102          1           0        3.720941   -3.367092    0.476384
    103          1           0        3.035219   -1.827362    0.383084
    104          1           0        4.651825   -1.096057   -1.074357
    105          1           0        4.903735   -4.834013   -0.929297
    106          1           0        6.530307   -4.638812   -1.527728
    107          1           0        5.153417   -4.813142   -2.641754
    108          1           0        5.901547   -1.675816   -3.518825
    109          1           0        6.921513   -3.011241   -3.260173
    110          1           0        8.150933   -2.129249   -1.495997
    111          1           0        7.213900   -0.536306   -1.604487
    112          1           0        8.205243   -1.219679   -4.249318
    113          1           0        9.450868   -1.174537   -3.137075
    114          1           0        7.355639    1.106104   -2.888508
    115          1           0        7.386277    0.563319   -5.371128
    116          1           0        9.175411    0.859342   -5.372594
    117          1           0        8.011556    2.179773   -4.994831
    118          1           0       10.075166    1.999452   -3.520909
    119          1           0       10.049442    0.712029   -2.478826
    120          1           0        8.409078    1.783118   -0.857625
    121          1           0        8.215164    3.189040   -2.025132
    122          1           0        9.895534    4.240343   -1.183626
    123          1           0       11.057316    2.950859   -1.580959
    124          1           0        9.551941    3.067418    1.126988
    125          1           0       12.154529    4.310855    0.167123
    126          1           0       12.229168    3.441888    1.686435
    127          1           0       11.006123    4.726908    1.496159
    128          1           0       11.914238    1.368579    0.977792
    129          1           0       10.688158    1.029092   -0.191770
    130          1           0        9.594514   -0.247133    1.557761
    131          1           0        9.143960    1.406487    2.184468
    132          1           0       11.773324    0.771654    2.988681
    133          1           0       10.918756   -0.683849    3.193310
    134          1           0       10.223320    2.088361    4.585963
    135          1           0       11.856225    1.624050    5.721861
    136          1           0       12.044122   -0.105337    5.229174
    137          1           0       10.830446    0.323149    6.446253
    138          1           0        8.172975    1.284670    5.267139
    139          1           0        8.839635   -0.288459    5.572450
    140          1           0        8.379811    0.051185    3.976247
 ---------------------------------------------------------------------

 SCF Done:  E(RCAM-B3LYP) =  -3007.15920420     A.U. after   19 cycles

 Excitation energies and oscillator strengths:

 Excited State   1:      Singlet-A      1.6894 eV  733.91 nm  f=0.3577  <S**2>=0.000
     245 -> 248       -0.17979
     246 -> 247        0.68394
     245 <- 248       -0.10572
 This state for optimization and/or second-order correction.
 Total Energy, E(TD-HF/TD-DFT) =  -3007.09712134
 Copying the excited state density for this state as the 1-particle RhoCI density.

 Excited State   2:      Singlet-A      2.2228 eV  557.80 nm  f=0.0903  <S**2>=0.000
     245 -> 247        0.62930
     246 -> 248        0.30510

 Excited State   3:      Singlet-A      3.3950 eV  365.19 nm  f=0.3531  <S**2>=0.000
     241 -> 247       -0.40847
     243 -> 247        0.14239
     245 -> 247       -0.21080
     246 -> 248        0.50132

 Excited State   4:      Singlet-A      3.4544 eV  358.92 nm  f=0.0404  <S**2>=0.000
     241 -> 247        0.12782
     241 -> 249        0.10371
     242 -> 247        0.54420
     242 -> 249       -0.21044
     242 -> 250        0.19424
     243 -> 247       -0.15505
     246 -> 248        0.12491

 Excited State   5:      Singlet-A      3.4825 eV  356.02 nm  f=0.2003  <S**2>=0.000
     239 -> 247       -0.19967
     239 -> 249       -0.11764
     241 -> 247       -0.31642
     242 -> 247        0.18436
     242 -> 249       -0.15071
     242 -> 250        0.14586
     243 -> 247        0.34401
     245 -> 247        0.14785
     246 -> 248       -0.28522

 The electronic state is 1-A.
 Alpha  occ. eigenvalues --  -46.89257 -19.26339 -19.23567 -19.21239 -19.19555
 Alpha  occ. eigenvalues --  -19.19023 -19.17687 -14.41939 -14.41906 -14.39939
 Alpha  occ. eigenvalues --  -14.38985 -10.40354 -10.38874 -10.36341 -10.33843
 Alpha  occ. eigenvalues --  -10.31633 -10.31470 -10.31305 -10.31023 -10.30616
 Alpha  occ. eigenvalues --  -10.30612 -10.30492 -10.30110 -10.29455 -10.29393
 Alpha  occ. eigenvalues --  -10.28392 -10.28383 -10.28358 -10.28316 -10.28002
 Alpha  occ. eigenvalues --  -10.27779 -10.27757 -10.27546 -10.27539 -10.27422
 Alpha  occ. eigenvalues --  -10.27399 -10.27377 -10.27354 -10.27136 -10.26849
 Alpha  occ. eigenvalues --  -10.26719 -10.26578 -10.26074 -10.25995 -10.25977
 Alpha  occ. eigenvalues --  -10.25968 -10.25922 -10.25884 -10.25806 -10.25782
 Alpha  occ. eigenvalues --  -10.25704 -10.25679 -10.25660 -10.25529 -10.25385
 Alpha  occ. eigenvalues --  -10.25206 -10.24997 -10.24967 -10.24891 -10.24626
 Alpha  occ. eigenvalues --  -10.24513 -10.24503 -10.24342 -10.24333 -10.24263
 Alpha  occ. eigenvalues --  -10.24130  -3.17587  -1.92515  -1.92029  -1.91885
 Alpha  occ. eigenvalues --   -1.17854  -1.14548  -1.09095  -1.09051  -1.08280
 Alpha  occ. eigenvalues --   -1.06149  -1.03955  -1.03206  -1.02984  -1.02130
 Alpha  occ. eigenvalues --   -0.92343  -0.91136  -0.89941  -0.89467  -0.88929
 Alpha  occ. eigenvalues --   -0.88792  -0.88079  -0.87023  -0.86883  -0.86573
 Alpha  occ. eigenvalues --   -0.85705  -0.85433  -0.84475  -0.83542  -0.83345
 Alpha  occ. eigenvalues --   -0.82284  -0.81804  -0.81342  -0.80786  -0.80332
 Alpha  occ. eigenvalues --   -0.80158  -0.78047  -0.77868  -0.77288  -0.76045
 Alpha  occ. eigenvalues --   -0.75923  -0.75654  -0.74897  -0.74315  -0.73714
 Alpha  occ. eigenvalues --   -0.72981  -0.72522  -0.71502  -0.70140  -0.69441
 Alpha  occ. eigenvalues --   -0.68410  -0.67895  -0.67049  -0.66910  -0.65920
 Alpha  occ. eigenvalues --   -0.65475  -0.64931  -0.64768  -0.64624  -0.64557
 Alpha  occ. eigenvalues --   -0.64505  -0.63090  -0.62098  -0.61513  -0.60114
 Alpha  occ. eigenvalues --   -0.60027  -0.59519  -0.59420  -0.58261  -0.57569
 Alpha  occ. eigenvalues --   -0.57110  -0.57027  -0.56070  -0.55917  -0.55700
 Alpha  occ. eigenvalues --   -0.55493  -0.55057  -0.54672  -0.54503  -0.54045
 Alpha  occ. eigenvalues --   -0.53770  -0.53304  -0.53088  -0.52775  -0.52727
 Alpha  occ. eigenvalues --   -0.52519  -0.52217  -0.52137  -0.52053  -0.51933
 Alpha  occ. eigenvalues --   -0.51380  -0.51260  -0.51077  -0.50453  -0.50298
 Alpha  occ. eigenvalues --   -0.50189  -0.49982  -0.49867  -0.49628  -0.49401
 Alpha  occ. eigenvalues --   -0.49200  -0.49049  -0.48820  -0.48685  -0.48507
 Alpha  occ. eigenvalues --   -0.48308  -0.48237  -0.47944  -0.47707  -0.47524
 Alpha  occ. eigenvalues --   -0.47355  -0.47017  -0.46950  -0.46716  -0.46492
 Alpha  occ. eigenvalues --   -0.46442  -0.46304  -0.46275  -0.45777  -0.45637
 Alpha  occ. eigenvalues --   -0.45588  -0.45510  -0.45341  -0.44973  -0.44590
 Alpha  occ. eigenvalues --   -0.44572  -0.44272  -0.44032  -0.43842  -0.43483
 Alpha  occ. eigenvalues --   -0.43418  -0.43373  -0.43234  -0.43059  -0.42920
 Alpha  occ. eigenvalues --   -0.42762  -0.42687  -0.42296  -0.42034  -0.41971
 Alpha  occ. eigenvalues --   -0.41855  -0.41807  -0.41558  -0.41122  -0.40950
 Alpha  occ. eigenvalues --   -0.40885  -0.40696  -0.40586  -0.40219  -0.40097
 Alpha  occ. eigenvalues --   -0.39930  -0.39444  -0.39413  -0.39178  -0.38701
 Alpha  occ. eigenvalues --   -0.38660  -0.38497  -0.38443  -0.37893  -0.37372
 Alpha  occ. eigenvalues --   -0.37155  -0.36848  -0.36656  -0.36278  -0.36062
 Alpha  occ. eigenvalues --   -0.36012  -0.35179  -0.34821  -0.34659  -0.34033
 Alpha  occ. eigenvalues --   -0.33465  -0.32960  -0.32894  -0.31493  -0.31054
 Alpha  occ. eigenvalues --   -0.30061  -0.29919  -0.29480  -0.29470  -0.23947
 Alpha  occ. eigenvalues --   -0.20986
 Alpha virt. eigenvalues --   -0.08527  -0.02149   0.00029   0.01852   0.03617
 Alpha virt. eigenvalues --    0.03863   0.04162   0.05326   0.05599   0.06321
 Alpha virt. eigenvalues --    0.07759   0.08222   0.08433   0.08626   0.09216

 Mulliken charges:
               1
     1  Mg   0.810325
     2  C    0.036840
     3  C   -0.083935
     4  C   -0.043363
     5  C   -0.014381
     6  N   -0.274544
     7  C   -0.039883
     8  C   -0.086429
     9  C   -0.062803
    10  C    0.014532
    11  C    0.063710
    12  C    0.098511
    13  C    0.078704
    14  C    0.140315
    15  O   -0.232065
    16  O   -0.299445
    17  N   -0.397257
    18  C    0.210911
    19  C   -0.147802
    20  C   -0.048641
    21  C    0.166717
    22  C    0.102769
    23  C    0.032948
    24  O   -0.219602
    25  C    0.033408
    26  N   -0.254981
    27  C   -0.031618
    28  C   -0.027607
    29  C   -0.017108
    30  C    0.029165
    31  C    0.062388
    32  C    0.039781
    33  C    0.008487
    34  N   -0.338482
    35  C    0.041494
    36  C   -0.166085
    37  C    0.041323
    38  C    0.090413
    39  C    0.115223
    40  C   -0.007208
    41  O   -0.183480
    42  C   -0.063058
    43  C    0.253477
    44  O   -0.224112
    45  O   -0.340675
    46  C    0.174689
    47  C    0.280391
    48  C   -0.150697
    49  C   -0.148613
    50  C    0.094641
    51  C    0.049735
    52  C    0.058760
    53  C    0.057013
    54  C   -0.151690
    55  C    0.042926
    56  C    0.036240
    57  C    0.022788
    58  C    0.006446
    59  C   -0.161270
    60  C    0.061838
    61  C    0.058444
    62  C    0.038682
    63  C   -0.003007
    64  C   -0.153229
    65  C    0.060931
    66  C    0.056024
    67  H   -0.026447
    68  H    0.009197
    69  H   -0.038279
    70  H    0.048681
    71  H    0.006142
    72  H    0.041206
    73  H   -0.000008
    74  H    0.015192
    75  H    0.005172
    76  H    0.021720
    77  H    0.032526
    78  H    0.023147
    79  H    0.025889
    80  H    0.030004
    81  H    0.018385
    82  H    0.053451
    83  H    0.025546
    84  H    0.029636
    85  H    0.023149
    86  H    0.012297
    87  H    0.009881
    88  H    0.018873
    89  H    0.028191
    90  H    0.007089
    91  H    0.004352
    92  H    0.019980
    93  H   -0.001659
    94  H    0.021077
    95  H    0.020082
    96  H    0.028728
    97  H    0.040806
    98  H    0.047504
    99  H    0.034027
   100  H    0.043623
   101  H    0.038545
   102  H    0.033421
   103  H   -0.009489
   104  H   -0.013673
   105  H    0.011246
   106  H    0.014853
   107  H    0.024730
   108  H    0.017264
   109  H   -0.018757
   110  H    0.001971
   111  H    0.008122
   112  H   -0.020843
   113  H   -0.005302
   114  H   -0.000731
   115  H    0.004809
   116  H    0.016262
   117  H    0.009102
   118  H   -0.002733
   119  H   -0.018853
   120  H    0.017702
   121  H    0.007653
   122  H   -0.004254
   123  H    0.006356
   124  H   -0.012345
   125  H    0.010269
   126  H   -0.000332
   127  H    0.010255
   128  H   -0.007568
   129  H   -0.023515
   130  H    0.001667
   131  H    0.010686
   132  H   -0.009420
   133  H   -0.002057
   134  H   -0.006621
   135  H    0.011858
   136  H    0.013948
   137  H   -0.004325
   138  H    0.012233
   139  H   -0.006508
   140  H    0.007297
 Sum of Mulliken charges =  -0.00000

 Dipole moment (field-independent basis, Debye):
    X=              3.8062    Y=              3.5757    Z=             -3.3051  Tot=              6.1804
 Quadrupole moment (field-independent basis, Debye-Ang):
   XX=           -370.8425   YY=           -426.4315   ZZ=           -407.7371
   XY=            -17.5110   XZ=             -3.7098   YZ=              8.7563

 Normal termination of Gaussian 16 at Wed May  4 04:30:34 2022.
