 Gaussian 16, Revision A.03,
 Gaussian 16:  ES64L-G16RevA.03 25-Dec-2016

 ---------------------------------
 #p PBE1PBE/Def2SVP td=(nstates=5)
 ---------------------------------

 -----------------------------------------------------
 step_1351_chromophore_9 TDDFT with PBE1PBE functional
 -----------------------------------------------------
 Symbolic Z-matrix:
 Charge =  0 Multiplicity = 1

                         Standard orientation:
 ---------------------------------------------------------------------
 Center     Atomic      Atomic             Coordinates (Angstroms)
 Number     Number       Type             X           Y           Z
 ---------------------------------------------------------------------
      1         12           0       -4.822853    0.743022   -0.189321
      2          6           0       -3.531103   -2.490152   -0.020186
      3          6           0       -1.629743    1.964335   -0.608434
      4          6           0       -6.049001    3.857317    0.265992
      5          6           0       -8.015318   -0.471761    0.649722
      6          7           0       -2.784916   -0.195048   -0.405396
      7          6           0       -2.545016   -1.553208   -0.319643
      8          6           0       -1.054526   -1.864013   -0.450172
      9          6           0       -0.434900   -0.389324   -0.413056
     10          6           0       -1.662702    0.551537   -0.450081
     11          6           0        0.542419   -0.011036    0.717848
     12          6           0       -0.829366   -2.659065   -1.711355
     13          6           0        0.092851   -3.881525   -1.517518
     14          6           0        1.263637   -3.691842   -0.464791
     15          8           0        1.333039   -4.178209    0.663877
     16          8           0        2.234833   -2.949231   -1.090688
     17          7           0       -4.014554    2.661950   -0.259928
     18          6           0       -2.659956    2.921536   -0.435944
     19          6           0       -2.452741    4.342740   -0.276050
     20          6           0       -3.762184    4.957036   -0.144551
     21          6           0       -4.724158    3.806360   -0.037359
     22          6           0       -1.084549    5.005270   -0.218543
     23          6           0       -4.179070    6.465205   -0.078319
     24          8           0       -5.371557    6.817282    0.033584
     25          6           0       -3.126207    7.572264   -0.271782
     26          7           0       -6.929322    1.554075   -0.023875
     27          6           0       -7.093626    2.893498    0.163780
     28          6           0       -8.633315    3.214469    0.323415
     29          6           0       -9.245209    1.762859    0.516006
     30          6           0       -8.086609    0.879793    0.231920
     31          6           0       -8.939583    4.127508    1.526985
     32          6           0      -10.569611    1.413725   -0.300952
     33          6           0      -10.221422    0.770353   -1.631984
     34          7           0       -5.650061   -1.111891    0.253823
     35          6           0       -6.967370   -1.415579    0.604646
     36          6           0       -7.015535   -2.897110    0.656681
     37          6           0       -5.689392   -3.357832    0.439340
     38          6           0       -4.921443   -2.191047    0.185628
     39          6           0       -8.323213   -3.676655    0.865164
     40          6           0       -4.883213   -4.485900    0.229114
     41          8           0       -5.166884   -5.683334    0.286834
     42          6           0       -3.399884   -3.992368    0.076816
     43          6           0       -2.615468   -4.414315    1.278016
     44          8           0       -2.253635   -3.749010    2.257476
     45          8           0       -2.131484   -5.661060    0.969278
     46          6           0       -1.137793   -6.358027    1.775321
     47          6           0        3.333101   -2.659275   -0.255519
     48          6           0        4.535715   -2.180386   -1.069169
     49          6           0        5.465415   -2.906921   -1.798148
     50          6           0        5.493055   -4.356841   -1.712125
     51          6           0        6.412782   -2.213820   -2.720312
     52          6           0        7.583448   -1.429175   -2.108184
     53          6           0        8.424805   -0.825583   -3.256996
     54          6           0        8.234973    0.731226   -3.411741
     55          6           0        8.214600    1.111220   -4.922312
     56          6           0        9.396474    1.515358   -2.820148
     57          6           0        8.851437    2.388108   -1.649685
     58          6           0       10.125848    3.180897   -1.063416
     59          6           0       10.461677    2.912848    0.546214
     60          6           0       11.547406    3.928606    0.988198
     61          6           0       10.840146    1.438032    0.807064
     62          6           0        9.946906    0.719999    1.915909
     63          6           0       10.765433    0.394893    3.164035
     64          6           0       10.244771    0.999557    4.539558
     65          6           0       11.353108    0.671419    5.555912
     66          6           0        8.832910    0.525958    4.847033
     67          1           0       -0.579368    2.218785   -0.763464
     68          1           0       -6.574354    4.813830    0.316359
     69          1           0       -8.881849   -1.104512    0.851941
     70          1           0       -0.589013   -2.335659    0.415200
     71          1           0        0.185999   -0.337379   -1.307747
     72          1           0        0.401637   -0.628631    1.605709
     73          1           0        0.347903    1.020798    1.012228
     74          1           0        1.569001    0.087933    0.365499
     75          1           0       -0.403977   -2.037500   -2.499372
     76          1           0       -1.778710   -3.010997   -2.113586
     77          1           0        0.589811   -4.161764   -2.446666
     78          1           0       -0.538081   -4.660598   -1.090440
     79          1           0       -1.111964    5.873605    0.439555
     80          1           0       -0.735747    5.372682   -1.183451
     81          1           0       -0.290284    4.338047    0.117525
     82          1           0       -2.720416    7.927041    0.675220
     83          1           0       -3.675390    8.409812   -0.701669
     84          1           0       -2.402994    7.335965   -1.052034
     85          1           0       -8.993899    3.650815   -0.608844
     86          1           0       -9.433336    1.576357    1.572924
     87          1           0       -9.634979    3.673362    2.233236
     88          1           0       -9.429278    5.042221    1.192694
     89          1           0       -8.067307    4.344340    2.144286
     90          1           0      -11.196182    2.293996   -0.448683
     91          1           0      -11.191106    0.674627    0.204183
     92          1           0       -9.341458    1.179306   -2.128481
     93          1           0      -10.915202    1.035250   -2.430729
     94          1           0      -10.310373   -0.304432   -1.472523
     95          1           0       -9.133008   -3.209374    0.305096
     96          1           0       -8.566604   -3.542119    1.918907
     97          1           0       -8.227413   -4.733347    0.617508
     98          1           0       -3.003378   -4.490172   -0.808686
     99          1           0       -1.528004   -7.374115    1.815825
    100          1           0       -0.988759   -5.942622    2.771611
    101          1           0       -0.149636   -6.383505    1.314043
    102          1           0        3.720941   -3.367092    0.476384
    103          1           0        3.035219   -1.827362    0.383084
    104          1           0        4.651825   -1.096057   -1.074357
    105          1           0        4.903735   -4.834013   -0.929297
    106          1           0        6.530307   -4.638812   -1.527728
    107          1           0        5.153417   -4.813142   -2.641754
    108          1           0        5.901547   -1.675816   -3.518825
    109          1           0        6.921513   -3.011241   -3.260173
    110          1           0        8.150933   -2.129249   -1.495997
    111          1           0        7.213900   -0.536306   -1.604487
    112          1           0        8.205243   -1.219679   -4.249318
    113          1           0        9.450868   -1.174537   -3.137075
    114          1           0        7.355639    1.106104   -2.888508
    115          1           0        7.386277    0.563319   -5.371128
    116          1           0        9.175411    0.859342   -5.372594
    117          1           0        8.011556    2.179773   -4.994831
    118          1           0       10.075166    1.999452   -3.520909
    119          1           0       10.049442    0.712029   -2.478826
    120          1           0        8.409078    1.783118   -0.857625
    121          1           0        8.215164    3.189040   -2.025132
    122          1           0        9.895534    4.240343   -1.183626
    123          1           0       11.057316    2.950859   -1.580959
    124          1           0        9.551941    3.067418    1.126988
    125          1           0       12.154529    4.310855    0.167123
    126          1           0       12.229168    3.441888    1.686435
    127          1           0       11.006123    4.726908    1.496159
    128          1           0       11.914238    1.368579    0.977792
    129          1           0       10.688158    1.029092   -0.191770
    130          1           0        9.594514   -0.247133    1.557761
    131          1           0        9.143960    1.406487    2.184468
    132          1           0       11.773324    0.771654    2.988681
    133          1           0       10.918756   -0.683849    3.193310
    134          1           0       10.223320    2.088361    4.585963
    135          1           0       11.856225    1.624050    5.721861
    136          1           0       12.044122   -0.105337    5.229174
    137          1           0       10.830446    0.323149    6.446253
    138          1           0        8.172975    1.284670    5.267139
    139          1           0        8.839635   -0.288459    5.572450
    140          1           0        8.379811    0.051185    3.976247
 ---------------------------------------------------------------------

 SCF Done:  E(RPBE1PBE) =  -3005.34884612     A.U. after   15 cycles

 Excitation energies and oscillator strengths:

 Excited State   1:      Singlet-A      1.8298 eV  677.58 nm  f=0.3476  <S**2>=0.000
     245 -> 248       -0.17074
     246 -> 247        0.69073
     246 <- 247       -0.10201
 This state for optimization and/or second-order correction.
 Total Energy, E(TD-HF/TD-DFT) =  -3005.28160164
 Copying the excited state density for this state as the 1-particle RhoCI density.

 Excited State   2:      Singlet-A      2.2175 eV  559.11 nm  f=0.0921  <S**2>=0.000
     245 -> 247        0.64388
     246 -> 248        0.27004

 Excited State   3:      Singlet-A      2.9119 eV  425.79 nm  f=0.0005  <S**2>=0.000
     243 -> 247        0.66149
     243 -> 249       -0.15188
     243 -> 250        0.11175

 Excited State   4:      Singlet-A      3.0843 eV  401.98 nm  f=0.0075  <S**2>=0.000
     240 -> 247        0.43169
     240 -> 248       -0.10982
     240 -> 249        0.12254
     241 -> 247        0.31626
     242 -> 247       -0.40154

 Excited State   5:      Singlet-A      3.1276 eV  396.43 nm  f=0.0134  <S**2>=0.000
     240 -> 247        0.42542
     242 -> 247        0.51863
     246 -> 248        0.13228

 The electronic state is 1-A.
 Alpha  occ. eigenvalues --  -46.92641 -19.27013 -19.24299 -19.21532 -19.19550
 Alpha  occ. eigenvalues --  -19.19314 -19.18153 -14.41490 -14.41372 -14.39520
 Alpha  occ. eigenvalues --  -14.38727 -10.37447 -10.35935 -10.33287 -10.31158
 Alpha  occ. eigenvalues --  -10.29023 -10.29002 -10.28940 -10.28485 -10.28471
 Alpha  occ. eigenvalues --  -10.28425 -10.28090 -10.27458 -10.27389 -10.26856
 Alpha  occ. eigenvalues --  -10.26312 -10.26243 -10.26116 -10.25878 -10.25762
 Alpha  occ. eigenvalues --  -10.25500 -10.25456 -10.25379 -10.25345 -10.25292
 Alpha  occ. eigenvalues --  -10.25077 -10.25004 -10.24777 -10.24585 -10.24541
 Alpha  occ. eigenvalues --  -10.24409 -10.23679 -10.23634 -10.23573 -10.23526
 Alpha  occ. eigenvalues --  -10.23526 -10.23463 -10.23455 -10.23427 -10.23401
 Alpha  occ. eigenvalues --  -10.23327 -10.23301 -10.23149 -10.23010 -10.22995
 Alpha  occ. eigenvalues --  -10.22829 -10.22509 -10.22485 -10.22316 -10.22313
 Alpha  occ. eigenvalues --  -10.22182 -10.22092 -10.22091 -10.21720 -10.21619
 Alpha  occ. eigenvalues --  -10.21507  -3.14558  -1.87427  -1.86918  -1.86779
 Alpha  occ. eigenvalues --   -1.12683  -1.09369  -1.03918  -1.03593  -1.03215
 Alpha  occ. eigenvalues --   -1.01015  -0.98695  -0.97838  -0.97627  -0.96703
 Alpha  occ. eigenvalues --   -0.86824  -0.85268  -0.84167  -0.83599  -0.83206
 Alpha  occ. eigenvalues --   -0.82867  -0.82360  -0.81343  -0.80971  -0.80816
 Alpha  occ. eigenvalues --   -0.79993  -0.79677  -0.78673  -0.77887  -0.77651
 Alpha  occ. eigenvalues --   -0.76504  -0.75972  -0.75426  -0.75152  -0.74596
 Alpha  occ. eigenvalues --   -0.74308  -0.72344  -0.72112  -0.71566  -0.70241
 Alpha  occ. eigenvalues --   -0.70022  -0.69993  -0.69270  -0.68446  -0.67898
 Alpha  occ. eigenvalues --   -0.67343  -0.66991  -0.65950  -0.64442  -0.63785
 Alpha  occ. eigenvalues --   -0.62930  -0.62136  -0.61366  -0.61131  -0.60111
 Alpha  occ. eigenvalues --   -0.59931  -0.59429  -0.59311  -0.59167  -0.59074
 Alpha  occ. eigenvalues --   -0.58658  -0.57225  -0.56299  -0.56152  -0.54541
 Alpha  occ. eigenvalues --   -0.54485  -0.54132  -0.53956  -0.52950  -0.52045
 Alpha  occ. eigenvalues --   -0.51634  -0.51463  -0.50574  -0.50487  -0.50233
 Alpha  occ. eigenvalues --   -0.50080  -0.49592  -0.49124  -0.48990  -0.48560
 Alpha  occ. eigenvalues --   -0.48265  -0.47899  -0.47608  -0.47354  -0.47236
 Alpha  occ. eigenvalues --   -0.47200  -0.46688  -0.46604  -0.46545  -0.46257
 Alpha  occ. eigenvalues --   -0.45911  -0.45811  -0.45591  -0.45072  -0.45023
 Alpha  occ. eigenvalues --   -0.44745  -0.44383  -0.44314  -0.44185  -0.43960
 Alpha  occ. eigenvalues --   -0.43793  -0.43628  -0.43372  -0.43326  -0.43097
 Alpha  occ. eigenvalues --   -0.42931  -0.42798  -0.42580  -0.42348  -0.42126
 Alpha  occ. eigenvalues --   -0.41953  -0.41693  -0.41592  -0.41402  -0.41132
 Alpha  occ. eigenvalues --   -0.41100  -0.41026  -0.40860  -0.40579  -0.40452
 Alpha  occ. eigenvalues --   -0.40297  -0.40229  -0.40086  -0.39786  -0.39329
 Alpha  occ. eigenvalues --   -0.39313  -0.39045  -0.38803  -0.38635  -0.38203
 Alpha  occ. eigenvalues --   -0.38110  -0.38037  -0.38008  -0.37914  -0.37662
 Alpha  occ. eigenvalues --   -0.37585  -0.37544  -0.37170  -0.36861  -0.36686
 Alpha  occ. eigenvalues --   -0.36575  -0.36492  -0.36288  -0.36084  -0.35823
 Alpha  occ. eigenvalues --   -0.35673  -0.35557  -0.35402  -0.35094  -0.34939
 Alpha  occ. eigenvalues --   -0.34711  -0.34303  -0.34221  -0.33994  -0.33638
 Alpha  occ. eigenvalues --   -0.33533  -0.33494  -0.33204  -0.32651  -0.32185
 Alpha  occ. eigenvalues --   -0.32169  -0.31780  -0.31744  -0.31338  -0.30933
 Alpha  occ. eigenvalues --   -0.30883  -0.30129  -0.29727  -0.29590  -0.29344
 Alpha  occ. eigenvalues --   -0.28608  -0.28172  -0.27992  -0.26795  -0.26015
 Alpha  occ. eigenvalues --   -0.25523  -0.25294  -0.24953  -0.24819  -0.20887
 Alpha  occ. eigenvalues --   -0.18650
 Alpha virt. eigenvalues --   -0.11052  -0.05666  -0.04063  -0.02547  -0.00700
 Alpha virt. eigenvalues --   -0.00389   0.00492   0.00991   0.01805   0.02599
 Alpha virt. eigenvalues --    0.03516   0.04601   0.05079   0.05226   0.05478

 Mulliken charges:
               1
     1  Mg   0.954938
     2  C    0.036438
     3  C   -0.072628
     4  C   -0.042501
     5  C   -0.019373
     6  N   -0.379938
     7  C    0.029682
     8  C   -0.157721
     9  C   -0.128987
    10  C    0.049752
    11  C    0.004671
    12  C    0.052285
    13  C   -0.001606
    14  C    0.199820
    15  O   -0.264805
    16  O   -0.327122
    17  N   -0.512536
    18  C    0.226189
    19  C   -0.177750
    20  C   -0.092455
    21  C    0.191874
    22  C    0.044623
    23  C    0.079835
    24  O   -0.256299
    25  C   -0.039090
    26  N   -0.354428
    27  C    0.015378
    28  C   -0.111938
    29  C   -0.091868
    30  C    0.075757
    31  C    0.006317
    32  C   -0.019539
    33  C   -0.067528
    34  N   -0.473295
    35  C    0.074152
    36  C   -0.182225
    37  C   -0.000587
    38  C    0.143993
    39  C    0.060154
    40  C    0.080493
    41  O   -0.226611
    42  C   -0.175351
    43  C    0.345373
    44  O   -0.259444
    45  O   -0.373822
    46  C    0.123116
    47  C    0.231860
    48  C   -0.151769
    49  C   -0.194136
    50  C    0.029872
    51  C   -0.014583
    52  C   -0.011780
    53  C    0.009072
    54  C   -0.240859
    55  C   -0.022841
    56  C   -0.005984
    57  C   -0.052106
    58  C   -0.048005
    59  C   -0.237987
    60  C    0.000291
    61  C   -0.000316
    62  C   -0.028968
    63  C   -0.056684
    64  C   -0.244594
    65  C   -0.000736
    66  C   -0.004502
    67  H    0.006494
    68  H    0.041293
    69  H   -0.005478
    70  H    0.089504
    71  H    0.042772
    72  H    0.067026
    73  H    0.029494
    74  H    0.041420
    75  H    0.037234
    76  H    0.055043
    77  H    0.064419
    78  H    0.060785
    79  H    0.053830
    80  H    0.056506
    81  H    0.043999
    82  H    0.078293
    83  H    0.052411
    84  H    0.055500
    85  H    0.059585
    86  H    0.050836
    87  H    0.037071
    88  H    0.046548
    89  H    0.055416
    90  H    0.039959
    91  H    0.036779
    92  H    0.049110
    93  H    0.028248
    94  H    0.049403
    95  H    0.047062
    96  H    0.058250
    97  H    0.068816
    98  H    0.083464
    99  H    0.056001
   100  H    0.063993
   101  H    0.060688
   102  H    0.059153
   103  H    0.021893
   104  H    0.016038
   105  H    0.038104
   106  H    0.043228
   107  H    0.053019
   108  H    0.049597
   109  H    0.015922
   110  H    0.034554
   111  H    0.042912
   112  H    0.010872
   113  H    0.025691
   114  H    0.036414
   115  H    0.033783
   116  H    0.044368
   117  H    0.038881
   118  H    0.027736
   119  H    0.014097
   120  H    0.052422
   121  H    0.041577
   122  H    0.028949
   123  H    0.038137
   124  H    0.025650
   125  H    0.036867
   126  H    0.027774
   127  H    0.038163
   128  H    0.023298
   129  H    0.017105
   130  H    0.033907
   131  H    0.042476
   132  H    0.024252
   133  H    0.030145
   134  H    0.031057
   135  H    0.039453
   136  H    0.040482
   137  H    0.023725
   138  H    0.039464
   139  H    0.021128
   140  H    0.035294
 Sum of Mulliken charges =  -0.00000

 Dipole moment (field-independent basis, Debye):
    X=              3.5959    Y=              3.0560    Z=             -3.2966  Tot=              5.7565
 Quadrupole moment (field-independent basis, Debye-Ang):
   XX=           -362.2860   YY=           -424.7858   ZZ=           -405.2403
   XY=            -15.7003   XZ=             -4.4748   YZ=              8.7316

 Normal termination of Gaussian 16 at Wed May  4 04:50:48 2022.
