 Gaussian 16, Revision A.03,
 Gaussian 16:  ES64L-G16RevA.03 25-Dec-2016

 --------------------------------
 #p wB97XD/Def2SVP td=(nstates=5)
 --------------------------------

 ----------------------------------------------------
 step_1351_chromophore_9 TDDFT with wB97XD functional
 ----------------------------------------------------
 Symbolic Z-matrix:
 Charge =  0 Multiplicity = 1

                         Standard orientation:
 ---------------------------------------------------------------------
 Center     Atomic      Atomic             Coordinates (Angstroms)
 Number     Number       Type             X           Y           Z
 ---------------------------------------------------------------------
      1         12           0       -4.822853    0.743022   -0.189321
      2          6           0       -3.531103   -2.490152   -0.020186
      3          6           0       -1.629743    1.964335   -0.608434
      4          6           0       -6.049001    3.857317    0.265992
      5          6           0       -8.015318   -0.471761    0.649722
      6          7           0       -2.784916   -0.195048   -0.405396
      7          6           0       -2.545016   -1.553208   -0.319643
      8          6           0       -1.054526   -1.864013   -0.450172
      9          6           0       -0.434900   -0.389324   -0.413056
     10          6           0       -1.662702    0.551537   -0.450081
     11          6           0        0.542419   -0.011036    0.717848
     12          6           0       -0.829366   -2.659065   -1.711355
     13          6           0        0.092851   -3.881525   -1.517518
     14          6           0        1.263637   -3.691842   -0.464791
     15          8           0        1.333039   -4.178209    0.663877
     16          8           0        2.234833   -2.949231   -1.090688
     17          7           0       -4.014554    2.661950   -0.259928
     18          6           0       -2.659956    2.921536   -0.435944
     19          6           0       -2.452741    4.342740   -0.276050
     20          6           0       -3.762184    4.957036   -0.144551
     21          6           0       -4.724158    3.806360   -0.037359
     22          6           0       -1.084549    5.005270   -0.218543
     23          6           0       -4.179070    6.465205   -0.078319
     24          8           0       -5.371557    6.817282    0.033584
     25          6           0       -3.126207    7.572264   -0.271782
     26          7           0       -6.929322    1.554075   -0.023875
     27          6           0       -7.093626    2.893498    0.163780
     28          6           0       -8.633315    3.214469    0.323415
     29          6           0       -9.245209    1.762859    0.516006
     30          6           0       -8.086609    0.879793    0.231920
     31          6           0       -8.939583    4.127508    1.526985
     32          6           0      -10.569611    1.413725   -0.300952
     33          6           0      -10.221422    0.770353   -1.631984
     34          7           0       -5.650061   -1.111891    0.253823
     35          6           0       -6.967370   -1.415579    0.604646
     36          6           0       -7.015535   -2.897110    0.656681
     37          6           0       -5.689392   -3.357832    0.439340
     38          6           0       -4.921443   -2.191047    0.185628
     39          6           0       -8.323213   -3.676655    0.865164
     40          6           0       -4.883213   -4.485900    0.229114
     41          8           0       -5.166884   -5.683334    0.286834
     42          6           0       -3.399884   -3.992368    0.076816
     43          6           0       -2.615468   -4.414315    1.278016
     44          8           0       -2.253635   -3.749010    2.257476
     45          8           0       -2.131484   -5.661060    0.969278
     46          6           0       -1.137793   -6.358027    1.775321
     47          6           0        3.333101   -2.659275   -0.255519
     48          6           0        4.535715   -2.180386   -1.069169
     49          6           0        5.465415   -2.906921   -1.798148
     50          6           0        5.493055   -4.356841   -1.712125
     51          6           0        6.412782   -2.213820   -2.720312
     52          6           0        7.583448   -1.429175   -2.108184
     53          6           0        8.424805   -0.825583   -3.256996
     54          6           0        8.234973    0.731226   -3.411741
     55          6           0        8.214600    1.111220   -4.922312
     56          6           0        9.396474    1.515358   -2.820148
     57          6           0        8.851437    2.388108   -1.649685
     58          6           0       10.125848    3.180897   -1.063416
     59          6           0       10.461677    2.912848    0.546214
     60          6           0       11.547406    3.928606    0.988198
     61          6           0       10.840146    1.438032    0.807064
     62          6           0        9.946906    0.719999    1.915909
     63          6           0       10.765433    0.394893    3.164035
     64          6           0       10.244771    0.999557    4.539558
     65          6           0       11.353108    0.671419    5.555912
     66          6           0        8.832910    0.525958    4.847033
     67          1           0       -0.579368    2.218785   -0.763464
     68          1           0       -6.574354    4.813830    0.316359
     69          1           0       -8.881849   -1.104512    0.851941
     70          1           0       -0.589013   -2.335659    0.415200
     71          1           0        0.185999   -0.337379   -1.307747
     72          1           0        0.401637   -0.628631    1.605709
     73          1           0        0.347903    1.020798    1.012228
     74          1           0        1.569001    0.087933    0.365499
     75          1           0       -0.403977   -2.037500   -2.499372
     76          1           0       -1.778710   -3.010997   -2.113586
     77          1           0        0.589811   -4.161764   -2.446666
     78          1           0       -0.538081   -4.660598   -1.090440
     79          1           0       -1.111964    5.873605    0.439555
     80          1           0       -0.735747    5.372682   -1.183451
     81          1           0       -0.290284    4.338047    0.117525
     82          1           0       -2.720416    7.927041    0.675220
     83          1           0       -3.675390    8.409812   -0.701669
     84          1           0       -2.402994    7.335965   -1.052034
     85          1           0       -8.993899    3.650815   -0.608844
     86          1           0       -9.433336    1.576357    1.572924
     87          1           0       -9.634979    3.673362    2.233236
     88          1           0       -9.429278    5.042221    1.192694
     89          1           0       -8.067307    4.344340    2.144286
     90          1           0      -11.196182    2.293996   -0.448683
     91          1           0      -11.191106    0.674627    0.204183
     92          1           0       -9.341458    1.179306   -2.128481
     93          1           0      -10.915202    1.035250   -2.430729
     94          1           0      -10.310373   -0.304432   -1.472523
     95          1           0       -9.133008   -3.209374    0.305096
     96          1           0       -8.566604   -3.542119    1.918907
     97          1           0       -8.227413   -4.733347    0.617508
     98          1           0       -3.003378   -4.490172   -0.808686
     99          1           0       -1.528004   -7.374115    1.815825
    100          1           0       -0.988759   -5.942622    2.771611
    101          1           0       -0.149636   -6.383505    1.314043
    102          1           0        3.720941   -3.367092    0.476384
    103          1           0        3.035219   -1.827362    0.383084
    104          1           0        4.651825   -1.096057   -1.074357
    105          1           0        4.903735   -4.834013   -0.929297
    106          1           0        6.530307   -4.638812   -1.527728
    107          1           0        5.153417   -4.813142   -2.641754
    108          1           0        5.901547   -1.675816   -3.518825
    109          1           0        6.921513   -3.011241   -3.260173
    110          1           0        8.150933   -2.129249   -1.495997
    111          1           0        7.213900   -0.536306   -1.604487
    112          1           0        8.205243   -1.219679   -4.249318
    113          1           0        9.450868   -1.174537   -3.137075
    114          1           0        7.355639    1.106104   -2.888508
    115          1           0        7.386277    0.563319   -5.371128
    116          1           0        9.175411    0.859342   -5.372594
    117          1           0        8.011556    2.179773   -4.994831
    118          1           0       10.075166    1.999452   -3.520909
    119          1           0       10.049442    0.712029   -2.478826
    120          1           0        8.409078    1.783118   -0.857625
    121          1           0        8.215164    3.189040   -2.025132
    122          1           0        9.895534    4.240343   -1.183626
    123          1           0       11.057316    2.950859   -1.580959
    124          1           0        9.551941    3.067418    1.126988
    125          1           0       12.154529    4.310855    0.167123
    126          1           0       12.229168    3.441888    1.686435
    127          1           0       11.006123    4.726908    1.496159
    128          1           0       11.914238    1.368579    0.977792
    129          1           0       10.688158    1.029092   -0.191770
    130          1           0        9.594514   -0.247133    1.557761
    131          1           0        9.143960    1.406487    2.184468
    132          1           0       11.773324    0.771654    2.988681
    133          1           0       10.918756   -0.683849    3.193310
    134          1           0       10.223320    2.088361    4.585963
    135          1           0       11.856225    1.624050    5.721861
    136          1           0       12.044122   -0.105337    5.229174
    137          1           0       10.830446    0.323149    6.446253
    138          1           0        8.172975    1.284670    5.267139
    139          1           0        8.839635   -0.288459    5.572450
    140          1           0        8.379811    0.051185    3.976247
 ---------------------------------------------------------------------

 SCF Done:  E(RwB97XD) =  -3007.86068882     A.U. after   19 cycles

 Excitation energies and oscillator strengths:

 Excited State   1:      Singlet-A      1.6401 eV  755.95 nm  f=0.3556  <S**2>=0.000
     245 -> 248       -0.18502
     246 -> 247        0.68190
     245 <- 248       -0.11497
 This state for optimization and/or second-order correction.
 Total Energy, E(TD-HF/TD-DFT) =  -3007.80041598
 Copying the excited state density for this state as the 1-particle RhoCI density.

 Excited State   2:      Singlet-A      2.1711 eV  571.06 nm  f=0.0890  <S**2>=0.000
     245 -> 247        0.62782
     246 -> 248        0.30623

 Excited State   3:      Singlet-A      3.4039 eV  364.24 nm  f=0.3061  <S**2>=0.000
     241 -> 247       -0.45868
     243 -> 247        0.13588
     245 -> 247       -0.18908
     246 -> 248        0.46997

 Excited State   4:      Singlet-A      3.4871 eV  355.55 nm  f=0.1846  <S**2>=0.000
     239 -> 247        0.16714
     239 -> 249        0.11737
     240 -> 247        0.15016
     240 -> 249        0.10208
     241 -> 247        0.29469
     242 -> 247        0.35007
     242 -> 249       -0.15736
     242 -> 250        0.13924
     243 -> 247       -0.18308
     245 -> 247       -0.15174
     246 -> 248        0.27028

 Excited State   5:      Singlet-A      3.5171 eV  352.52 nm  f=0.0708  <S**2>=0.000
     239 -> 247       -0.17450
     239 -> 249       -0.10323
     240 -> 247       -0.12018
     240 -> 249       -0.10570
     241 -> 247       -0.13402
     242 -> 247        0.40344
     242 -> 249       -0.24622
     242 -> 250        0.23625
     243 -> 247        0.22856
     246 -> 248       -0.15653

 The electronic state is 1-A.
 Alpha  occ. eigenvalues --  -46.95583 -19.31556 -19.28770 -19.26156 -19.24651
 Alpha  occ. eigenvalues --  -19.23939 -19.22694 -14.46513 -14.46505 -14.44580
 Alpha  occ. eigenvalues --  -14.43523 -10.44186 -10.42699 -10.40398 -10.37806
 Alpha  occ. eigenvalues --  -10.35542 -10.35536 -10.35374 -10.35162 -10.34716
 Alpha  occ. eigenvalues --  -10.34615 -10.34443 -10.33828 -10.33692 -10.33350
 Alpha  occ. eigenvalues --  -10.32596 -10.32445 -10.32361 -10.32312 -10.32056
 Alpha  occ. eigenvalues --  -10.31783 -10.31690 -10.31603 -10.31567 -10.31503
 Alpha  occ. eigenvalues --  -10.31497 -10.31372 -10.31341 -10.31092 -10.30865
 Alpha  occ. eigenvalues --  -10.30624 -10.30490 -10.30068 -10.30004 -10.29879
 Alpha  occ. eigenvalues --  -10.29859 -10.29837 -10.29815 -10.29800 -10.29672
 Alpha  occ. eigenvalues --  -10.29664 -10.29614 -10.29595 -10.29401 -10.29357
 Alpha  occ. eigenvalues --  -10.29168 -10.28888 -10.28795 -10.28749 -10.28549
 Alpha  occ. eigenvalues --  -10.28457 -10.28455 -10.28306 -10.28163 -10.28060
 Alpha  occ. eigenvalues --  -10.27930  -3.21375  -1.94988  -1.94483  -1.94338
 Alpha  occ. eigenvalues --   -1.20033  -1.16691  -1.11368  -1.11229  -1.10464
 Alpha  occ. eigenvalues --   -1.08307  -1.05934  -1.05200  -1.05011  -1.04191
 Alpha  occ. eigenvalues --   -0.94290  -0.92939  -0.91779  -0.91264  -0.90852
 Alpha  occ. eigenvalues --   -0.90545  -0.89965  -0.88936  -0.88654  -0.88528
 Alpha  occ. eigenvalues --   -0.87647  -0.87310  -0.86334  -0.85413  -0.85270
 Alpha  occ. eigenvalues --   -0.84158  -0.83681  -0.83260  -0.82716  -0.82278
 Alpha  occ. eigenvalues --   -0.81990  -0.80017  -0.79774  -0.79219  -0.77899
 Alpha  occ. eigenvalues --   -0.77697  -0.77589  -0.76831  -0.76136  -0.75569
 Alpha  occ. eigenvalues --   -0.74911  -0.74490  -0.73480  -0.72063  -0.71311
 Alpha  occ. eigenvalues --   -0.70397  -0.69777  -0.69062  -0.68795  -0.67770
 Alpha  occ. eigenvalues --   -0.67441  -0.66890  -0.66745  -0.66573  -0.66532
 Alpha  occ. eigenvalues --   -0.66338  -0.64895  -0.63940  -0.63480  -0.62163
 Alpha  occ. eigenvalues --   -0.61958  -0.61450  -0.61389  -0.60258  -0.59480
 Alpha  occ. eigenvalues --   -0.59041  -0.58964  -0.58005  -0.57858  -0.57648
 Alpha  occ. eigenvalues --   -0.57424  -0.56992  -0.56534  -0.56445  -0.55954
 Alpha  occ. eigenvalues --   -0.55672  -0.55192  -0.54964  -0.54688  -0.54662
 Alpha  occ. eigenvalues --   -0.54445  -0.54144  -0.54002  -0.53929  -0.53865
 Alpha  occ. eigenvalues --   -0.53314  -0.53165  -0.52961  -0.52362  -0.52196
 Alpha  occ. eigenvalues --   -0.52087  -0.51984  -0.51728  -0.51560  -0.51324
 Alpha  occ. eigenvalues --   -0.51110  -0.50934  -0.50754  -0.50620  -0.50420
 Alpha  occ. eigenvalues --   -0.50237  -0.50117  -0.49892  -0.49648  -0.49482
 Alpha  occ. eigenvalues --   -0.49240  -0.48928  -0.48851  -0.48627  -0.48403
 Alpha  occ. eigenvalues --   -0.48346  -0.48215  -0.48135  -0.47640  -0.47546
 Alpha  occ. eigenvalues --   -0.47503  -0.47417  -0.47269  -0.46877  -0.46474
 Alpha  occ. eigenvalues --   -0.46456  -0.46169  -0.45931  -0.45766  -0.45458
 Alpha  occ. eigenvalues --   -0.45317  -0.45260  -0.45150  -0.44997  -0.44799
 Alpha  occ. eigenvalues --   -0.44721  -0.44575  -0.44268  -0.43943  -0.43874
 Alpha  occ. eigenvalues --   -0.43800  -0.43695  -0.43412  -0.43028  -0.42802
 Alpha  occ. eigenvalues --   -0.42784  -0.42564  -0.42466  -0.42131  -0.42004
 Alpha  occ. eigenvalues --   -0.41794  -0.41314  -0.41286  -0.41027  -0.40572
 Alpha  occ. eigenvalues --   -0.40524  -0.40415  -0.40272  -0.39726  -0.39238
 Alpha  occ. eigenvalues --   -0.39151  -0.38830  -0.38729  -0.38211  -0.37924
 Alpha  occ. eigenvalues --   -0.37862  -0.37129  -0.36742  -0.36498  -0.36047
 Alpha  occ. eigenvalues --   -0.35419  -0.35055  -0.34816  -0.33536  -0.33239
 Alpha  occ. eigenvalues --   -0.32283  -0.31862  -0.31602  -0.31519  -0.25875
 Alpha  occ. eigenvalues --   -0.22796
 Alpha virt. eigenvalues --   -0.06875  -0.00217   0.02072   0.03961   0.06063
 Alpha virt. eigenvalues --    0.06384   0.06681   0.07632   0.08324   0.08860
 Alpha virt. eigenvalues --    0.10141   0.11451   0.11945   0.12014   0.12230

 Mulliken charges:
               1
     1  Mg   0.946913
     2  C    0.027990
     3  C   -0.097331
     4  C   -0.056693
     5  C   -0.023445
     6  N   -0.345929
     7  C    0.004378
     8  C   -0.129718
     9  C   -0.108436
    10  C    0.043285
    11  C    0.015788
    12  C    0.057544
    13  C    0.027448
    14  C    0.185085
    15  O   -0.260308
    16  O   -0.325731
    17  N   -0.481677
    18  C    0.225343
    19  C   -0.166155
    20  C   -0.087293
    21  C    0.188550
    22  C    0.055710
    23  C    0.077340
    24  O   -0.248974
    25  C   -0.030011
    26  N   -0.321141
    27  C   -0.000622
    28  C   -0.086833
    29  C   -0.065577
    30  C    0.055261
    31  C    0.015211
    32  C   -0.009498
    33  C   -0.046993
    34  N   -0.430732
    35  C    0.056176
    36  C   -0.178673
    37  C   -0.001146
    38  C    0.123236
    39  C    0.069853
    40  C    0.064986
    41  O   -0.219058
    42  C   -0.132682
    43  C    0.318173
    44  O   -0.252697
    45  O   -0.371232
    46  C    0.138529
    47  C    0.249417
    48  C   -0.163428
    49  C   -0.179249
    50  C    0.042641
    51  C    0.005391
    52  C    0.010853
    53  C    0.019917
    54  C   -0.209798
    55  C   -0.005228
    56  C    0.003914
    57  C   -0.030068
    58  C   -0.028514
    59  C   -0.213910
    60  C    0.013190
    61  C    0.020917
    62  C   -0.010493
    63  C   -0.038499
    64  C   -0.216069
    65  C    0.011380
    66  C    0.005302
    67  H   -0.000367
    68  H    0.034771
    69  H   -0.014118
    70  H    0.070238
    71  H    0.032908
    72  H    0.064058
    73  H    0.021161
    74  H    0.035633
    75  H    0.030483
    76  H    0.046005
    77  H    0.060142
    78  H    0.045524
    79  H    0.048612
    80  H    0.053649
    81  H    0.040626
    82  H    0.076642
    83  H    0.051398
    84  H    0.051227
    85  H    0.050924
    86  H    0.039240
    87  H    0.031671
    88  H    0.041846
    89  H    0.048868
    90  H    0.032365
    91  H    0.030176
    92  H    0.039631
    93  H    0.022087
    94  H    0.042481
    95  H    0.040150
    96  H    0.051910
    97  H    0.065899
    98  H    0.075159
    99  H    0.052340
   100  H    0.060639
   101  H    0.055222
   102  H    0.053780
   103  H    0.012671
   104  H    0.012035
   105  H    0.033107
   106  H    0.036508
   107  H    0.047766
   108  H    0.041648
   109  H    0.005745
   110  H    0.028077
   111  H    0.028110
   112  H    0.000356
   113  H    0.019233
   114  H    0.022764
   115  H    0.026610
   116  H    0.037374
   117  H    0.031873
   118  H    0.020025
   119  H    0.000756
   120  H    0.040202
   121  H    0.033384
   122  H    0.020873
   123  H    0.026712
   124  H    0.012256
   125  H    0.031257
   126  H    0.020454
   127  H    0.032698
   128  H    0.014255
   129  H   -0.000412
   130  H    0.027556
   131  H    0.029498
   132  H    0.011300
   133  H    0.022051
   134  H    0.020591
   135  H    0.034128
   136  H    0.034403
   137  H    0.017319
   138  H    0.035179
   139  H    0.014770
   140  H    0.028009
 Sum of Mulliken charges =  -0.00000

 Dipole moment (field-independent basis, Debye):
    X=              3.9237    Y=              3.7732    Z=             -3.3695  Tot=              6.4020
 Quadrupole moment (field-independent basis, Debye-Ang):
   XX=           -366.1375   YY=           -421.6385   ZZ=           -404.8391
   XY=            -18.1292   XZ=             -3.9020   YZ=              8.7584

 Normal termination of Gaussian 16 at Wed May  4 05:18:17 2022.
