 Gaussian 16, Revision A.03,
 Gaussian 16:  ES64L-G16RevA.03 25-Dec-2016

 --------------------
 #p ZINDO=(nstates=5)
 --------------------

 -----------------------------
 step_1351_chromophore_9 ZINDO
 -----------------------------
 Symbolic Z-matrix:
 Charge =  0 Multiplicity = 1

                         Standard orientation:
 ---------------------------------------------------------------------
 Center     Atomic      Atomic             Coordinates (Angstroms)
 Number     Number       Type             X           Y           Z
 ---------------------------------------------------------------------
      1         12           0       -4.822853    0.743022   -0.189321
      2          6           0       -3.531103   -2.490152   -0.020186
      3          6           0       -1.629743    1.964335   -0.608434
      4          6           0       -6.049001    3.857317    0.265992
      5          6           0       -8.015318   -0.471761    0.649722
      6          7           0       -2.784916   -0.195048   -0.405396
      7          6           0       -2.545016   -1.553208   -0.319643
      8          6           0       -1.054526   -1.864013   -0.450172
      9          6           0       -0.434900   -0.389324   -0.413056
     10          6           0       -1.662702    0.551537   -0.450081
     11          6           0        0.542419   -0.011036    0.717848
     12          6           0       -0.829366   -2.659065   -1.711355
     13          6           0        0.092851   -3.881525   -1.517518
     14          6           0        1.263637   -3.691842   -0.464791
     15          8           0        1.333039   -4.178209    0.663877
     16          8           0        2.234833   -2.949231   -1.090688
     17          7           0       -4.014554    2.661950   -0.259928
     18          6           0       -2.659956    2.921536   -0.435944
     19          6           0       -2.452741    4.342740   -0.276050
     20          6           0       -3.762184    4.957036   -0.144551
     21          6           0       -4.724158    3.806360   -0.037359
     22          6           0       -1.084549    5.005270   -0.218543
     23          6           0       -4.179070    6.465205   -0.078319
     24          8           0       -5.371557    6.817282    0.033584
     25          6           0       -3.126207    7.572264   -0.271782
     26          7           0       -6.929322    1.554075   -0.023875
     27          6           0       -7.093626    2.893498    0.163780
     28          6           0       -8.633315    3.214469    0.323415
     29          6           0       -9.245209    1.762859    0.516006
     30          6           0       -8.086609    0.879793    0.231920
     31          6           0       -8.939583    4.127508    1.526985
     32          6           0      -10.569611    1.413725   -0.300952
     33          6           0      -10.221422    0.770353   -1.631984
     34          7           0       -5.650061   -1.111891    0.253823
     35          6           0       -6.967370   -1.415579    0.604646
     36          6           0       -7.015535   -2.897110    0.656681
     37          6           0       -5.689392   -3.357832    0.439340
     38          6           0       -4.921443   -2.191047    0.185628
     39          6           0       -8.323213   -3.676655    0.865164
     40          6           0       -4.883213   -4.485900    0.229114
     41          8           0       -5.166884   -5.683334    0.286834
     42          6           0       -3.399884   -3.992368    0.076816
     43          6           0       -2.615468   -4.414315    1.278016
     44          8           0       -2.253635   -3.749010    2.257476
     45          8           0       -2.131484   -5.661060    0.969278
     46          6           0       -1.137793   -6.358027    1.775321
     47          6           0        3.333101   -2.659275   -0.255519
     48          6           0        4.535715   -2.180386   -1.069169
     49          6           0        5.465415   -2.906921   -1.798148
     50          6           0        5.493055   -4.356841   -1.712125
     51          6           0        6.412782   -2.213820   -2.720312
     52          6           0        7.583448   -1.429175   -2.108184
     53          6           0        8.424805   -0.825583   -3.256996
     54          6           0        8.234973    0.731226   -3.411741
     55          6           0        8.214600    1.111220   -4.922312
     56          6           0        9.396474    1.515358   -2.820148
     57          6           0        8.851437    2.388108   -1.649685
     58          6           0       10.125848    3.180897   -1.063416
     59          6           0       10.461677    2.912848    0.546214
     60          6           0       11.547406    3.928606    0.988198
     61          6           0       10.840146    1.438032    0.807064
     62          6           0        9.946906    0.719999    1.915909
     63          6           0       10.765433    0.394893    3.164035
     64          6           0       10.244771    0.999557    4.539558
     65          6           0       11.353108    0.671419    5.555912
     66          6           0        8.832910    0.525958    4.847033
     67          1           0       -0.579368    2.218785   -0.763464
     68          1           0       -6.574354    4.813830    0.316359
     69          1           0       -8.881849   -1.104512    0.851941
     70          1           0       -0.589013   -2.335659    0.415200
     71          1           0        0.185999   -0.337379   -1.307747
     72          1           0        0.401637   -0.628631    1.605709
     73          1           0        0.347903    1.020798    1.012228
     74          1           0        1.569001    0.087933    0.365499
     75          1           0       -0.403977   -2.037500   -2.499372
     76          1           0       -1.778710   -3.010997   -2.113586
     77          1           0        0.589811   -4.161764   -2.446666
     78          1           0       -0.538081   -4.660598   -1.090440
     79          1           0       -1.111964    5.873605    0.439555
     80          1           0       -0.735747    5.372682   -1.183451
     81          1           0       -0.290284    4.338047    0.117525
     82          1           0       -2.720416    7.927041    0.675220
     83          1           0       -3.675390    8.409812   -0.701669
     84          1           0       -2.402994    7.335965   -1.052034
     85          1           0       -8.993899    3.650815   -0.608844
     86          1           0       -9.433336    1.576357    1.572924
     87          1           0       -9.634979    3.673362    2.233236
     88          1           0       -9.429278    5.042221    1.192694
     89          1           0       -8.067307    4.344340    2.144286
     90          1           0      -11.196182    2.293996   -0.448683
     91          1           0      -11.191106    0.674627    0.204183
     92          1           0       -9.341458    1.179306   -2.128481
     93          1           0      -10.915202    1.035250   -2.430729
     94          1           0      -10.310373   -0.304432   -1.472523
     95          1           0       -9.133008   -3.209374    0.305096
     96          1           0       -8.566604   -3.542119    1.918907
     97          1           0       -8.227413   -4.733347    0.617508
     98          1           0       -3.003378   -4.490172   -0.808686
     99          1           0       -1.528004   -7.374115    1.815825
    100          1           0       -0.988759   -5.942622    2.771611
    101          1           0       -0.149636   -6.383505    1.314043
    102          1           0        3.720941   -3.367092    0.476384
    103          1           0        3.035219   -1.827362    0.383084
    104          1           0        4.651825   -1.096057   -1.074357
    105          1           0        4.903735   -4.834013   -0.929297
    106          1           0        6.530307   -4.638812   -1.527728
    107          1           0        5.153417   -4.813142   -2.641754
    108          1           0        5.901547   -1.675816   -3.518825
    109          1           0        6.921513   -3.011241   -3.260173
    110          1           0        8.150933   -2.129249   -1.495997
    111          1           0        7.213900   -0.536306   -1.604487
    112          1           0        8.205243   -1.219679   -4.249318
    113          1           0        9.450868   -1.174537   -3.137075
    114          1           0        7.355639    1.106104   -2.888508
    115          1           0        7.386277    0.563319   -5.371128
    116          1           0        9.175411    0.859342   -5.372594
    117          1           0        8.011556    2.179773   -4.994831
    118          1           0       10.075166    1.999452   -3.520909
    119          1           0       10.049442    0.712029   -2.478826
    120          1           0        8.409078    1.783118   -0.857625
    121          1           0        8.215164    3.189040   -2.025132
    122          1           0        9.895534    4.240343   -1.183626
    123          1           0       11.057316    2.950859   -1.580959
    124          1           0        9.551941    3.067418    1.126988
    125          1           0       12.154529    4.310855    0.167123
    126          1           0       12.229168    3.441888    1.686435
    127          1           0       11.006123    4.726908    1.496159
    128          1           0       11.914238    1.368579    0.977792
    129          1           0       10.688158    1.029092   -0.191770
    130          1           0        9.594514   -0.247133    1.557761
    131          1           0        9.143960    1.406487    2.184468
    132          1           0       11.773324    0.771654    2.988681
    133          1           0       10.918756   -0.683849    3.193310
    134          1           0       10.223320    2.088361    4.585963
    135          1           0       11.856225    1.624050    5.721861
    136          1           0       12.044122   -0.105337    5.229174
    137          1           0       10.830446    0.323149    6.446253
    138          1           0        8.172975    1.284670    5.267139
    139          1           0        8.839635   -0.288459    5.572450
    140          1           0        8.379811    0.051185    3.976247
 ---------------------------------------------------------------------

 SCF Done:  E(RZINDO/S) =  -474.063271137     A.U. after   19 cycles

 Excitation energies and oscillator strengths:

 Excited State   1:      Singlet-A      1.2277 eV 1009.88 nm  f=0.5461  <S**2>=0.000
     175 ->178         0.17084
     176 ->177         0.66818
 This state for optimization and/or second-order correction.
 Total Energy, E(CIS/TDA) =  -474.018153600
 Copying the excited state density for this state as the 1-particle RhoCI density.

 Excited State   2:      Singlet-A      1.9181 eV  646.38 nm  f=0.0314  <S**2>=0.000
     175 ->177         0.53473
     176 ->178        -0.43317

 Excited State   3:      Singlet-A      2.9089 eV  426.22 nm  f=0.4335  <S**2>=0.000
     167 ->179         0.13948
     167 ->180        -0.10699
     168 ->177        -0.13409
     168 ->179         0.13631
     175 ->177         0.22936
     176 ->178         0.33282
     176 ->179         0.42837

 Excited State   4:      Singlet-A      2.9574 eV  419.23 nm  f=0.0801  <S**2>=0.000
     167 ->177         0.15048
     167 ->179        -0.19933
     167 ->180         0.13448
     167 ->186        -0.11910
     168 ->177         0.17598
     168 ->179        -0.18920
     168 ->180         0.13909
     168 ->186        -0.10901
     175 ->177        -0.10367
     176 ->178        -0.10793
     176 ->179         0.44059
     176 ->180         0.18305

 Excited State   5:      Singlet-A      2.9896 eV  414.72 nm  f=0.5922  <S**2>=0.000
     167 ->177         0.14369
     167 ->179        -0.16465
     167 ->180         0.10222
     167 ->186        -0.10681
     168 ->177         0.11850
     168 ->179        -0.15598
     168 ->180         0.12733
     171 ->177         0.11541
     175 ->177         0.30065
     176 ->178         0.37621
     176 ->179        -0.17342
     176 ->180        -0.15527

 The electronic state is 1-A.
 Alpha  occ. eigenvalues --   -1.83429  -1.79418  -1.79185  -1.74612  -1.70616
 Alpha  occ. eigenvalues --   -1.69788  -1.65395  -1.60835  -1.57307  -1.56804
 Alpha  occ. eigenvalues --   -1.55008  -1.51415  -1.49130  -1.47679  -1.46304
 Alpha  occ. eigenvalues --   -1.44734  -1.42357  -1.39246  -1.38715  -1.37910
 Alpha  occ. eigenvalues --   -1.36332  -1.33012  -1.32376  -1.31618  -1.28354
 Alpha  occ. eigenvalues --   -1.28068  -1.24845  -1.22031  -1.21095  -1.17737
 Alpha  occ. eigenvalues --   -1.17576  -1.17249  -1.15247  -1.13912  -1.11803
 Alpha  occ. eigenvalues --   -1.11711  -1.10464  -1.09271  -1.04123  -1.03579
 Alpha  occ. eigenvalues --   -1.01745  -1.00874  -0.98298  -0.97706  -0.97190
 Alpha  occ. eigenvalues --   -0.96073  -0.94509  -0.93946  -0.92715  -0.92485
 Alpha  occ. eigenvalues --   -0.91566  -0.90225  -0.89404  -0.87987  -0.85690
 Alpha  occ. eigenvalues --   -0.85563  -0.85482  -0.84235  -0.81790  -0.81275
 Alpha  occ. eigenvalues --   -0.79383  -0.78537  -0.78364  -0.76763  -0.76616
 Alpha  occ. eigenvalues --   -0.75952  -0.75228  -0.75162  -0.74498  -0.73381
 Alpha  occ. eigenvalues --   -0.73105  -0.72586  -0.72159  -0.71883  -0.70986
 Alpha  occ. eigenvalues --   -0.70116  -0.69715  -0.69278  -0.69059  -0.68255
 Alpha  occ. eigenvalues --   -0.68052  -0.66163  -0.66066  -0.65848  -0.65262
 Alpha  occ. eigenvalues --   -0.64471  -0.64179  -0.63745  -0.63624  -0.63273
 Alpha  occ. eigenvalues --   -0.63054  -0.62859  -0.62192  -0.61963  -0.61767
 Alpha  occ. eigenvalues --   -0.61571  -0.60941  -0.60723  -0.60519  -0.60054
 Alpha  occ. eigenvalues --   -0.59829  -0.59641  -0.59244  -0.59102  -0.58603
 Alpha  occ. eigenvalues --   -0.57776  -0.57516  -0.57351  -0.57149  -0.56809
 Alpha  occ. eigenvalues --   -0.56266  -0.55348  -0.54946  -0.54489  -0.54378
 Alpha  occ. eigenvalues --   -0.53730  -0.53623  -0.53447  -0.52942  -0.52703
 Alpha  occ. eigenvalues --   -0.52394  -0.52149  -0.52001  -0.51628  -0.51347
 Alpha  occ. eigenvalues --   -0.51258  -0.51056  -0.50508  -0.50365  -0.50313
 Alpha  occ. eigenvalues --   -0.49866  -0.49609  -0.49263  -0.48912  -0.48305
 Alpha  occ. eigenvalues --   -0.48194  -0.48016  -0.47878  -0.47501  -0.47472
 Alpha  occ. eigenvalues --   -0.47130  -0.47038  -0.46798  -0.46611  -0.46486
 Alpha  occ. eigenvalues --   -0.46428  -0.46172  -0.45955  -0.45729  -0.45496
 Alpha  occ. eigenvalues --   -0.45226  -0.44872  -0.44827  -0.44307  -0.44243
 Alpha  occ. eigenvalues --   -0.44134  -0.43244  -0.42664  -0.42238  -0.41984
 Alpha  occ. eigenvalues --   -0.41440  -0.41001  -0.40374  -0.39335  -0.38742
 Alpha  occ. eigenvalues --   -0.38036  -0.36848  -0.36249  -0.34459  -0.33881
 Alpha  occ. eigenvalues --   -0.33790  -0.32312  -0.31696  -0.31653  -0.26699
 Alpha  occ. eigenvalues --   -0.21579
 Alpha virt. eigenvalues --   -0.08428  -0.02093  -0.00915   0.00830   0.01543
 Alpha virt. eigenvalues --    0.02748   0.02905   0.03072   0.04006   0.04258
 Alpha virt. eigenvalues --    0.05681   0.06288   0.06428   0.07715   0.08219

 Mulliken charges:
               1
     1  Mg   0.424062
     2  C   -0.040254
     3  C   -0.093386
     4  C   -0.064922
     5  C   -0.060967
     6  N   -0.287339
     7  C    0.104862
     8  C    0.002472
     9  C   -0.000625
    10  C    0.165962
    11  C   -0.051393
    12  C   -0.012658
    13  C   -0.001295
    14  C    0.459407
    15  O   -0.508298
    16  O   -0.251811
    17  N   -0.335375
    18  C    0.140451
    19  C    0.024762
    20  C   -0.048535
    21  C    0.162596
    22  C   -0.039746
    23  C    0.326103
    24  O   -0.515613
    25  C   -0.032215
    26  N   -0.269809
    27  C    0.154829
    28  C    0.009754
    29  C    0.004286
    30  C    0.098482
    31  C   -0.051101
    32  C   -0.027418
    33  C   -0.059000
    34  N   -0.296549
    35  C    0.044831
    36  C    0.022879
    37  C   -0.066887
    38  C    0.117564
    39  C   -0.040277
    40  C    0.330499
    41  O   -0.547244
    42  C    0.059018
    43  C    0.493440
    44  O   -0.523138
    45  O   -0.273123
    46  C    0.076325
    47  C    0.107790
    48  C   -0.119520
    49  C    0.011068
    50  C   -0.033255
    51  C   -0.015928
    52  C   -0.028355
    53  C   -0.040799
    54  C   -0.021486
    55  C   -0.057359
    56  C   -0.041152
    57  C   -0.038824
    58  C   -0.058606
    59  C   -0.026363
    60  C   -0.057930
    61  C   -0.045039
    62  C   -0.038949
    63  C   -0.036152
    64  C   -0.012310
    65  C   -0.060821
    66  C   -0.054271
    67  H    0.026521
    68  H    0.040537
    69  H    0.024791
    70  H    0.055095
    71  H    0.025519
    72  H    0.038550
    73  H    0.012131
    74  H    0.022979
    75  H    0.020320
    76  H    0.025436
    77  H    0.040309
    78  H    0.041281
    79  H    0.025176
    80  H    0.031877
    81  H    0.027918
    82  H    0.050740
    83  H    0.032578
    84  H    0.032798
    85  H    0.041944
    86  H    0.029891
    87  H    0.015935
    88  H    0.021646
    89  H    0.028834
    90  H    0.019847
    91  H    0.020889
    92  H    0.028481
    93  H    0.003202
    94  H    0.029918
    95  H    0.024973
    96  H    0.030387
    97  H    0.036643
    98  H    0.058478
    99  H    0.033650
   100  H    0.051508
   101  H    0.040990
   102  H    0.057271
   103  H    0.025936
   104  H    0.016561
   105  H    0.023795
   106  H    0.023093
   107  H    0.028042
   108  H    0.030192
   109  H    0.006168
   110  H    0.029788
   111  H    0.027450
   112  H    0.013710
   113  H    0.018652
   114  H    0.028548
   115  H    0.011264
   116  H    0.026761
   117  H    0.015006
   118  H    0.028931
   119  H    0.010967
   120  H    0.034380
   121  H    0.026428
   122  H    0.011979
   123  H    0.025636
   124  H    0.020414
   125  H    0.023766
   126  H    0.016602
   127  H    0.017361
   128  H    0.024502
   129  H    0.013988
   130  H    0.021388
   131  H    0.027994
   132  H    0.010660
   133  H    0.020833
   134  H    0.022501
   135  H    0.020251
   136  H    0.024556
   137  H    0.016587
   138  H    0.020786
   139  H    0.012537
   140  H    0.017600
 Sum of Mulliken charges =  -0.00000

 Dipole moment (field-independent basis, Debye):
    X=              6.7106    Y=              6.4598    Z=             -5.2707  Tot=             10.7024
 N-N= 4.400400057943D+03 E-N= 0.000000000000D+00  KE=-9.475146487461D+03
 Leave Link  601 at Wed May  4 05:30:07 2022, MaxMem=  6710886400 cpu:               0.7 elap:               0.0
 (Enter /sw/apps/gaussian-16.0/g16/l9999.exe)
 1\1\GINC-BP1-COMPUTE102\SP\RZINDO CIS\STO-3G\C55H74Mg1N4O6\OF15641\04-
 May-2022\0\\#p ZINDO=(nstates=5)\\step_1351_chromophore_9 ZINDO\\0,1\M
 g,0,35.52,1.288,29.845\C,0,33.312,2.19,32.387\C,0,38.043,1.017,32.174\
 C,0,37.723,1.025,27.298\C,0,33.049,1.968,27.436\N,0,35.631,1.479,32.08
 8\C,0,34.563,1.838,32.888\C,0,34.976,1.936,34.356\C,0,36.563,1.773,34.
 234\C,0,36.807,1.426,32.746\C,0,37.477,2.919,34.712\C,0,34.247,0.875,3
 5.141\C,0,33.63,1.392,36.458\C,0,34.461,2.518,37.204\O,0,34.191,3.717,

 Normal termination of Gaussian 16 at Wed May  4 05:30:07 2022.
