 Gaussian 16, Revision A.03,
 Gaussian 16:  ES64L-G16RevA.03 25-Dec-2016

 ------------------------------
 #p blyp/Def2SVP td=(nstates=5)
 ------------------------------

 --------------------------------------------------
 step_1751_chromophore_5 TDDFT with blyp functional
 --------------------------------------------------
 Symbolic Z-matrix:
 Charge =  0 Multiplicity = 1

                         Standard orientation:
 ---------------------------------------------------------------------
 Center     Atomic      Atomic             Coordinates (Angstroms)
 Number     Number       Type             X           Y           Z
 ---------------------------------------------------------------------
      1         12           0        5.615406    0.593413   -0.362570
      2          6           0        4.264174   -2.602304   -0.125743
      3          6           0        2.947492    1.668391   -2.086846
      4          6           0        6.382910    3.868074    0.472159
      5          6           0        8.149743   -0.472682    2.007267
      6          7           0        3.811292   -0.397598   -0.916895
      7          6           0        3.412864   -1.702925   -0.746459
      8          6           0        2.037177   -1.914454   -1.293042
      9          6           0        1.754357   -0.649114   -2.169305
     10          6           0        2.924656    0.308070   -1.692915
     11          6           0        1.921222   -0.923471   -3.791059
     12          6           0        0.949807   -2.223029   -0.167396
     13          6           0        0.117178   -3.541897   -0.260236
     14          6           0       -1.477056   -3.557471   -0.519319
     15          8           0       -2.352494   -4.342342   -0.107880
     16          8           0       -1.788262   -2.530758   -1.466408
     17          7           0        4.902855    2.533338   -0.931009
     18          6           0        3.850540    2.728388   -1.695560
     19          6           0        3.715311    4.210612   -1.935517
     20          6           0        4.729778    4.915038   -1.254650
     21          6           0        5.422428    3.789757   -0.555670
     22          6           0        2.488353    4.869374   -2.769363
     23          6           0        5.030255    6.381644   -1.404230
     24          8           0        4.386809    7.198550   -2.018637
     25          6           0        6.356539    6.837060   -0.876477
     26          7           0        6.997970    1.493057    1.105123
     27          6           0        7.181967    2.839841    1.014676
     28          6           0        8.614242    3.267700    1.546948
     29          6           0        9.221007    1.882591    1.993902
     30          6           0        8.087969    0.912023    1.800527
     31          6           0        9.433578    4.078558    0.548007
     32          6           0        9.715548    1.955765    3.492705
     33          6           0       11.115312    1.388667    3.758870
     34          7           0        6.132456   -1.207809    0.644648
     35          6           0        7.175428   -1.424684    1.532659
     36          6           0        7.146105   -2.826809    1.932277
     37          6           0        6.058268   -3.359695    1.292050
     38          6           0        5.447566   -2.326477    0.526071
     39          6           0        8.063669   -3.519300    2.890230
     40          6           0        5.214908   -4.556109    1.116626
     41          8           0        5.464169   -5.682587    1.543950
     42          6           0        4.014171   -4.077775    0.194234
     43          6           0        3.899224   -5.051711   -1.067453
     44          8           0        4.627323   -4.920952   -2.015175
     45          8           0        2.939618   -6.049184   -1.024387
     46          6           0        2.451259   -6.598194   -2.321249
     47          6           0       -3.205510   -2.271301   -1.773562
     48          6           0       -3.591806   -1.061152   -0.869826
     49          6           0       -4.632186   -0.784672   -0.034267
     50          6           0       -5.727625   -1.715115    0.449491
     51          6           0       -4.955662    0.621006    0.331589
     52          6           0       -5.957029    1.361652   -0.609241
     53          6           0       -7.327429    1.709010    0.064675
     54          6           0       -8.546916    1.524629   -0.826020
     55          6           0       -9.705730    2.493211   -0.312958
     56          6           0       -9.115870    0.065159   -1.033013
     57          6           0       -9.992910   -0.615071    0.069231
     58          6           0      -11.319438   -1.131099   -0.433803
     59          6           0      -12.510164   -0.284274    0.120249
     60          6           0      -13.518878   -0.034549   -0.946346
     61          6           0      -13.098843   -0.962221    1.389607
     62          6           0      -13.372890    0.059766    2.503039
     63          6           0      -14.798338    0.624893    2.384947
     64          6           0      -14.686604    2.068801    1.756590
     65          6           0      -14.393996    3.145806    2.838245
     66          6           0      -16.008722    2.346619    0.918279
     67          1           0        2.094700    2.041682   -2.658005
     68          1           0        6.657305    4.887689    0.752173
     69          1           0        8.848999   -0.858150    2.752148
     70          1           0        2.064111   -2.749798   -1.991921
     71          1           0        0.796433   -0.150986   -2.025113
     72          1           0        1.821812   -1.967868   -4.088965
     73          1           0        2.891504   -0.680261   -4.224356
     74          1           0        1.140500   -0.415843   -4.356870
     75          1           0        0.217677   -1.430866   -0.010764
     76          1           0        1.432829   -2.149165    0.807525
     77          1           0        0.387871   -4.260927    0.512841
     78          1           0        0.357233   -4.022448   -1.208593
     79          1           0        2.835336    5.488012   -3.597732
     80          1           0        1.988867    5.525348   -2.056800
     81          1           0        1.714309    4.198592   -3.140304
     82          1           0        7.152595    6.110084   -1.038941
     83          1           0        6.231846    6.890218    0.204076
     84          1           0        6.667477    7.808221   -1.260962
     85          1           0        8.410914    3.834498    2.455684
     86          1           0       10.035727    1.597954    1.327699
     87          1           0        8.761629    4.344547   -0.267841
     88          1           0       10.216339    3.579518   -0.023630
     89          1           0        9.763707    4.962880    1.092843
     90          1           0        9.024645    1.412713    4.136858
     91          1           0        9.794046    2.979676    3.857245
     92          1           0       11.879635    2.163461    3.690157
     93          1           0       11.404057    0.772695    2.907552
     94          1           0       11.228744    0.718788    4.610455
     95          1           0        7.527402   -3.455458    3.837720
     96          1           0        9.089857   -3.159465    2.965548
     97          1           0        8.058107   -4.581266    2.645161
     98          1           0        3.047220   -4.219502    0.677653
     99          1           0        2.909291   -7.546602   -2.603272
    100          1           0        2.847822   -6.045637   -3.172443
    101          1           0        1.363832   -6.599691   -2.248028
    102          1           0       -3.887361   -3.097885   -1.574181
    103          1           0       -3.328406   -2.051567   -2.834128
    104          1           0       -3.123892   -0.111478   -1.130638
    105          1           0       -5.715005   -1.914890    1.520768
    106          1           0       -5.659141   -2.676064   -0.061077
    107          1           0       -6.694489   -1.245313    0.272351
    108          1           0       -4.091404    1.216896    0.623835
    109          1           0       -5.506636    0.606660    1.272049
    110          1           0       -6.117859    0.760760   -1.504413
    111          1           0       -5.528957    2.272861   -1.027187
    112          1           0       -7.360921    2.765762    0.329381
    113          1           0       -7.501348    1.139196    0.976736
    114          1           0       -8.371502    2.010246   -1.785575
    115          1           0      -10.635433    2.124215   -0.746161
    116          1           0       -9.592441    3.504959   -0.701945
    117          1           0       -9.910486    2.452120    0.757147
    118          1           0       -8.204553   -0.521316   -1.155859
    119          1           0       -9.595752    0.160641   -2.006223
    120          1           0      -10.086554    0.073556    0.908598
    121          1           0       -9.421989   -1.454379    0.467142
    122          1           0      -11.358541   -2.174237   -0.119188
    123          1           0      -11.297247   -0.994491   -1.515766
    124          1           0      -12.104735    0.696569    0.371298
    125          1           0      -13.220602    0.849158   -1.510930
    126          1           0      -14.528327    0.177784   -0.592822
    127          1           0      -13.568217   -0.921859   -1.578092
    128          1           0      -12.352449   -1.722988    1.613021
    129          1           0      -14.009479   -1.470897    1.073451
    130          1           0      -12.615424    0.839396    2.579534
    131          1           0      -13.280091   -0.507774    3.429424
    132          1           0      -15.376081    0.700385    3.305697
    133          1           0      -15.351434   -0.061986    1.744153
    134          1           0      -13.877429    2.068305    1.025706
    135          1           0      -15.313083    3.350626    3.387722
    136          1           0      -14.119901    4.100625    2.389538
    137          1           0      -13.614110    2.911415    3.562331
    138          1           0      -15.845087    3.287691    0.394074
    139          1           0      -16.738728    2.498546    1.712841
    140          1           0      -16.381887    1.479138    0.372888
 ---------------------------------------------------------------------

 SCF Done:  E(RB-LYP) =  -3007.36642012     A.U. after   21 cycles

 Excitation energies and oscillator strengths:

 Excited State   1:      Singlet-A      1.7769 eV  697.77 nm  f=0.2964  <S**2>=0.000
     245 -> 248        0.18341
     246 -> 247        0.68991
     246 <- 247       -0.14961
 This state for optimization and/or second-order correction.
 Total Energy, E(TD-HF/TD-DFT) =  -3007.30112159
 Copying the excited state density for this state as the 1-particle RhoCI density.

 Excited State   2:      Singlet-A      1.9575 eV  633.39 nm  f=0.0110  <S**2>=0.000
     244 -> 247        0.58053
     245 -> 247       -0.37910
     246 -> 248        0.12243

 Excited State   3:      Singlet-A      2.0574 eV  602.61 nm  f=0.0318  <S**2>=0.000
     244 -> 247        0.39716
     245 -> 247        0.50119
     246 -> 248       -0.27150

 Excited State   4:      Singlet-A      2.1630 eV  573.22 nm  f=0.0002  <S**2>=0.000
     243 -> 247        0.70354

 Excited State   5:      Singlet-A      2.4702 eV  501.92 nm  f=0.0003  <S**2>=0.000
     241 -> 247        0.67297
     242 -> 247        0.21601

 The electronic state is 1-A.
 Alpha  occ. eigenvalues --  -46.28561 -18.81727 -18.81640 -18.77743 -18.76578
 Alpha  occ. eigenvalues --  -18.76266 -18.75794 -14.03736 -14.03702 -14.02121
 Alpha  occ. eigenvalues --  -14.00687 -10.05351 -10.04096 -10.00542  -9.99892
 Alpha  occ. eigenvalues --   -9.98606  -9.98065  -9.97422  -9.97178  -9.97084
 Alpha  occ. eigenvalues --   -9.96803  -9.96592  -9.96578  -9.95485  -9.95265
 Alpha  occ. eigenvalues --   -9.95236  -9.95096  -9.94968  -9.94873  -9.94248
 Alpha  occ. eigenvalues --   -9.94208  -9.94130  -9.93928  -9.93683  -9.93488
 Alpha  occ. eigenvalues --   -9.93469  -9.93411  -9.93349  -9.93313  -9.93079
 Alpha  occ. eigenvalues --   -9.93022  -9.92954  -9.92800  -9.92734  -9.92318
 Alpha  occ. eigenvalues --   -9.92314  -9.92236  -9.92139  -9.92022  -9.91983
 Alpha  occ. eigenvalues --   -9.91949  -9.91909  -9.91802  -9.91570  -9.91529
 Alpha  occ. eigenvalues --   -9.91262  -9.91247  -9.91035  -9.91004  -9.90988
 Alpha  occ. eigenvalues --   -9.90987  -9.90895  -9.90787  -9.90781  -9.90458
 Alpha  occ. eigenvalues --   -9.90235  -2.93030  -1.73423  -1.72911  -1.72758
 Alpha  occ. eigenvalues --   -0.97226  -0.95717  -0.92969  -0.90757  -0.89536
 Alpha  occ. eigenvalues --   -0.88798  -0.86779  -0.86279  -0.85512  -0.84653
 Alpha  occ. eigenvalues --   -0.75096  -0.73766  -0.73327  -0.72337  -0.72147
 Alpha  occ. eigenvalues --   -0.71941  -0.71720  -0.70609  -0.70571  -0.70431
 Alpha  occ. eigenvalues --   -0.69487  -0.68431  -0.67777  -0.67543  -0.67162
 Alpha  occ. eigenvalues --   -0.66091  -0.65823  -0.65149  -0.64864  -0.64713
 Alpha  occ. eigenvalues --   -0.64018  -0.62596  -0.62314  -0.61547  -0.60813
 Alpha  occ. eigenvalues --   -0.60504  -0.60150  -0.59828  -0.59678  -0.58784
 Alpha  occ. eigenvalues --   -0.58366  -0.57635  -0.56926  -0.56382  -0.54458
 Alpha  occ. eigenvalues --   -0.54055  -0.53861  -0.53334  -0.53162  -0.51873
 Alpha  occ. eigenvalues --   -0.51863  -0.51721  -0.51007  -0.50638  -0.49846
 Alpha  occ. eigenvalues --   -0.49368  -0.48619  -0.48609  -0.47742  -0.46514
 Alpha  occ. eigenvalues --   -0.46342  -0.45846  -0.45773  -0.45148  -0.44228
 Alpha  occ. eigenvalues --   -0.43633  -0.43235  -0.43126  -0.42626  -0.42293
 Alpha  occ. eigenvalues --   -0.42207  -0.41671  -0.41435  -0.41214  -0.40997
 Alpha  occ. eigenvalues --   -0.40903  -0.40419  -0.40284  -0.40093  -0.39915
 Alpha  occ. eigenvalues --   -0.39848  -0.39783  -0.39507  -0.39419  -0.39330
 Alpha  occ. eigenvalues --   -0.38771  -0.38663  -0.38382  -0.38161  -0.38048
 Alpha  occ. eigenvalues --   -0.37996  -0.37762  -0.37484  -0.37275  -0.37227
 Alpha  occ. eigenvalues --   -0.37138  -0.36964  -0.36879  -0.36846  -0.36456
 Alpha  occ. eigenvalues --   -0.36288  -0.36191  -0.36006  -0.35671  -0.35390
 Alpha  occ. eigenvalues --   -0.35324  -0.35090  -0.34999  -0.34902  -0.34790
 Alpha  occ. eigenvalues --   -0.34539  -0.34508  -0.34422  -0.34047  -0.33916
 Alpha  occ. eigenvalues --   -0.33635  -0.33443  -0.33255  -0.33238  -0.33179
 Alpha  occ. eigenvalues --   -0.33021  -0.32899  -0.32840  -0.32596  -0.32406
 Alpha  occ. eigenvalues --   -0.32227  -0.31950  -0.31921  -0.31861  -0.31625
 Alpha  occ. eigenvalues --   -0.31558  -0.31437  -0.31205  -0.31104  -0.30870
 Alpha  occ. eigenvalues --   -0.30794  -0.30655  -0.30632  -0.30410  -0.30135
 Alpha  occ. eigenvalues --   -0.30091  -0.29371  -0.29291  -0.29263  -0.29235
 Alpha  occ. eigenvalues --   -0.29174  -0.29043  -0.28403  -0.28377  -0.27761
 Alpha  occ. eigenvalues --   -0.27669  -0.27614  -0.27459  -0.26655  -0.26561
 Alpha  occ. eigenvalues --   -0.26459  -0.26362  -0.26144  -0.25642  -0.25353
 Alpha  occ. eigenvalues --   -0.24857  -0.24595  -0.24304  -0.23987  -0.23697
 Alpha  occ. eigenvalues --   -0.23427  -0.22577  -0.22210  -0.21571  -0.21360
 Alpha  occ. eigenvalues --   -0.20627  -0.20558  -0.19403  -0.18752  -0.17601
 Alpha  occ. eigenvalues --   -0.15747
 Alpha virt. eigenvalues --   -0.11544  -0.07551  -0.06215  -0.05134  -0.04136
 Alpha virt. eigenvalues --   -0.03560  -0.02840  -0.02560  -0.01908  -0.00606
 Alpha virt. eigenvalues --    0.00501   0.01690   0.01922   0.02314   0.02717

 Mulliken charges:
               1
     1  Mg   0.697502
     2  C    0.099042
     3  C   -0.029950
     4  C   -0.033335
     5  C   -0.078336
     6  N   -0.248473
     7  C   -0.106905
     8  C    0.077941
     9  C   -0.023730
    10  C    0.061580
    11  C    0.083220
    12  C    0.143051
    13  C    0.080399
    14  C    0.107017
    15  O   -0.188242
    16  O   -0.314325
    17  N   -0.261924
    18  C    0.092882
    19  C   -0.141070
    20  C    0.038153
    21  C    0.078449
    22  C    0.149524
    23  C   -0.067219
    24  O   -0.134889
    25  C    0.104873
    26  N   -0.226634
    27  C    0.025654
    28  C   -0.018153
    29  C    0.049294
    30  C    0.026262
    31  C    0.150230
    32  C    0.087265
    33  C    0.050290
    34  N   -0.203616
    35  C    0.092417
    36  C   -0.208949
    37  C    0.116559
    38  C    0.009308
    39  C    0.174856
    40  C   -0.010261
    41  O   -0.132789
    42  C    0.003454
    43  C    0.096413
    44  O   -0.163921
    45  O   -0.283798
    46  C    0.205483
    47  C    0.325483
    48  C   -0.074789
    49  C   -0.159620
    50  C    0.145026
    51  C    0.127813
    52  C    0.092890
    53  C    0.109027
    54  C   -0.104025
    55  C    0.064397
    56  C    0.095892
    57  C    0.075265
    58  C    0.132538
    59  C   -0.133944
    60  C    0.123867
    61  C    0.133047
    62  C    0.095714
    63  C    0.099440
    64  C   -0.095793
    65  C    0.096561
    66  C    0.089794
    67  H   -0.065242
    68  H   -0.072366
    69  H   -0.049827
    70  H   -0.018925
    71  H   -0.010731
    72  H   -0.010551
    73  H    0.001125
    74  H   -0.002968
    75  H   -0.015975
    76  H   -0.017319
    77  H    0.018205
    78  H    0.009327
    79  H    0.014020
    80  H    0.008028
    81  H   -0.016436
    82  H    0.006100
    83  H    0.016853
    84  H   -0.004157
    85  H   -0.020062
    86  H   -0.012350
    87  H   -0.008997
    88  H   -0.014900
    89  H   -0.000035
    90  H   -0.014623
    91  H   -0.016072
    92  H   -0.009863
    93  H   -0.027155
    94  H   -0.000625
    95  H    0.003861
    96  H    0.000881
    97  H    0.006348
    98  H   -0.010230
    99  H    0.017979
   100  H    0.008059
   101  H    0.034452
   102  H   -0.004351
   103  H    0.002180
   104  H   -0.046032
   105  H   -0.001175
   106  H   -0.014113
   107  H   -0.007631
   108  H   -0.027440
   109  H   -0.047146
   110  H   -0.025285
   111  H   -0.029165
   112  H   -0.032671
   113  H   -0.026453
   114  H   -0.043087
   115  H   -0.026105
   116  H   -0.013192
   117  H   -0.008254
   118  H   -0.034985
   119  H   -0.026975
   120  H   -0.023845
   121  H   -0.041580
   122  H   -0.028179
   123  H   -0.040878
   124  H   -0.028602
   125  H   -0.021823
   126  H   -0.024514
   127  H   -0.019278
   128  H   -0.047433
   129  H   -0.038941
   130  H   -0.023798
   131  H   -0.047832
   132  H   -0.036563
   133  H   -0.043683
   134  H   -0.021929
   135  H   -0.019988
   136  H   -0.018638
   137  H   -0.010336
   138  H   -0.009543
   139  H   -0.029227
   140  H   -0.000525
 Sum of Mulliken charges =  -0.00000

 Dipole moment (field-independent basis, Debye):
    X=              0.1568    Y=              3.8299    Z=             -0.7722  Tot=              3.9101
 Quadrupole moment (field-independent basis, Debye-Ang):
   XX=           -363.0372   YY=           -457.4363   ZZ=           -398.1358
   XY=             27.2135   XZ=             12.2237   YZ=             24.4394

 Normal termination of Gaussian 16 at Fri Apr 29 01:13:04 2022.
