 Gaussian 16, Revision A.03,
 Gaussian 16:  ES64L-G16RevA.03 25-Dec-2016

 -----------------------------------
 #p cam-b3lyp/Def2SVP td=(nstates=5)
 -----------------------------------

 -------------------------------------------------------
 step_1751_chromophore_5 TDDFT with cam-b3lyp functional
 -------------------------------------------------------
 Symbolic Z-matrix:
 Charge =  0 Multiplicity = 1

                         Standard orientation:
 ---------------------------------------------------------------------
 Center     Atomic      Atomic             Coordinates (Angstroms)
 Number     Number       Type             X           Y           Z
 ---------------------------------------------------------------------
      1         12           0        5.615406    0.593413   -0.362570
      2          6           0        4.264174   -2.602304   -0.125743
      3          6           0        2.947492    1.668391   -2.086846
      4          6           0        6.382910    3.868074    0.472159
      5          6           0        8.149743   -0.472682    2.007267
      6          7           0        3.811292   -0.397598   -0.916895
      7          6           0        3.412864   -1.702925   -0.746459
      8          6           0        2.037177   -1.914454   -1.293042
      9          6           0        1.754357   -0.649114   -2.169305
     10          6           0        2.924656    0.308070   -1.692915
     11          6           0        1.921222   -0.923471   -3.791059
     12          6           0        0.949807   -2.223029   -0.167396
     13          6           0        0.117178   -3.541897   -0.260236
     14          6           0       -1.477056   -3.557471   -0.519319
     15          8           0       -2.352494   -4.342342   -0.107880
     16          8           0       -1.788262   -2.530758   -1.466408
     17          7           0        4.902855    2.533338   -0.931009
     18          6           0        3.850540    2.728388   -1.695560
     19          6           0        3.715311    4.210612   -1.935517
     20          6           0        4.729778    4.915038   -1.254650
     21          6           0        5.422428    3.789757   -0.555670
     22          6           0        2.488353    4.869374   -2.769363
     23          6           0        5.030255    6.381644   -1.404230
     24          8           0        4.386809    7.198550   -2.018637
     25          6           0        6.356539    6.837060   -0.876477
     26          7           0        6.997970    1.493057    1.105123
     27          6           0        7.181967    2.839841    1.014676
     28          6           0        8.614242    3.267700    1.546948
     29          6           0        9.221007    1.882591    1.993902
     30          6           0        8.087969    0.912023    1.800527
     31          6           0        9.433578    4.078558    0.548007
     32          6           0        9.715548    1.955765    3.492705
     33          6           0       11.115312    1.388667    3.758870
     34          7           0        6.132456   -1.207809    0.644648
     35          6           0        7.175428   -1.424684    1.532659
     36          6           0        7.146105   -2.826809    1.932277
     37          6           0        6.058268   -3.359695    1.292050
     38          6           0        5.447566   -2.326477    0.526071
     39          6           0        8.063669   -3.519300    2.890230
     40          6           0        5.214908   -4.556109    1.116626
     41          8           0        5.464169   -5.682587    1.543950
     42          6           0        4.014171   -4.077775    0.194234
     43          6           0        3.899224   -5.051711   -1.067453
     44          8           0        4.627323   -4.920952   -2.015175
     45          8           0        2.939618   -6.049184   -1.024387
     46          6           0        2.451259   -6.598194   -2.321249
     47          6           0       -3.205510   -2.271301   -1.773562
     48          6           0       -3.591806   -1.061152   -0.869826
     49          6           0       -4.632186   -0.784672   -0.034267
     50          6           0       -5.727625   -1.715115    0.449491
     51          6           0       -4.955662    0.621006    0.331589
     52          6           0       -5.957029    1.361652   -0.609241
     53          6           0       -7.327429    1.709010    0.064675
     54          6           0       -8.546916    1.524629   -0.826020
     55          6           0       -9.705730    2.493211   -0.312958
     56          6           0       -9.115870    0.065159   -1.033013
     57          6           0       -9.992910   -0.615071    0.069231
     58          6           0      -11.319438   -1.131099   -0.433803
     59          6           0      -12.510164   -0.284274    0.120249
     60          6           0      -13.518878   -0.034549   -0.946346
     61          6           0      -13.098843   -0.962221    1.389607
     62          6           0      -13.372890    0.059766    2.503039
     63          6           0      -14.798338    0.624893    2.384947
     64          6           0      -14.686604    2.068801    1.756590
     65          6           0      -14.393996    3.145806    2.838245
     66          6           0      -16.008722    2.346619    0.918279
     67          1           0        2.094700    2.041682   -2.658005
     68          1           0        6.657305    4.887689    0.752173
     69          1           0        8.848999   -0.858150    2.752148
     70          1           0        2.064111   -2.749798   -1.991921
     71          1           0        0.796433   -0.150986   -2.025113
     72          1           0        1.821812   -1.967868   -4.088965
     73          1           0        2.891504   -0.680261   -4.224356
     74          1           0        1.140500   -0.415843   -4.356870
     75          1           0        0.217677   -1.430866   -0.010764
     76          1           0        1.432829   -2.149165    0.807525
     77          1           0        0.387871   -4.260927    0.512841
     78          1           0        0.357233   -4.022448   -1.208593
     79          1           0        2.835336    5.488012   -3.597732
     80          1           0        1.988867    5.525348   -2.056800
     81          1           0        1.714309    4.198592   -3.140304
     82          1           0        7.152595    6.110084   -1.038941
     83          1           0        6.231846    6.890218    0.204076
     84          1           0        6.667477    7.808221   -1.260962
     85          1           0        8.410914    3.834498    2.455684
     86          1           0       10.035727    1.597954    1.327699
     87          1           0        8.761629    4.344547   -0.267841
     88          1           0       10.216339    3.579518   -0.023630
     89          1           0        9.763707    4.962880    1.092843
     90          1           0        9.024645    1.412713    4.136858
     91          1           0        9.794046    2.979676    3.857245
     92          1           0       11.879635    2.163461    3.690157
     93          1           0       11.404057    0.772695    2.907552
     94          1           0       11.228744    0.718788    4.610455
     95          1           0        7.527402   -3.455458    3.837720
     96          1           0        9.089857   -3.159465    2.965548
     97          1           0        8.058107   -4.581266    2.645161
     98          1           0        3.047220   -4.219502    0.677653
     99          1           0        2.909291   -7.546602   -2.603272
    100          1           0        2.847822   -6.045637   -3.172443
    101          1           0        1.363832   -6.599691   -2.248028
    102          1           0       -3.887361   -3.097885   -1.574181
    103          1           0       -3.328406   -2.051567   -2.834128
    104          1           0       -3.123892   -0.111478   -1.130638
    105          1           0       -5.715005   -1.914890    1.520768
    106          1           0       -5.659141   -2.676064   -0.061077
    107          1           0       -6.694489   -1.245313    0.272351
    108          1           0       -4.091404    1.216896    0.623835
    109          1           0       -5.506636    0.606660    1.272049
    110          1           0       -6.117859    0.760760   -1.504413
    111          1           0       -5.528957    2.272861   -1.027187
    112          1           0       -7.360921    2.765762    0.329381
    113          1           0       -7.501348    1.139196    0.976736
    114          1           0       -8.371502    2.010246   -1.785575
    115          1           0      -10.635433    2.124215   -0.746161
    116          1           0       -9.592441    3.504959   -0.701945
    117          1           0       -9.910486    2.452120    0.757147
    118          1           0       -8.204553   -0.521316   -1.155859
    119          1           0       -9.595752    0.160641   -2.006223
    120          1           0      -10.086554    0.073556    0.908598
    121          1           0       -9.421989   -1.454379    0.467142
    122          1           0      -11.358541   -2.174237   -0.119188
    123          1           0      -11.297247   -0.994491   -1.515766
    124          1           0      -12.104735    0.696569    0.371298
    125          1           0      -13.220602    0.849158   -1.510930
    126          1           0      -14.528327    0.177784   -0.592822
    127          1           0      -13.568217   -0.921859   -1.578092
    128          1           0      -12.352449   -1.722988    1.613021
    129          1           0      -14.009479   -1.470897    1.073451
    130          1           0      -12.615424    0.839396    2.579534
    131          1           0      -13.280091   -0.507774    3.429424
    132          1           0      -15.376081    0.700385    3.305697
    133          1           0      -15.351434   -0.061986    1.744153
    134          1           0      -13.877429    2.068305    1.025706
    135          1           0      -15.313083    3.350626    3.387722
    136          1           0      -14.119901    4.100625    2.389538
    137          1           0      -13.614110    2.911415    3.562331
    138          1           0      -15.845087    3.287691    0.394074
    139          1           0      -16.738728    2.498546    1.712841
    140          1           0      -16.381887    1.479138    0.372888
 ---------------------------------------------------------------------

 SCF Done:  E(RCAM-B3LYP) =  -3007.14359405     A.U. after   18 cycles

 Excitation energies and oscillator strengths:

 Excited State   1:      Singlet-A      1.7132 eV  723.70 nm  f=0.3676  <S**2>=0.000
     245 -> 248       -0.16855
     246 -> 247        0.68705
     245 <- 248       -0.10198
 This state for optimization and/or second-order correction.
 Total Energy, E(TD-HF/TD-DFT) =  -3007.08063486
 Copying the excited state density for this state as the 1-particle RhoCI density.

 Excited State   2:      Singlet-A      2.2716 eV  545.80 nm  f=0.0471  <S**2>=0.000
     245 -> 247        0.60081
     246 -> 248        0.35911

 Excited State   3:      Singlet-A      3.3719 eV  367.70 nm  f=0.6479  <S**2>=0.000
     241 -> 247       -0.12397
     245 -> 247       -0.32946
     246 -> 248        0.57854
     246 -> 250       -0.13658
     245 <- 247        0.10032

 Excited State   4:      Singlet-A      3.5906 eV  345.30 nm  f=0.0078  <S**2>=0.000
     241 -> 247       -0.19275
     242 -> 247       -0.11565
     244 -> 247        0.62088
     246 -> 249       -0.10883
     246 -> 250       -0.15046

 Excited State   5:      Singlet-A      3.6180 eV  342.69 nm  f=0.0647  <S**2>=0.000
     241 -> 247       -0.11424
     244 -> 247        0.16305
     246 -> 248        0.11322
     246 -> 249        0.32461
     246 -> 250        0.55696

 The electronic state is 1-A.
 Alpha  occ. eigenvalues --  -46.90219 -19.24485 -19.24449 -19.20736 -19.19861
 Alpha  occ. eigenvalues --  -19.19524 -19.18654 -14.42761 -14.42466 -14.40970
 Alpha  occ. eigenvalues --  -14.38856 -10.40894 -10.39382 -10.36061 -10.34971
 Alpha  occ. eigenvalues --  -10.32716 -10.32277 -10.32247 -10.32013 -10.31946
 Alpha  occ. eigenvalues --  -10.31578 -10.30994 -10.30613 -10.30604 -10.29404
 Alpha  occ. eigenvalues --  -10.29291 -10.29223 -10.29114 -10.28860 -10.28632
 Alpha  occ. eigenvalues --  -10.28324 -10.28107 -10.28037 -10.27783 -10.27705
 Alpha  occ. eigenvalues --  -10.27576 -10.27524 -10.27461 -10.27406 -10.27033
 Alpha  occ. eigenvalues --  -10.26977 -10.26782 -10.26698 -10.26647 -10.26251
 Alpha  occ. eigenvalues --  -10.26107 -10.26103 -10.25956 -10.25921 -10.25611
 Alpha  occ. eigenvalues --  -10.25508 -10.25486 -10.25472 -10.25254 -10.25247
 Alpha  occ. eigenvalues --  -10.24909 -10.24877 -10.24703 -10.24698 -10.24631
 Alpha  occ. eigenvalues --  -10.24614 -10.24600 -10.24444 -10.24431 -10.24026
 Alpha  occ. eigenvalues --  -10.23825  -3.18579  -1.93452  -1.93028  -1.92885
 Alpha  occ. eigenvalues --   -1.15636  -1.14070  -1.11785  -1.08825  -1.07279
 Alpha  occ. eigenvalues --   -1.06565  -1.04591  -1.03934  -1.03013  -1.02216
 Alpha  occ. eigenvalues --   -0.91951  -0.90648  -0.90167  -0.89046  -0.88839
 Alpha  occ. eigenvalues --   -0.88740  -0.88402  -0.87358  -0.87129  -0.86860
 Alpha  occ. eigenvalues --   -0.86160  -0.84748  -0.84058  -0.83716  -0.83305
 Alpha  occ. eigenvalues --   -0.82307  -0.82063  -0.81039  -0.80682  -0.80386
 Alpha  occ. eigenvalues --   -0.79701  -0.78065  -0.77854  -0.77383  -0.76157
 Alpha  occ. eigenvalues --   -0.75842  -0.75499  -0.75114  -0.74995  -0.73999
 Alpha  occ. eigenvalues --   -0.73397  -0.72597  -0.71842  -0.71222  -0.69123
 Alpha  occ. eigenvalues --   -0.68908  -0.68430  -0.67776  -0.67589  -0.66223
 Alpha  occ. eigenvalues --   -0.65987  -0.65777  -0.64993  -0.64547  -0.63906
 Alpha  occ. eigenvalues --   -0.62987  -0.62514  -0.62101  -0.61482  -0.60275
 Alpha  occ. eigenvalues --   -0.59883  -0.59255  -0.59199  -0.58600  -0.57666
 Alpha  occ. eigenvalues --   -0.57146  -0.56539  -0.56304  -0.55770  -0.55214
 Alpha  occ. eigenvalues --   -0.55078  -0.54671  -0.54332  -0.54186  -0.53792
 Alpha  occ. eigenvalues --   -0.53600  -0.53355  -0.53212  -0.53120  -0.52984
 Alpha  occ. eigenvalues --   -0.52573  -0.52400  -0.52290  -0.52103  -0.51930
 Alpha  occ. eigenvalues --   -0.51353  -0.51109  -0.50825  -0.50601  -0.50519
 Alpha  occ. eigenvalues --   -0.50356  -0.50271  -0.50023  -0.49756  -0.49588
 Alpha  occ. eigenvalues --   -0.49437  -0.49341  -0.49207  -0.48938  -0.48919
 Alpha  occ. eigenvalues --   -0.48832  -0.48350  -0.48203  -0.47836  -0.47533
 Alpha  occ. eigenvalues --   -0.47340  -0.47197  -0.46990  -0.46837  -0.46724
 Alpha  occ. eigenvalues --   -0.46624  -0.46385  -0.46187  -0.46036  -0.45544
 Alpha  occ. eigenvalues --   -0.45493  -0.45181  -0.45021  -0.44900  -0.44855
 Alpha  occ. eigenvalues --   -0.44842  -0.44545  -0.44393  -0.44290  -0.43852
 Alpha  occ. eigenvalues --   -0.43739  -0.43642  -0.43415  -0.43361  -0.43196
 Alpha  occ. eigenvalues --   -0.43127  -0.42940  -0.42627  -0.42533  -0.42474
 Alpha  occ. eigenvalues --   -0.42242  -0.41938  -0.41899  -0.41675  -0.41332
 Alpha  occ. eigenvalues --   -0.41315  -0.41275  -0.40779  -0.40557  -0.40354
 Alpha  occ. eigenvalues --   -0.40305  -0.40259  -0.39423  -0.39303  -0.38715
 Alpha  occ. eigenvalues --   -0.38611  -0.38516  -0.38310  -0.37896  -0.37373
 Alpha  occ. eigenvalues --   -0.37067  -0.37053  -0.36780  -0.36638  -0.36300
 Alpha  occ. eigenvalues --   -0.36139  -0.35577  -0.34791  -0.34422  -0.34226
 Alpha  occ. eigenvalues --   -0.34092  -0.33935  -0.33179  -0.32078  -0.31755
 Alpha  occ. eigenvalues --   -0.31002  -0.30406  -0.30200  -0.29572  -0.24557
 Alpha  occ. eigenvalues --   -0.20958
 Alpha virt. eigenvalues --   -0.08457  -0.02424   0.00180   0.00894   0.01996
 Alpha virt. eigenvalues --    0.04189   0.04592   0.05217   0.05632   0.06433
 Alpha virt. eigenvalues --    0.07500   0.08053   0.08148   0.08531   0.08987

 Mulliken charges:
               1
     1  Mg   0.826427
     2  C    0.066917
     3  C   -0.053673
     4  C   -0.060994
     5  C   -0.071298
     6  N   -0.324367
     7  C   -0.060811
     8  C    0.027176
     9  C   -0.071461
    10  C    0.085099
    11  C    0.030498
    12  C    0.088237
    13  C    0.016570
    14  C    0.191877
    15  O   -0.231170
    16  O   -0.380595
    17  N   -0.348610
    18  C    0.109598
    19  C   -0.144122
    20  C   -0.029937
    21  C    0.113102
    22  C    0.102267
    23  C    0.014120
    24  O   -0.172350
    25  C    0.020790
    26  N   -0.290820
    27  C    0.052516
    28  C   -0.074422
    29  C   -0.008078
    30  C    0.037954
    31  C    0.087985
    32  C    0.030757
    33  C   -0.010336
    34  N   -0.291724
    35  C    0.089453
    36  C   -0.210438
    37  C    0.039117
    38  C    0.041527
    39  C    0.119804
    40  C    0.085901
    41  O   -0.174282
    42  C   -0.060775
    43  C    0.182836
    44  O   -0.200994
    45  O   -0.349252
    46  C    0.169561
    47  C    0.295330
    48  C   -0.100266
    49  C   -0.175806
    50  C    0.092368
    51  C    0.059738
    52  C    0.038257
    53  C    0.052672
    54  C   -0.153187
    55  C    0.009523
    56  C    0.045013
    57  C    0.020390
    58  C    0.073774
    59  C   -0.179800
    60  C    0.068472
    61  C    0.078453
    62  C    0.036428
    63  C    0.045503
    64  C   -0.156039
    65  C    0.041292
    66  C    0.034335
    67  H   -0.031777
    68  H   -0.034323
    69  H   -0.016592
    70  H    0.012991
    71  H    0.023569
    72  H    0.013781
    73  H    0.026112
    74  H    0.020368
    75  H    0.016071
    76  H    0.016410
    77  H    0.049462
    78  H    0.035122
    79  H    0.042385
    80  H    0.035649
    81  H    0.011376
    82  H    0.032226
    83  H    0.042883
    84  H    0.032362
    85  H    0.014760
    86  H    0.020392
    87  H    0.013128
    88  H    0.013611
    89  H    0.024508
    90  H    0.015276
    91  H    0.010994
    92  H    0.013182
    93  H   -0.004444
    94  H    0.023979
    95  H    0.029524
    96  H    0.023011
    97  H    0.033420
    98  H    0.028184
    99  H    0.040349
   100  H    0.033086
   101  H    0.053636
   102  H    0.026918
   103  H    0.029826
   104  H   -0.015561
   105  H    0.025500
   106  H    0.010079
   107  H    0.005577
   108  H    0.004706
   109  H   -0.014563
   110  H    0.003369
   111  H    0.000433
   112  H   -0.001815
   113  H   -0.001639
   114  H   -0.010081
   115  H   -0.004722
   116  H    0.012414
   117  H    0.012823
   118  H   -0.009695
   119  H    0.001413
   120  H    0.000975
   121  H   -0.010953
   122  H    0.001297
   123  H   -0.009825
   124  H   -0.005270
   125  H    0.001790
   126  H   -0.004636
   127  H    0.005596
   128  H   -0.016365
   129  H   -0.009078
   130  H    0.001539
   131  H   -0.015131
   132  H   -0.006609
   133  H   -0.015390
   134  H    0.003776
   135  H    0.002841
   136  H    0.005860
   137  H    0.013433
   138  H    0.014882
   139  H   -0.006252
   140  H    0.021838
 Sum of Mulliken charges =  -0.00000

 Dipole moment (field-independent basis, Debye):
    X=              0.0736    Y=              5.1248    Z=             -1.2587  Tot=              5.2776
 Quadrupole moment (field-independent basis, Debye-Ang):
   XX=           -362.9877   YY=           -454.6028   ZZ=           -397.1438
   XY=             34.8285   XZ=             11.1679   YZ=             24.7935

 Normal termination of Gaussian 16 at Fri Apr 29 00:06:21 2022.
