 Gaussian 16, Revision A.03,
 Gaussian 16:  ES64L-G16RevA.03 25-Dec-2016

 ---------------------------------
 #p PBE1PBE/Def2SVP td=(nstates=5)
 ---------------------------------

 -----------------------------------------------------
 step_1751_chromophore_5 TDDFT with PBE1PBE functional
 -----------------------------------------------------
 Symbolic Z-matrix:
 Charge =  0 Multiplicity = 1

                         Standard orientation:
 ---------------------------------------------------------------------
 Center     Atomic      Atomic             Coordinates (Angstroms)
 Number     Number       Type             X           Y           Z
 ---------------------------------------------------------------------
      1         12           0        5.615406    0.593413   -0.362570
      2          6           0        4.264174   -2.602304   -0.125743
      3          6           0        2.947492    1.668391   -2.086846
      4          6           0        6.382910    3.868074    0.472159
      5          6           0        8.149743   -0.472682    2.007267
      6          7           0        3.811292   -0.397598   -0.916895
      7          6           0        3.412864   -1.702925   -0.746459
      8          6           0        2.037177   -1.914454   -1.293042
      9          6           0        1.754357   -0.649114   -2.169305
     10          6           0        2.924656    0.308070   -1.692915
     11          6           0        1.921222   -0.923471   -3.791059
     12          6           0        0.949807   -2.223029   -0.167396
     13          6           0        0.117178   -3.541897   -0.260236
     14          6           0       -1.477056   -3.557471   -0.519319
     15          8           0       -2.352494   -4.342342   -0.107880
     16          8           0       -1.788262   -2.530758   -1.466408
     17          7           0        4.902855    2.533338   -0.931009
     18          6           0        3.850540    2.728388   -1.695560
     19          6           0        3.715311    4.210612   -1.935517
     20          6           0        4.729778    4.915038   -1.254650
     21          6           0        5.422428    3.789757   -0.555670
     22          6           0        2.488353    4.869374   -2.769363
     23          6           0        5.030255    6.381644   -1.404230
     24          8           0        4.386809    7.198550   -2.018637
     25          6           0        6.356539    6.837060   -0.876477
     26          7           0        6.997970    1.493057    1.105123
     27          6           0        7.181967    2.839841    1.014676
     28          6           0        8.614242    3.267700    1.546948
     29          6           0        9.221007    1.882591    1.993902
     30          6           0        8.087969    0.912023    1.800527
     31          6           0        9.433578    4.078558    0.548007
     32          6           0        9.715548    1.955765    3.492705
     33          6           0       11.115312    1.388667    3.758870
     34          7           0        6.132456   -1.207809    0.644648
     35          6           0        7.175428   -1.424684    1.532659
     36          6           0        7.146105   -2.826809    1.932277
     37          6           0        6.058268   -3.359695    1.292050
     38          6           0        5.447566   -2.326477    0.526071
     39          6           0        8.063669   -3.519300    2.890230
     40          6           0        5.214908   -4.556109    1.116626
     41          8           0        5.464169   -5.682587    1.543950
     42          6           0        4.014171   -4.077775    0.194234
     43          6           0        3.899224   -5.051711   -1.067453
     44          8           0        4.627323   -4.920952   -2.015175
     45          8           0        2.939618   -6.049184   -1.024387
     46          6           0        2.451259   -6.598194   -2.321249
     47          6           0       -3.205510   -2.271301   -1.773562
     48          6           0       -3.591806   -1.061152   -0.869826
     49          6           0       -4.632186   -0.784672   -0.034267
     50          6           0       -5.727625   -1.715115    0.449491
     51          6           0       -4.955662    0.621006    0.331589
     52          6           0       -5.957029    1.361652   -0.609241
     53          6           0       -7.327429    1.709010    0.064675
     54          6           0       -8.546916    1.524629   -0.826020
     55          6           0       -9.705730    2.493211   -0.312958
     56          6           0       -9.115870    0.065159   -1.033013
     57          6           0       -9.992910   -0.615071    0.069231
     58          6           0      -11.319438   -1.131099   -0.433803
     59          6           0      -12.510164   -0.284274    0.120249
     60          6           0      -13.518878   -0.034549   -0.946346
     61          6           0      -13.098843   -0.962221    1.389607
     62          6           0      -13.372890    0.059766    2.503039
     63          6           0      -14.798338    0.624893    2.384947
     64          6           0      -14.686604    2.068801    1.756590
     65          6           0      -14.393996    3.145806    2.838245
     66          6           0      -16.008722    2.346619    0.918279
     67          1           0        2.094700    2.041682   -2.658005
     68          1           0        6.657305    4.887689    0.752173
     69          1           0        8.848999   -0.858150    2.752148
     70          1           0        2.064111   -2.749798   -1.991921
     71          1           0        0.796433   -0.150986   -2.025113
     72          1           0        1.821812   -1.967868   -4.088965
     73          1           0        2.891504   -0.680261   -4.224356
     74          1           0        1.140500   -0.415843   -4.356870
     75          1           0        0.217677   -1.430866   -0.010764
     76          1           0        1.432829   -2.149165    0.807525
     77          1           0        0.387871   -4.260927    0.512841
     78          1           0        0.357233   -4.022448   -1.208593
     79          1           0        2.835336    5.488012   -3.597732
     80          1           0        1.988867    5.525348   -2.056800
     81          1           0        1.714309    4.198592   -3.140304
     82          1           0        7.152595    6.110084   -1.038941
     83          1           0        6.231846    6.890218    0.204076
     84          1           0        6.667477    7.808221   -1.260962
     85          1           0        8.410914    3.834498    2.455684
     86          1           0       10.035727    1.597954    1.327699
     87          1           0        8.761629    4.344547   -0.267841
     88          1           0       10.216339    3.579518   -0.023630
     89          1           0        9.763707    4.962880    1.092843
     90          1           0        9.024645    1.412713    4.136858
     91          1           0        9.794046    2.979676    3.857245
     92          1           0       11.879635    2.163461    3.690157
     93          1           0       11.404057    0.772695    2.907552
     94          1           0       11.228744    0.718788    4.610455
     95          1           0        7.527402   -3.455458    3.837720
     96          1           0        9.089857   -3.159465    2.965548
     97          1           0        8.058107   -4.581266    2.645161
     98          1           0        3.047220   -4.219502    0.677653
     99          1           0        2.909291   -7.546602   -2.603272
    100          1           0        2.847822   -6.045637   -3.172443
    101          1           0        1.363832   -6.599691   -2.248028
    102          1           0       -3.887361   -3.097885   -1.574181
    103          1           0       -3.328406   -2.051567   -2.834128
    104          1           0       -3.123892   -0.111478   -1.130638
    105          1           0       -5.715005   -1.914890    1.520768
    106          1           0       -5.659141   -2.676064   -0.061077
    107          1           0       -6.694489   -1.245313    0.272351
    108          1           0       -4.091404    1.216896    0.623835
    109          1           0       -5.506636    0.606660    1.272049
    110          1           0       -6.117859    0.760760   -1.504413
    111          1           0       -5.528957    2.272861   -1.027187
    112          1           0       -7.360921    2.765762    0.329381
    113          1           0       -7.501348    1.139196    0.976736
    114          1           0       -8.371502    2.010246   -1.785575
    115          1           0      -10.635433    2.124215   -0.746161
    116          1           0       -9.592441    3.504959   -0.701945
    117          1           0       -9.910486    2.452120    0.757147
    118          1           0       -8.204553   -0.521316   -1.155859
    119          1           0       -9.595752    0.160641   -2.006223
    120          1           0      -10.086554    0.073556    0.908598
    121          1           0       -9.421989   -1.454379    0.467142
    122          1           0      -11.358541   -2.174237   -0.119188
    123          1           0      -11.297247   -0.994491   -1.515766
    124          1           0      -12.104735    0.696569    0.371298
    125          1           0      -13.220602    0.849158   -1.510930
    126          1           0      -14.528327    0.177784   -0.592822
    127          1           0      -13.568217   -0.921859   -1.578092
    128          1           0      -12.352449   -1.722988    1.613021
    129          1           0      -14.009479   -1.470897    1.073451
    130          1           0      -12.615424    0.839396    2.579534
    131          1           0      -13.280091   -0.507774    3.429424
    132          1           0      -15.376081    0.700385    3.305697
    133          1           0      -15.351434   -0.061986    1.744153
    134          1           0      -13.877429    2.068305    1.025706
    135          1           0      -15.313083    3.350626    3.387722
    136          1           0      -14.119901    4.100625    2.389538
    137          1           0      -13.614110    2.911415    3.562331
    138          1           0      -15.845087    3.287691    0.394074
    139          1           0      -16.738728    2.498546    1.712841
    140          1           0      -16.381887    1.479138    0.372888
 ---------------------------------------------------------------------

 SCF Done:  E(RPBE1PBE) =  -3005.33114209     A.U. after   16 cycles

 Excitation energies and oscillator strengths:

 Excited State   1:      Singlet-A      1.8346 eV  675.80 nm  f=0.3576  <S**2>=0.000
     245 -> 248       -0.16574
     246 -> 247        0.69362
     246 <- 247       -0.10662
 This state for optimization and/or second-order correction.
 Total Energy, E(TD-HF/TD-DFT) =  -3005.26372043
 Copying the excited state density for this state as the 1-particle RhoCI density.

 Excited State   2:      Singlet-A      2.2679 eV  546.69 nm  f=0.0526  <S**2>=0.000
     245 -> 247        0.61921
     246 -> 248        0.32945

 Excited State   3:      Singlet-A      3.0826 eV  402.21 nm  f=0.0334  <S**2>=0.000
     243 -> 247        0.60455
     243 -> 249       -0.14070
     243 -> 250        0.10707
     244 -> 247       -0.17832
     246 -> 248        0.22027

 Excited State   4:      Singlet-A      3.1589 eV  392.49 nm  f=0.0963  <S**2>=0.000
     243 -> 247        0.27491
     244 -> 247        0.49557
     245 -> 247        0.13981
     246 -> 248       -0.34195
     246 -> 249        0.12195

 Excited State   5:      Singlet-A      3.1938 eV  388.20 nm  f=0.2460  <S**2>=0.000
     241 -> 247       -0.15668
     244 -> 247        0.45019
     245 -> 247       -0.21690
     246 -> 248        0.40555
     246 -> 249       -0.17869

 The electronic state is 1-A.
 Alpha  occ. eigenvalues --  -46.93601 -19.25257 -19.25200 -19.21063 -19.19859
 Alpha  occ. eigenvalues --  -19.19819 -19.19120 -14.42197 -14.42098 -14.40386
 Alpha  occ. eigenvalues --  -14.38657 -10.38015 -10.36559 -10.32943 -10.32347
 Alpha  occ. eigenvalues --  -10.30125 -10.29807 -10.29612 -10.29473 -10.29334
 Alpha  occ. eigenvalues --  -10.28906 -10.28854 -10.28646 -10.27948 -10.27297
 Alpha  occ. eigenvalues --  -10.27201 -10.27059 -10.26764 -10.26710 -10.26082
 Alpha  occ. eigenvalues --  -10.26004 -10.26002 -10.25714 -10.25662 -10.25397
 Alpha  occ. eigenvalues --  -10.25251 -10.25231 -10.25174 -10.25092 -10.24989
 Alpha  occ. eigenvalues --  -10.24395 -10.24258 -10.24233 -10.24038 -10.23825
 Alpha  occ. eigenvalues --  -10.23798 -10.23547 -10.23499 -10.23389 -10.23157
 Alpha  occ. eigenvalues --  -10.23039 -10.22985 -10.22961 -10.22840 -10.22809
 Alpha  occ. eigenvalues --  -10.22451 -10.22301 -10.22267 -10.22262 -10.22161
 Alpha  occ. eigenvalues --  -10.22148 -10.22099 -10.22039 -10.22018 -10.22012
 Alpha  occ. eigenvalues --  -10.21190  -3.15544  -1.88356  -1.87912  -1.87771
 Alpha  occ. eigenvalues --   -1.10518  -1.08884  -1.06299  -1.03790  -1.02239
 Alpha  occ. eigenvalues --   -1.01467  -0.99118  -0.98639  -0.97701  -0.96824
 Alpha  occ. eigenvalues --   -0.86462  -0.84739  -0.84265  -0.83309  -0.83070
 Alpha  occ. eigenvalues --   -0.82957  -0.82510  -0.81549  -0.81353  -0.81240
 Alpha  occ. eigenvalues --   -0.80399  -0.78960  -0.78235  -0.77916  -0.77613
 Alpha  occ. eigenvalues --   -0.76365  -0.76228  -0.75293  -0.74931  -0.74731
 Alpha  occ. eigenvalues --   -0.73919  -0.72462  -0.72153  -0.71464  -0.70562
 Alpha  occ. eigenvalues --   -0.69999  -0.69575  -0.69451  -0.69118  -0.68172
 Alpha  occ. eigenvalues --   -0.67720  -0.67055  -0.66245  -0.65553  -0.63385
 Alpha  occ. eigenvalues --   -0.63232  -0.62659  -0.62320  -0.61779  -0.60460
 Alpha  occ. eigenvalues --   -0.60396  -0.60236  -0.59563  -0.59179  -0.57982
 Alpha  occ. eigenvalues --   -0.57570  -0.56807  -0.56716  -0.55733  -0.54736
 Alpha  occ. eigenvalues --   -0.54479  -0.53855  -0.53603  -0.53169  -0.52340
 Alpha  occ. eigenvalues --   -0.51627  -0.51049  -0.50774  -0.50376  -0.49787
 Alpha  occ. eigenvalues --   -0.49447  -0.49210  -0.48816  -0.48736  -0.48217
 Alpha  occ. eigenvalues --   -0.48050  -0.48031  -0.47768  -0.47662  -0.47536
 Alpha  occ. eigenvalues --   -0.46964  -0.46855  -0.46777  -0.46721  -0.46395
 Alpha  occ. eigenvalues --   -0.45986  -0.45607  -0.45355  -0.45215  -0.45116
 Alpha  occ. eigenvalues --   -0.44851  -0.44826  -0.44674  -0.44375  -0.44153
 Alpha  occ. eigenvalues --   -0.44063  -0.43905  -0.43871  -0.43599  -0.43573
 Alpha  occ. eigenvalues --   -0.43464  -0.43011  -0.42759  -0.42437  -0.42196
 Alpha  occ. eigenvalues --   -0.41929  -0.41782  -0.41737  -0.41486  -0.41302
 Alpha  occ. eigenvalues --   -0.41207  -0.41159  -0.40775  -0.40685  -0.40234
 Alpha  occ. eigenvalues --   -0.40186  -0.39937  -0.39806  -0.39691  -0.39588
 Alpha  occ. eigenvalues --   -0.39460  -0.39245  -0.39080  -0.39002  -0.38628
 Alpha  occ. eigenvalues --   -0.38516  -0.38392  -0.38278  -0.38186  -0.38049
 Alpha  occ. eigenvalues --   -0.37974  -0.37765  -0.37438  -0.37248  -0.37193
 Alpha  occ. eigenvalues --   -0.37122  -0.36785  -0.36697  -0.36473  -0.36205
 Alpha  occ. eigenvalues --   -0.36190  -0.36162  -0.35588  -0.35410  -0.35144
 Alpha  occ. eigenvalues --   -0.35096  -0.35027  -0.34368  -0.34097  -0.33712
 Alpha  occ. eigenvalues --   -0.33485  -0.33223  -0.33161  -0.32880  -0.32196
 Alpha  occ. eigenvalues --   -0.32149  -0.31919  -0.31681  -0.31627  -0.31321
 Alpha  occ. eigenvalues --   -0.31099  -0.30545  -0.29725  -0.29614  -0.29286
 Alpha  occ. eigenvalues --   -0.29124  -0.29023  -0.28410  -0.27250  -0.26596
 Alpha  occ. eigenvalues --   -0.26510  -0.25542  -0.25501  -0.25442  -0.21381
 Alpha  occ. eigenvalues --   -0.18618
 Alpha virt. eigenvalues --   -0.11042  -0.05915  -0.03967  -0.02586  -0.01801
 Alpha virt. eigenvalues --   -0.00394   0.00148   0.00637   0.00977   0.02338
 Alpha virt. eigenvalues --    0.03557   0.04346   0.04805   0.05099   0.05596

 Mulliken charges:
               1
     1  Mg   0.964931
     2  C    0.047871
     3  C   -0.044638
     4  C   -0.061236
     5  C   -0.058529
     6  N   -0.426501
     7  C    0.016288
     8  C   -0.046354
     9  C   -0.141538
    10  C    0.112626
    11  C   -0.023418
    12  C    0.044190
    13  C   -0.060485
    14  C    0.253591
    15  O   -0.264161
    16  O   -0.404903
    17  N   -0.459059
    18  C    0.135940
    19  C   -0.165616
    20  C   -0.070926
    21  C    0.135341
    22  C    0.045232
    23  C    0.064157
    24  O   -0.212195
    25  C   -0.059835
    26  N   -0.388740
    27  C    0.085718
    28  C   -0.148451
    29  C   -0.090579
    30  C    0.077238
    31  C    0.027462
    32  C   -0.025534
    33  C   -0.080758
    34  N   -0.423514
    35  C    0.118458
    36  C   -0.239943
    37  C   -0.004331
    38  C    0.094619
    39  C    0.063268
    40  C    0.184113
    41  O   -0.218673
    42  C   -0.161966
    43  C    0.273610
    44  O   -0.233095
    45  O   -0.383123
    46  C    0.116126
    47  C    0.249579
    48  C   -0.113303
    49  C   -0.213641
    50  C    0.021824
    51  C   -0.012385
    52  C   -0.018149
    53  C   -0.005669
    54  C   -0.235220
    55  C   -0.056453
    56  C   -0.011545
    57  C   -0.043165
    58  C    0.014228
    59  C   -0.263160
    60  C    0.002969
    61  C    0.024054
    62  C   -0.032787
    63  C   -0.004355
    64  C   -0.256119
    65  C   -0.015424
    66  C   -0.028216
    67  H    0.002413
    68  H   -0.001648
    69  H    0.015079
    70  H    0.054020
    71  H    0.056890
    72  H    0.039562
    73  H    0.052698
    74  H    0.047068
    75  H    0.048524
    76  H    0.048734
    77  H    0.078841
    78  H    0.069777
    79  H    0.067782
    80  H    0.061943
    81  H    0.035571
    82  H    0.062231
    83  H    0.069298
    84  H    0.059491
    85  H    0.051413
    86  H    0.057655
    87  H    0.045012
    88  H    0.039877
    89  H    0.051217
    90  H    0.047086
    91  H    0.043938
    92  H    0.041521
    93  H    0.023317
    94  H    0.050954
    95  H    0.060108
    96  H    0.049539
    97  H    0.062329
    98  H    0.070072
    99  H    0.062126
   100  H    0.053486
   101  H    0.074788
   102  H    0.053831
   103  H    0.056248
   104  H    0.015344
   105  H    0.053712
   106  H    0.038155
   107  H    0.040873
   108  H    0.036630
   109  H    0.020971
   110  H    0.035913
   111  H    0.033345
   112  H    0.032200
   113  H    0.029836
   114  H    0.028828
   115  H    0.027998
   116  H    0.041223
   117  H    0.039446
   118  H    0.026371
   119  H    0.032996
   120  H    0.033997
   121  H    0.022763
   122  H    0.033308
   123  H    0.023920
   124  H    0.034476
   125  H    0.030380
   126  H    0.027004
   127  H    0.033905
   128  H    0.016981
   129  H    0.023921
   130  H    0.033497
   131  H    0.019636
   132  H    0.025235
   133  H    0.015478
   134  H    0.046094
   135  H    0.029974
   136  H    0.033821
   137  H    0.040044
   138  H    0.042955
   139  H    0.022684
   140  H    0.047553
 Sum of Mulliken charges =  -0.00000

 Dipole moment (field-independent basis, Debye):
    X=              0.1876    Y=              4.5473    Z=             -1.0430  Tot=              4.6692
 Quadrupole moment (field-independent basis, Debye-Ang):
   XX=           -355.5683   YY=           -452.7181   ZZ=           -393.9276
   XY=             31.6559   XZ=             13.5263   YZ=             25.0966

 Normal termination of Gaussian 16 at Fri Apr 29 00:25:47 2022.
