 Gaussian 16, Revision A.03,
 Gaussian 16:  ES64L-G16RevA.03 25-Dec-2016

 --------------------------------
 #p wB97XD/Def2SVP td=(nstates=5)
 --------------------------------

 ----------------------------------------------------
 step_1751_chromophore_5 TDDFT with wB97XD functional
 ----------------------------------------------------
 Symbolic Z-matrix:
 Charge =  0 Multiplicity = 1

                         Standard orientation:
 ---------------------------------------------------------------------
 Center     Atomic      Atomic             Coordinates (Angstroms)
 Number     Number       Type             X           Y           Z
 ---------------------------------------------------------------------
      1         12           0        5.615406    0.593413   -0.362570
      2          6           0        4.264174   -2.602304   -0.125743
      3          6           0        2.947492    1.668391   -2.086846
      4          6           0        6.382910    3.868074    0.472159
      5          6           0        8.149743   -0.472682    2.007267
      6          7           0        3.811292   -0.397598   -0.916895
      7          6           0        3.412864   -1.702925   -0.746459
      8          6           0        2.037177   -1.914454   -1.293042
      9          6           0        1.754357   -0.649114   -2.169305
     10          6           0        2.924656    0.308070   -1.692915
     11          6           0        1.921222   -0.923471   -3.791059
     12          6           0        0.949807   -2.223029   -0.167396
     13          6           0        0.117178   -3.541897   -0.260236
     14          6           0       -1.477056   -3.557471   -0.519319
     15          8           0       -2.352494   -4.342342   -0.107880
     16          8           0       -1.788262   -2.530758   -1.466408
     17          7           0        4.902855    2.533338   -0.931009
     18          6           0        3.850540    2.728388   -1.695560
     19          6           0        3.715311    4.210612   -1.935517
     20          6           0        4.729778    4.915038   -1.254650
     21          6           0        5.422428    3.789757   -0.555670
     22          6           0        2.488353    4.869374   -2.769363
     23          6           0        5.030255    6.381644   -1.404230
     24          8           0        4.386809    7.198550   -2.018637
     25          6           0        6.356539    6.837060   -0.876477
     26          7           0        6.997970    1.493057    1.105123
     27          6           0        7.181967    2.839841    1.014676
     28          6           0        8.614242    3.267700    1.546948
     29          6           0        9.221007    1.882591    1.993902
     30          6           0        8.087969    0.912023    1.800527
     31          6           0        9.433578    4.078558    0.548007
     32          6           0        9.715548    1.955765    3.492705
     33          6           0       11.115312    1.388667    3.758870
     34          7           0        6.132456   -1.207809    0.644648
     35          6           0        7.175428   -1.424684    1.532659
     36          6           0        7.146105   -2.826809    1.932277
     37          6           0        6.058268   -3.359695    1.292050
     38          6           0        5.447566   -2.326477    0.526071
     39          6           0        8.063669   -3.519300    2.890230
     40          6           0        5.214908   -4.556109    1.116626
     41          8           0        5.464169   -5.682587    1.543950
     42          6           0        4.014171   -4.077775    0.194234
     43          6           0        3.899224   -5.051711   -1.067453
     44          8           0        4.627323   -4.920952   -2.015175
     45          8           0        2.939618   -6.049184   -1.024387
     46          6           0        2.451259   -6.598194   -2.321249
     47          6           0       -3.205510   -2.271301   -1.773562
     48          6           0       -3.591806   -1.061152   -0.869826
     49          6           0       -4.632186   -0.784672   -0.034267
     50          6           0       -5.727625   -1.715115    0.449491
     51          6           0       -4.955662    0.621006    0.331589
     52          6           0       -5.957029    1.361652   -0.609241
     53          6           0       -7.327429    1.709010    0.064675
     54          6           0       -8.546916    1.524629   -0.826020
     55          6           0       -9.705730    2.493211   -0.312958
     56          6           0       -9.115870    0.065159   -1.033013
     57          6           0       -9.992910   -0.615071    0.069231
     58          6           0      -11.319438   -1.131099   -0.433803
     59          6           0      -12.510164   -0.284274    0.120249
     60          6           0      -13.518878   -0.034549   -0.946346
     61          6           0      -13.098843   -0.962221    1.389607
     62          6           0      -13.372890    0.059766    2.503039
     63          6           0      -14.798338    0.624893    2.384947
     64          6           0      -14.686604    2.068801    1.756590
     65          6           0      -14.393996    3.145806    2.838245
     66          6           0      -16.008722    2.346619    0.918279
     67          1           0        2.094700    2.041682   -2.658005
     68          1           0        6.657305    4.887689    0.752173
     69          1           0        8.848999   -0.858150    2.752148
     70          1           0        2.064111   -2.749798   -1.991921
     71          1           0        0.796433   -0.150986   -2.025113
     72          1           0        1.821812   -1.967868   -4.088965
     73          1           0        2.891504   -0.680261   -4.224356
     74          1           0        1.140500   -0.415843   -4.356870
     75          1           0        0.217677   -1.430866   -0.010764
     76          1           0        1.432829   -2.149165    0.807525
     77          1           0        0.387871   -4.260927    0.512841
     78          1           0        0.357233   -4.022448   -1.208593
     79          1           0        2.835336    5.488012   -3.597732
     80          1           0        1.988867    5.525348   -2.056800
     81          1           0        1.714309    4.198592   -3.140304
     82          1           0        7.152595    6.110084   -1.038941
     83          1           0        6.231846    6.890218    0.204076
     84          1           0        6.667477    7.808221   -1.260962
     85          1           0        8.410914    3.834498    2.455684
     86          1           0       10.035727    1.597954    1.327699
     87          1           0        8.761629    4.344547   -0.267841
     88          1           0       10.216339    3.579518   -0.023630
     89          1           0        9.763707    4.962880    1.092843
     90          1           0        9.024645    1.412713    4.136858
     91          1           0        9.794046    2.979676    3.857245
     92          1           0       11.879635    2.163461    3.690157
     93          1           0       11.404057    0.772695    2.907552
     94          1           0       11.228744    0.718788    4.610455
     95          1           0        7.527402   -3.455458    3.837720
     96          1           0        9.089857   -3.159465    2.965548
     97          1           0        8.058107   -4.581266    2.645161
     98          1           0        3.047220   -4.219502    0.677653
     99          1           0        2.909291   -7.546602   -2.603272
    100          1           0        2.847822   -6.045637   -3.172443
    101          1           0        1.363832   -6.599691   -2.248028
    102          1           0       -3.887361   -3.097885   -1.574181
    103          1           0       -3.328406   -2.051567   -2.834128
    104          1           0       -3.123892   -0.111478   -1.130638
    105          1           0       -5.715005   -1.914890    1.520768
    106          1           0       -5.659141   -2.676064   -0.061077
    107          1           0       -6.694489   -1.245313    0.272351
    108          1           0       -4.091404    1.216896    0.623835
    109          1           0       -5.506636    0.606660    1.272049
    110          1           0       -6.117859    0.760760   -1.504413
    111          1           0       -5.528957    2.272861   -1.027187
    112          1           0       -7.360921    2.765762    0.329381
    113          1           0       -7.501348    1.139196    0.976736
    114          1           0       -8.371502    2.010246   -1.785575
    115          1           0      -10.635433    2.124215   -0.746161
    116          1           0       -9.592441    3.504959   -0.701945
    117          1           0       -9.910486    2.452120    0.757147
    118          1           0       -8.204553   -0.521316   -1.155859
    119          1           0       -9.595752    0.160641   -2.006223
    120          1           0      -10.086554    0.073556    0.908598
    121          1           0       -9.421989   -1.454379    0.467142
    122          1           0      -11.358541   -2.174237   -0.119188
    123          1           0      -11.297247   -0.994491   -1.515766
    124          1           0      -12.104735    0.696569    0.371298
    125          1           0      -13.220602    0.849158   -1.510930
    126          1           0      -14.528327    0.177784   -0.592822
    127          1           0      -13.568217   -0.921859   -1.578092
    128          1           0      -12.352449   -1.722988    1.613021
    129          1           0      -14.009479   -1.470897    1.073451
    130          1           0      -12.615424    0.839396    2.579534
    131          1           0      -13.280091   -0.507774    3.429424
    132          1           0      -15.376081    0.700385    3.305697
    133          1           0      -15.351434   -0.061986    1.744153
    134          1           0      -13.877429    2.068305    1.025706
    135          1           0      -15.313083    3.350626    3.387722
    136          1           0      -14.119901    4.100625    2.389538
    137          1           0      -13.614110    2.911415    3.562331
    138          1           0      -15.845087    3.287691    0.394074
    139          1           0      -16.738728    2.498546    1.712841
    140          1           0      -16.381887    1.479138    0.372888
 ---------------------------------------------------------------------

 SCF Done:  E(RwB97XD) =  -3007.84831360     A.U. after   20 cycles

 Excitation energies and oscillator strengths:

 Excited State   1:      Singlet-A      1.6770 eV  739.32 nm  f=0.3665  <S**2>=0.000
     245 -> 248       -0.17243
     246 -> 247        0.68473
     245 <- 248       -0.10966
 This state for optimization and/or second-order correction.
 Total Energy, E(TD-HF/TD-DFT) =  -3007.78668446
 Copying the excited state density for this state as the 1-particle RhoCI density.

 Excited State   2:      Singlet-A      2.2237 eV  557.56 nm  f=0.0465  <S**2>=0.000
     245 -> 247        0.59985
     246 -> 248        0.35864

 Excited State   3:      Singlet-A      3.4041 eV  364.22 nm  f=0.7229  <S**2>=0.000
     241 -> 247       -0.14288
     245 -> 247       -0.33783
     246 -> 248        0.58755
     245 <- 247        0.10956

 Excited State   4:      Singlet-A      3.6467 eV  339.99 nm  f=0.0146  <S**2>=0.000
     241 -> 247       -0.26809
     242 -> 247       -0.11051
     244 -> 247        0.60410

 Excited State   5:      Singlet-A      3.7221 eV  333.10 nm  f=0.0142  <S**2>=0.000
     242 -> 247        0.49760
     242 -> 249       -0.28980
     242 -> 250       -0.22965
     242 -> 251        0.23363
     244 -> 247        0.12443

 The electronic state is 1-A.
 Alpha  occ. eigenvalues --  -46.96568 -19.29707 -19.29702 -19.25699 -19.24952
 Alpha  occ. eigenvalues --  -19.24427 -19.23628 -14.47403 -14.47038 -14.45620
 Alpha  occ. eigenvalues --  -14.43390 -10.44762 -10.43229 -10.40091 -10.38930
 Alpha  occ. eigenvalues --  -10.36613 -10.36437 -10.36400 -10.36042 -10.35754
 Alpha  occ. eigenvalues --  -10.35733 -10.34954 -10.34916 -10.34575 -10.33493
 Alpha  occ. eigenvalues --  -10.33299 -10.33134 -10.33035 -10.32908 -10.32840
 Alpha  occ. eigenvalues --  -10.32396 -10.32151 -10.32004 -10.31923 -10.31664
 Alpha  occ. eigenvalues --  -10.31596 -10.31512 -10.31500 -10.31428 -10.31045
 Alpha  occ. eigenvalues --  -10.30986 -10.30685 -10.30628 -10.30546 -10.30186
 Alpha  occ. eigenvalues --  -10.30099 -10.30075 -10.29908 -10.29863 -10.29435
 Alpha  occ. eigenvalues --  -10.29394 -10.29320 -10.29291 -10.29208 -10.29185
 Alpha  occ. eigenvalues --  -10.28826 -10.28703 -10.28628 -10.28587 -10.28570
 Alpha  occ. eigenvalues --  -10.28520 -10.28471 -10.28375 -10.28370 -10.27977
 Alpha  occ. eigenvalues --  -10.27664  -3.22397  -1.95952  -1.95508  -1.95367
 Alpha  occ. eigenvalues --   -1.17779  -1.16245  -1.14079  -1.10989  -1.09467
 Alpha  occ. eigenvalues --   -1.08787  -1.06678  -1.05931  -1.05001  -1.04234
 Alpha  occ. eigenvalues --   -0.93867  -0.92415  -0.91936  -0.90984  -0.90720
 Alpha  occ. eigenvalues --   -0.90606  -0.90181  -0.89369  -0.88909  -0.88771
 Alpha  occ. eigenvalues --   -0.88123  -0.86631  -0.85938  -0.85552  -0.85213
 Alpha  occ. eigenvalues --   -0.84269  -0.83920  -0.82926  -0.82553  -0.82312
 Alpha  occ. eigenvalues --   -0.81559  -0.79976  -0.79748  -0.79352  -0.78075
 Alpha  occ. eigenvalues --   -0.77674  -0.77290  -0.77070  -0.76811  -0.75840
 Alpha  occ. eigenvalues --   -0.75312  -0.74576  -0.73814  -0.73153  -0.71157
 Alpha  occ. eigenvalues --   -0.70827  -0.70296  -0.69782  -0.69436  -0.68063
 Alpha  occ. eigenvalues --   -0.67941  -0.67701  -0.67023  -0.66550  -0.65694
 Alpha  occ. eigenvalues --   -0.64993  -0.64351  -0.64079  -0.63339  -0.62346
 Alpha  occ. eigenvalues --   -0.61815  -0.61219  -0.61115  -0.60615  -0.59666
 Alpha  occ. eigenvalues --   -0.59088  -0.58522  -0.58192  -0.57728  -0.57124
 Alpha  occ. eigenvalues --   -0.56937  -0.56597  -0.56214  -0.56122  -0.55667
 Alpha  occ. eigenvalues --   -0.55473  -0.55335  -0.55155  -0.55075  -0.54943
 Alpha  occ. eigenvalues --   -0.54554  -0.54298  -0.54194  -0.54020  -0.53800
 Alpha  occ. eigenvalues --   -0.53241  -0.52968  -0.52713  -0.52577  -0.52453
 Alpha  occ. eigenvalues --   -0.52277  -0.52181  -0.51946  -0.51759  -0.51526
 Alpha  occ. eigenvalues --   -0.51340  -0.51209  -0.51144  -0.50881  -0.50819
 Alpha  occ. eigenvalues --   -0.50725  -0.50246  -0.50077  -0.49765  -0.49441
 Alpha  occ. eigenvalues --   -0.49278  -0.49084  -0.48910  -0.48760  -0.48604
 Alpha  occ. eigenvalues --   -0.48573  -0.48308  -0.48050  -0.47985  -0.47445
 Alpha  occ. eigenvalues --   -0.47407  -0.47105  -0.46917  -0.46817  -0.46741
 Alpha  occ. eigenvalues --   -0.46701  -0.46420  -0.46243  -0.46187  -0.45759
 Alpha  occ. eigenvalues --   -0.45657  -0.45633  -0.45336  -0.45282  -0.45100
 Alpha  occ. eigenvalues --   -0.45064  -0.44852  -0.44628  -0.44482  -0.44324
 Alpha  occ. eigenvalues --   -0.44178  -0.43813  -0.43763  -0.43539  -0.43243
 Alpha  occ. eigenvalues --   -0.43221  -0.43184  -0.42671  -0.42452  -0.42208
 Alpha  occ. eigenvalues --   -0.42162  -0.42143  -0.41340  -0.41135  -0.40632
 Alpha  occ. eigenvalues --   -0.40496  -0.40333  -0.40161  -0.39827  -0.39217
 Alpha  occ. eigenvalues --   -0.39210  -0.38901  -0.38619  -0.38582  -0.38308
 Alpha  occ. eigenvalues --   -0.38072  -0.37470  -0.36629  -0.36394  -0.36196
 Alpha  occ. eigenvalues --   -0.36003  -0.35935  -0.35266  -0.34114  -0.33985
 Alpha  occ. eigenvalues --   -0.33234  -0.32310  -0.32224  -0.31667  -0.26506
 Alpha  occ. eigenvalues --   -0.22783
 Alpha virt. eigenvalues --   -0.06771  -0.00517   0.02246   0.03871   0.04315
 Alpha virt. eigenvalues --    0.06442   0.06822   0.07519   0.07825   0.08940
 Alpha virt. eigenvalues --    0.10299   0.10787   0.11416   0.11722   0.12366

 Mulliken charges:
               1
     1  Mg   0.958334
     2  C    0.047678
     3  C   -0.067082
     4  C   -0.071033
     5  C   -0.072101
     6  N   -0.396342
     7  C   -0.017111
     8  C   -0.016631
     9  C   -0.120335
    10  C    0.106316
    11  C   -0.013614
    12  C    0.049690
    13  C   -0.041125
    14  C    0.244548
    15  O   -0.261950
    16  O   -0.406612
    17  N   -0.428669
    18  C    0.131955
    19  C   -0.159906
    20  C   -0.067537
    21  C    0.135138
    22  C    0.057679
    23  C    0.061433
    24  O   -0.204460
    25  C   -0.042651
    26  N   -0.356841
    27  C    0.075787
    28  C   -0.123834
    29  C   -0.062184
    30  C    0.059836
    31  C    0.039822
    32  C   -0.014082
    33  C   -0.064280
    34  N   -0.381634
    35  C    0.102431
    36  C   -0.229911
    37  C   -0.003209
    38  C    0.075745
    39  C    0.073120
    40  C    0.161848
    41  O   -0.210984
    42  C   -0.121533
    43  C    0.249707
    44  O   -0.229905
    45  O   -0.381771
    46  C    0.131645
    47  C    0.268373
    48  C   -0.126167
    49  C   -0.200635
    50  C    0.047386
    51  C    0.013573
    52  C   -0.007692
    53  C    0.011005
    54  C   -0.207181
    55  C   -0.038369
    56  C    0.005756
    57  C   -0.023849
    58  C    0.032710
    59  C   -0.223729
    60  C    0.021806
    61  C    0.038958
    62  C   -0.010934
    63  C    0.007179
    64  C   -0.218788
    65  C   -0.005484
    66  C   -0.013064
    67  H   -0.005848
    68  H   -0.011586
    69  H    0.008438
    70  H    0.035795
    71  H    0.050434
    72  H    0.034889
    73  H    0.046827
    74  H    0.041910
    75  H    0.040834
    76  H    0.041719
    77  H    0.075709
    78  H    0.059551
    79  H    0.065624
    80  H    0.058449
    81  H    0.033795
    82  H    0.052469
    83  H    0.064381
    84  H    0.059701
    85  H    0.040833
    86  H    0.044910
    87  H    0.032492
    88  H    0.036917
    89  H    0.047072
    90  H    0.039789
    91  H    0.034829
    92  H    0.035246
    93  H    0.014978
    94  H    0.046560
    95  H    0.053263
    96  H    0.043879
    97  H    0.057534
    98  H    0.057470
    99  H    0.058218
   100  H    0.048853
   101  H    0.071563
   102  H    0.047380
   103  H    0.052911
   104  H    0.010342
   105  H    0.049290
   106  H    0.032602
   107  H    0.019294
   108  H    0.031008
   109  H    0.008712
   110  H    0.024506
   111  H    0.027252
   112  H    0.024140
   113  H    0.018203
   114  H    0.017782
   115  H    0.016003
   116  H    0.036391
   117  H    0.032232
   118  H    0.013156
   119  H    0.024401
   120  H    0.019505
   121  H    0.016271
   122  H    0.025642
   123  H    0.012069
   124  H    0.005533
   125  H    0.024638
   126  H    0.012571
   127  H    0.027854
   128  H    0.008133
   129  H    0.014313
   130  H    0.021639
   131  H    0.012869
   132  H    0.018343
   133  H    0.003815
   134  H    0.027538
   135  H    0.022577
   136  H    0.028308
   137  H    0.034881
   138  H    0.037892
   139  H    0.013857
   140  H    0.042410
 Sum of Mulliken charges =  -0.00000

 Dipole moment (field-independent basis, Debye):
    X=              0.0502    Y=              5.4147    Z=             -1.4182  Tot=              5.5976
 Quadrupole moment (field-independent basis, Debye-Ang):
   XX=           -357.8888   YY=           -450.3821   ZZ=           -393.6885
   XY=             36.2246   XZ=             11.3132   YZ=             24.6671

 Normal termination of Gaussian 16 at Fri Apr 29 01:01:03 2022.
