 Gaussian 16, Revision A.03,
 Gaussian 16:  ES64L-G16RevA.03 25-Dec-2016

 --------------------
 #p ZINDO=(nstates=5)
 --------------------

 -----------------------------
 step_1751_chromophore_5 ZINDO
 -----------------------------
 Symbolic Z-matrix:
 Charge =  0 Multiplicity = 1

                         Standard orientation:
 ---------------------------------------------------------------------
 Center     Atomic      Atomic             Coordinates (Angstroms)
 Number     Number       Type             X           Y           Z
 ---------------------------------------------------------------------
      1         12           0        5.615406    0.593413   -0.362570
      2          6           0        4.264174   -2.602304   -0.125743
      3          6           0        2.947492    1.668391   -2.086846
      4          6           0        6.382910    3.868074    0.472159
      5          6           0        8.149743   -0.472682    2.007267
      6          7           0        3.811292   -0.397598   -0.916895
      7          6           0        3.412864   -1.702925   -0.746459
      8          6           0        2.037177   -1.914454   -1.293042
      9          6           0        1.754357   -0.649114   -2.169305
     10          6           0        2.924656    0.308070   -1.692915
     11          6           0        1.921222   -0.923471   -3.791059
     12          6           0        0.949807   -2.223029   -0.167396
     13          6           0        0.117178   -3.541897   -0.260236
     14          6           0       -1.477056   -3.557471   -0.519319
     15          8           0       -2.352494   -4.342342   -0.107880
     16          8           0       -1.788262   -2.530758   -1.466408
     17          7           0        4.902855    2.533338   -0.931009
     18          6           0        3.850540    2.728388   -1.695560
     19          6           0        3.715311    4.210612   -1.935517
     20          6           0        4.729778    4.915038   -1.254650
     21          6           0        5.422428    3.789757   -0.555670
     22          6           0        2.488353    4.869374   -2.769363
     23          6           0        5.030255    6.381644   -1.404230
     24          8           0        4.386809    7.198550   -2.018637
     25          6           0        6.356539    6.837060   -0.876477
     26          7           0        6.997970    1.493057    1.105123
     27          6           0        7.181967    2.839841    1.014676
     28          6           0        8.614242    3.267700    1.546948
     29          6           0        9.221007    1.882591    1.993902
     30          6           0        8.087969    0.912023    1.800527
     31          6           0        9.433578    4.078558    0.548007
     32          6           0        9.715548    1.955765    3.492705
     33          6           0       11.115312    1.388667    3.758870
     34          7           0        6.132456   -1.207809    0.644648
     35          6           0        7.175428   -1.424684    1.532659
     36          6           0        7.146105   -2.826809    1.932277
     37          6           0        6.058268   -3.359695    1.292050
     38          6           0        5.447566   -2.326477    0.526071
     39          6           0        8.063669   -3.519300    2.890230
     40          6           0        5.214908   -4.556109    1.116626
     41          8           0        5.464169   -5.682587    1.543950
     42          6           0        4.014171   -4.077775    0.194234
     43          6           0        3.899224   -5.051711   -1.067453
     44          8           0        4.627323   -4.920952   -2.015175
     45          8           0        2.939618   -6.049184   -1.024387
     46          6           0        2.451259   -6.598194   -2.321249
     47          6           0       -3.205510   -2.271301   -1.773562
     48          6           0       -3.591806   -1.061152   -0.869826
     49          6           0       -4.632186   -0.784672   -0.034267
     50          6           0       -5.727625   -1.715115    0.449491
     51          6           0       -4.955662    0.621006    0.331589
     52          6           0       -5.957029    1.361652   -0.609241
     53          6           0       -7.327429    1.709010    0.064675
     54          6           0       -8.546916    1.524629   -0.826020
     55          6           0       -9.705730    2.493211   -0.312958
     56          6           0       -9.115870    0.065159   -1.033013
     57          6           0       -9.992910   -0.615071    0.069231
     58          6           0      -11.319438   -1.131099   -0.433803
     59          6           0      -12.510164   -0.284274    0.120249
     60          6           0      -13.518878   -0.034549   -0.946346
     61          6           0      -13.098843   -0.962221    1.389607
     62          6           0      -13.372890    0.059766    2.503039
     63          6           0      -14.798338    0.624893    2.384947
     64          6           0      -14.686604    2.068801    1.756590
     65          6           0      -14.393996    3.145806    2.838245
     66          6           0      -16.008722    2.346619    0.918279
     67          1           0        2.094700    2.041682   -2.658005
     68          1           0        6.657305    4.887689    0.752173
     69          1           0        8.848999   -0.858150    2.752148
     70          1           0        2.064111   -2.749798   -1.991921
     71          1           0        0.796433   -0.150986   -2.025113
     72          1           0        1.821812   -1.967868   -4.088965
     73          1           0        2.891504   -0.680261   -4.224356
     74          1           0        1.140500   -0.415843   -4.356870
     75          1           0        0.217677   -1.430866   -0.010764
     76          1           0        1.432829   -2.149165    0.807525
     77          1           0        0.387871   -4.260927    0.512841
     78          1           0        0.357233   -4.022448   -1.208593
     79          1           0        2.835336    5.488012   -3.597732
     80          1           0        1.988867    5.525348   -2.056800
     81          1           0        1.714309    4.198592   -3.140304
     82          1           0        7.152595    6.110084   -1.038941
     83          1           0        6.231846    6.890218    0.204076
     84          1           0        6.667477    7.808221   -1.260962
     85          1           0        8.410914    3.834498    2.455684
     86          1           0       10.035727    1.597954    1.327699
     87          1           0        8.761629    4.344547   -0.267841
     88          1           0       10.216339    3.579518   -0.023630
     89          1           0        9.763707    4.962880    1.092843
     90          1           0        9.024645    1.412713    4.136858
     91          1           0        9.794046    2.979676    3.857245
     92          1           0       11.879635    2.163461    3.690157
     93          1           0       11.404057    0.772695    2.907552
     94          1           0       11.228744    0.718788    4.610455
     95          1           0        7.527402   -3.455458    3.837720
     96          1           0        9.089857   -3.159465    2.965548
     97          1           0        8.058107   -4.581266    2.645161
     98          1           0        3.047220   -4.219502    0.677653
     99          1           0        2.909291   -7.546602   -2.603272
    100          1           0        2.847822   -6.045637   -3.172443
    101          1           0        1.363832   -6.599691   -2.248028
    102          1           0       -3.887361   -3.097885   -1.574181
    103          1           0       -3.328406   -2.051567   -2.834128
    104          1           0       -3.123892   -0.111478   -1.130638
    105          1           0       -5.715005   -1.914890    1.520768
    106          1           0       -5.659141   -2.676064   -0.061077
    107          1           0       -6.694489   -1.245313    0.272351
    108          1           0       -4.091404    1.216896    0.623835
    109          1           0       -5.506636    0.606660    1.272049
    110          1           0       -6.117859    0.760760   -1.504413
    111          1           0       -5.528957    2.272861   -1.027187
    112          1           0       -7.360921    2.765762    0.329381
    113          1           0       -7.501348    1.139196    0.976736
    114          1           0       -8.371502    2.010246   -1.785575
    115          1           0      -10.635433    2.124215   -0.746161
    116          1           0       -9.592441    3.504959   -0.701945
    117          1           0       -9.910486    2.452120    0.757147
    118          1           0       -8.204553   -0.521316   -1.155859
    119          1           0       -9.595752    0.160641   -2.006223
    120          1           0      -10.086554    0.073556    0.908598
    121          1           0       -9.421989   -1.454379    0.467142
    122          1           0      -11.358541   -2.174237   -0.119188
    123          1           0      -11.297247   -0.994491   -1.515766
    124          1           0      -12.104735    0.696569    0.371298
    125          1           0      -13.220602    0.849158   -1.510930
    126          1           0      -14.528327    0.177784   -0.592822
    127          1           0      -13.568217   -0.921859   -1.578092
    128          1           0      -12.352449   -1.722988    1.613021
    129          1           0      -14.009479   -1.470897    1.073451
    130          1           0      -12.615424    0.839396    2.579534
    131          1           0      -13.280091   -0.507774    3.429424
    132          1           0      -15.376081    0.700385    3.305697
    133          1           0      -15.351434   -0.061986    1.744153
    134          1           0      -13.877429    2.068305    1.025706
    135          1           0      -15.313083    3.350626    3.387722
    136          1           0      -14.119901    4.100625    2.389538
    137          1           0      -13.614110    2.911415    3.562331
    138          1           0      -15.845087    3.287691    0.394074
    139          1           0      -16.738728    2.498546    1.712841
    140          1           0      -16.381887    1.479138    0.372888
 ---------------------------------------------------------------------

 SCF Done:  E(RZINDO/S) =  -473.736027025     A.U. after   19 cycles

 Excitation energies and oscillator strengths:

 Excited State   1:      Singlet-A      1.3025 eV  951.91 nm  f=0.5345  <S**2>=0.000
     175 ->178        -0.15507
     176 ->177         0.67166
 This state for optimization and/or second-order correction.
 Total Energy, E(CIS/TDA) =  -473.688161851
 Copying the excited state density for this state as the 1-particle RhoCI density.

 Excited State   2:      Singlet-A      1.9191 eV  646.06 nm  f=0.0033  <S**2>=0.000
     175 ->177         0.48109
     176 ->178         0.48111

 Excited State   3:      Singlet-A      2.8365 eV  437.10 nm  f=0.1300  <S**2>=0.000
     175 ->177        -0.15914
     176 ->178         0.16894
     176 ->179         0.20608
     176 ->180         0.62172

 Excited State   4:      Singlet-A      2.9284 eV  423.39 nm  f=0.6258  <S**2>=0.000
     175 ->177        -0.34634
     176 ->178         0.42503
     176 ->179         0.22943
     176 ->180        -0.31638

 Excited State   5:      Singlet-A      3.0156 eV  411.14 nm  f=0.4438  <S**2>=0.000
     175 ->177         0.25190
     176 ->178        -0.17746
     176 ->179         0.51014
     176 ->181         0.24943
     176 ->182        -0.16091

 The electronic state is 1-A.
 Alpha  occ. eigenvalues --   -1.83926  -1.80118  -1.78070  -1.70315  -1.69545
 Alpha  occ. eigenvalues --   -1.68003  -1.67630  -1.61701  -1.61529  -1.56236
 Alpha  occ. eigenvalues --   -1.54574  -1.49200  -1.47571  -1.46744  -1.44541
 Alpha  occ. eigenvalues --   -1.43958  -1.43391  -1.41028  -1.37647  -1.36180
 Alpha  occ. eigenvalues --   -1.34147  -1.32739  -1.32063  -1.31053  -1.27892
 Alpha  occ. eigenvalues --   -1.27095  -1.26581  -1.23298  -1.19626  -1.18128
 Alpha  occ. eigenvalues --   -1.16557  -1.15735  -1.14242  -1.14015  -1.13433
 Alpha  occ. eigenvalues --   -1.12773  -1.10526  -1.09313  -1.05200  -1.03741
 Alpha  occ. eigenvalues --   -1.02657  -1.01108  -0.99466  -0.98043  -0.97917
 Alpha  occ. eigenvalues --   -0.96167  -0.95769  -0.95271  -0.93788  -0.93423
 Alpha  occ. eigenvalues --   -0.92758  -0.90845  -0.88594  -0.87054  -0.86832
 Alpha  occ. eigenvalues --   -0.84740  -0.83934  -0.82761  -0.82376  -0.80066
 Alpha  occ. eigenvalues --   -0.79621  -0.79513  -0.78962  -0.77202  -0.76503
 Alpha  occ. eigenvalues --   -0.75980  -0.74757  -0.74555  -0.73497  -0.73374
 Alpha  occ. eigenvalues --   -0.73141  -0.72947  -0.71855  -0.71169  -0.70899
 Alpha  occ. eigenvalues --   -0.70542  -0.69653  -0.68683  -0.68152  -0.67946
 Alpha  occ. eigenvalues --   -0.66846  -0.66498  -0.66289  -0.65945  -0.65335
 Alpha  occ. eigenvalues --   -0.65166  -0.64620  -0.64123  -0.63992  -0.63676
 Alpha  occ. eigenvalues --   -0.63553  -0.63304  -0.62572  -0.61928  -0.61689
 Alpha  occ. eigenvalues --   -0.61573  -0.61408  -0.61267  -0.60568  -0.60439
 Alpha  occ. eigenvalues --   -0.59902  -0.59447  -0.58853  -0.58274  -0.57939
 Alpha  occ. eigenvalues --   -0.57759  -0.57466  -0.57259  -0.57248  -0.56757
 Alpha  occ. eigenvalues --   -0.56748  -0.55858  -0.55655  -0.55089  -0.55048
 Alpha  occ. eigenvalues --   -0.54903  -0.54283  -0.53475  -0.53366  -0.53042
 Alpha  occ. eigenvalues --   -0.52867  -0.52416  -0.52315  -0.52095  -0.51945
 Alpha  occ. eigenvalues --   -0.51633  -0.51276  -0.51134  -0.50847  -0.50689
 Alpha  occ. eigenvalues --   -0.50316  -0.50218  -0.49236  -0.49022  -0.48964
 Alpha  occ. eigenvalues --   -0.48825  -0.48634  -0.48353  -0.48201  -0.47935
 Alpha  occ. eigenvalues --   -0.47845  -0.47647  -0.47457  -0.47145  -0.46916
 Alpha  occ. eigenvalues --   -0.46897  -0.46770  -0.46065  -0.45727  -0.45377
 Alpha  occ. eigenvalues --   -0.45326  -0.45078  -0.44633  -0.44542  -0.44373
 Alpha  occ. eigenvalues --   -0.44237  -0.43673  -0.43088  -0.42510  -0.42273
 Alpha  occ. eigenvalues --   -0.41957  -0.41752  -0.41673  -0.39634  -0.39083
 Alpha  occ. eigenvalues --   -0.38059  -0.37447  -0.36968  -0.35554  -0.34438
 Alpha  occ. eigenvalues --   -0.34229  -0.32908  -0.32413  -0.32031  -0.27433
 Alpha  occ. eigenvalues --   -0.21784
 Alpha virt. eigenvalues --   -0.08249  -0.02727  -0.00916   0.00299   0.01035
 Alpha virt. eigenvalues --    0.01159   0.02261   0.03179   0.03907   0.03942
 Alpha virt. eigenvalues --    0.05148   0.05706   0.06313   0.06632   0.07066

 Mulliken charges:
               1
     1  Mg   0.439543
     2  C   -0.035119
     3  C   -0.112452
     4  C   -0.076469
     5  C   -0.050949
     6  N   -0.294430
     7  C    0.108136
     8  C    0.018909
     9  C   -0.000813
    10  C    0.165744
    11  C   -0.059054
    12  C   -0.023134
    13  C    0.009767
    14  C    0.456076
    15  O   -0.501621
    16  O   -0.286918
    17  N   -0.314322
    18  C    0.162935
    19  C    0.041048
    20  C   -0.035209
    21  C    0.125272
    22  C   -0.044278
    23  C    0.346889
    24  O   -0.502406
    25  C   -0.029681
    26  N   -0.271027
    27  C    0.164337
    28  C   -0.003663
    29  C    0.009886
    30  C    0.059946
    31  C   -0.051588
    32  C   -0.031212
    33  C   -0.063936
    34  N   -0.306629
    35  C    0.038968
    36  C    0.028924
    37  C   -0.069136
    38  C    0.112249
    39  C   -0.041074
    40  C    0.327908
    41  O   -0.520826
    42  C    0.055945
    43  C    0.470856
    44  O   -0.508106
    45  O   -0.277884
    46  C    0.070637
    47  C    0.113796
    48  C   -0.102849
    49  C    0.015001
    50  C   -0.043360
    51  C   -0.019810
    52  C   -0.028608
    53  C   -0.027796
    54  C   -0.019809
    55  C   -0.070300
    56  C   -0.036938
    57  C   -0.030476
    58  C   -0.035166
    59  C   -0.016102
    60  C   -0.053999
    61  C   -0.034817
    62  C   -0.029068
    63  C   -0.034809
    64  C   -0.017365
    65  C   -0.053323
    66  C   -0.069139
    67  H    0.026028
    68  H    0.028257
    69  H    0.035311
    70  H    0.033476
    71  H    0.040265
    72  H    0.021261
    73  H    0.029625
    74  H    0.020321
    75  H    0.027295
    76  H    0.024647
    77  H    0.048008
    78  H    0.040629
    79  H    0.043115
    80  H    0.033293
    81  H    0.027211
    82  H    0.029948
    83  H    0.037322
    84  H    0.040241
    85  H    0.032861
    86  H    0.038958
    87  H    0.015960
    88  H    0.031588
    89  H    0.024262
    90  H    0.024927
    91  H    0.018075
    92  H    0.018862
    93  H    0.007462
    94  H    0.028977
    95  H    0.031396
    96  H    0.028540
    97  H    0.031718
    98  H    0.043796
    99  H    0.047754
   100  H    0.044201
   101  H    0.042250
   102  H    0.053545
   103  H    0.041712
   104  H    0.016334
   105  H    0.031530
   106  H    0.020569
   107  H    0.029012
   108  H    0.021927
   109  H    0.008477
   110  H    0.019310
   111  H    0.018111
   112  H    0.016614
   113  H    0.023772
   114  H    0.017230
   115  H    0.006236
   116  H    0.019808
   117  H    0.022062
   118  H    0.011600
   119  H    0.021840
   120  H    0.022102
   121  H    0.010743
   122  H    0.025974
   123  H    0.020439
   124  H    0.020542
   125  H    0.013084
   126  H    0.014692
   127  H    0.016800
   128  H    0.017792
   129  H    0.022774
   130  H    0.026646
   131  H    0.003554
   132  H    0.021381
   133  H    0.019511
   134  H    0.019692
   135  H    0.016546
   136  H    0.012988
   137  H    0.021986
   138  H    0.024752
   139  H    0.011945
   140  H    0.031429
 Sum of Mulliken charges =  -0.00000

 Dipole moment (field-independent basis, Debye):
    X=             -0.8138    Y=              9.1229    Z=             -1.7637  Tot=              9.3274
 N-N= 4.273820182652D+03 E-N= 0.000000000000D+00  KE=-9.220840223244D+03
 Leave Link  601 at Fri Apr 29 01:13:08 2022, MaxMem=  6710886400 cpu:               0.8 elap:               0.0
 (Enter /sw/apps/gaussian-16.0/g16/l9999.exe)
 1\1\GINC-BP1-COMPUTE159\SP\RZINDO CIS\STO-3G\C55H74Mg1N4O6\OF15641\29-
 Apr-2022\0\\#p ZINDO=(nstates=5)\\step_1751_chromophore_5 ZINDO\\0,1\M
 g,0,25.073,-7.785,47.464\C,0,27.418,-5.399,46.514\C,0,22.977,-6.789,45
 .043\C,0,23.413,-10.822,47.638\C,0,27.618,-9.194,49.635\N,0,25.293,-6.
 316,45.935\C,0,26.31,-5.425,45.683\C,0,26.009,-4.604,44.47\C,0,24.487,
 -4.84,44.193\C,0,24.208,-6.093,45.123\C,0,23.528,-3.588,44.689\C,0,26.
 982,-4.908,43.243\C,0,27.802,-3.734,42.618\C,0,27.56,-3.197,41.114\O,0

 Normal termination of Gaussian 16 at Fri Apr 29 01:13:08 2022.
