 Gaussian 16, Revision A.03,
 Gaussian 16:  ES64L-G16RevA.03 25-Dec-2016

 ------------------------------
 #p blyp/Def2SVP td=(nstates=5)
 ------------------------------

 -------------------------------------------------
 step_501_chromophore_7 TDDFT with blyp functional
 -------------------------------------------------
 Symbolic Z-matrix:
 Charge =  0 Multiplicity = 1

                         Standard orientation:
 ---------------------------------------------------------------------
 Center     Atomic      Atomic             Coordinates (Angstroms)
 Number     Number       Type             X           Y           Z
 ---------------------------------------------------------------------
      1         12           0        6.194244    0.457426    0.107384
      2          6           0        3.786553   -1.988928    0.343990
      3          6           0        3.791416    2.537460   -1.361786
      4          6           0        8.517724    2.880049   -0.248597
      5          6           0        8.553720   -1.729592    1.187698
      6          7           0        4.074495    0.164519   -0.683072
      7          6           0        3.245944   -0.870291   -0.231480
      8          6           0        1.753307   -0.555905   -0.453755
      9          6           0        1.851664    0.871972   -1.106553
     10          6           0        3.306345    1.282460   -1.026633
     11          6           0        1.316030    0.915640   -2.532083
     12          6           0        0.765675   -0.583471    0.766033
     13          6           0       -0.364270   -1.749997    0.777269
     14          6           0       -1.775613   -1.155097    0.803801
     15          8           0       -2.161160   -0.237815    1.549429
     16          8           0       -2.470693   -1.618856   -0.209564
     17          7           0        6.203956    2.356653   -0.765416
     18          6           0        5.078291    3.078084   -1.194786
     19          6           0        5.405014    4.488827   -1.427246
     20          6           0        6.874482    4.643618   -1.179964
     21          6           0        7.280929    3.284139   -0.642322
     22          6           0        4.385462    5.510362   -1.880614
     23          6           0        7.763234    5.786506   -1.331688
     24          8           0        8.982372    5.645292   -1.155517
     25          6           0        7.281512    7.158655   -1.769256
     26          7           0        8.185181    0.494008    0.345957
     27          6           0        8.972058    1.658352    0.273018
     28          6           0       10.462142    1.491285    0.777783
     29          6           0       10.410669   -0.064751    1.207469
     30          6           0        8.944265   -0.450059    0.908059
     31          6           0       11.582817    1.814221   -0.329034
     32          6           0       10.809866   -0.265076    2.709925
     33          6           0       11.619084   -1.472673    3.066069
     34          7           0        6.179900   -1.537405    0.564322
     35          6           0        7.240053   -2.303980    1.056630
     36          6           0        6.787649   -3.584693    1.481034
     37          6           0        5.360020   -3.467824    1.298799
     38          6           0        5.100360   -2.240567    0.675758
     39          6           0        7.504880   -4.716657    2.087873
     40          6           0        4.138836   -4.208412    1.358233
     41          8           0        3.813303   -5.326752    1.771686
     42          6           0        3.077225   -3.300089    0.586928
     43          6           0        2.624215   -4.023662   -0.630505
     44          8           0        2.977774   -3.884537   -1.734926
     45          8           0        1.565615   -4.873520   -0.318501
     46          6           0        0.676681   -5.175828   -1.421019
     47          6           0       -3.687866   -0.969878   -0.660141
     48          6           0       -4.706172   -1.893331   -1.113156
     49          6           0       -5.932422   -1.557972   -1.606709
     50          6           0       -6.255447   -0.109827   -1.999449
     51          6           0       -7.039296   -2.582707   -1.865128
     52          6           0       -8.490832   -2.238938   -1.305965
     53          6           0       -9.443080   -2.193607   -2.449187
     54          6           0      -10.837830   -1.574101   -2.193494
     55          6           0      -11.966229   -2.161376   -3.078869
     56          6           0      -10.760411   -0.037530   -2.192518
     57          6           0      -11.429331    0.536319   -0.876237
     58          6           0      -12.921275    0.838115   -0.928154
     59          6           0      -13.723772    0.242242    0.322326
     60          6           0      -14.382973   -1.008683   -0.299743
     61          6           0      -14.723252    1.281879    0.850595
     62          6           0      -14.319908    1.736898    2.285014
     63          6           0      -14.019031    3.202570    2.471672
     64          6           0      -13.178722    3.482723    3.754308
     65          6           0      -14.010691    3.796413    4.956280
     66          6           0      -12.099412    4.610763    3.620705
     67          1           0        3.015871    3.208644   -1.736696
     68          1           0        9.343160    3.594878   -0.247464
     69          1           0        9.277263   -2.386168    1.675317
     70          1           0        1.363727   -1.240648   -1.206282
     71          1           0        1.213047    1.593829   -0.596687
     72          1           0        2.142812    1.127407   -3.209559
     73          1           0        0.629984    1.761251   -2.501647
     74          1           0        0.736553    0.048733   -2.848833
     75          1           0        0.261600    0.382395    0.807704
     76          1           0        1.299909   -0.735407    1.704014
     77          1           0       -0.188064   -2.226131    1.741977
     78          1           0       -0.239809   -2.408562   -0.082036
     79          1           0        4.176946    5.296198   -2.929560
     80          1           0        4.835091    6.497589   -1.785984
     81          1           0        3.418531    5.407820   -1.387565
     82          1           0        8.175294    7.687148   -2.101476
     83          1           0        6.754549    7.709969   -0.989797
     84          1           0        6.693788    7.213837   -2.685359
     85          1           0       10.605180    2.056733    1.698031
     86          1           0       11.110627   -0.711291    0.677690
     87          1           0       12.391363    1.091227   -0.219178
     88          1           0       12.124821    2.752635   -0.218436
     89          1           0       11.196266    1.786755   -1.348015
     90          1           0        9.967852   -0.222673    3.400612
     91          1           0       11.477331    0.516918    3.071463
     92          1           0       10.947038   -2.082579    3.669572
     93          1           0       12.451418   -1.394487    3.765510
     94          1           0       11.907654   -2.003678    2.158363
     95          1           0        8.373416   -4.326650    2.619285
     96          1           0        7.845091   -5.300795    1.232892
     97          1           0        6.786681   -5.335187    2.626456
     98          1           0        2.212960   -3.113683    1.223931
     99          1           0        1.231566   -5.906039   -2.009097
    100          1           0        0.571847   -4.243498   -1.975649
    101          1           0       -0.258367   -5.616314   -1.073774
    102          1           0       -3.477829   -0.467420   -1.603085
    103          1           0       -4.152801   -0.287417    0.051744
    104          1           0       -4.603976   -2.924131   -0.773883
    105          1           0       -6.723326   -0.147315   -2.982956
    106          1           0       -5.392207    0.554924   -2.027981
    107          1           0       -6.964538    0.287194   -1.273679
    108          1           0       -6.801835   -3.540632   -1.403109
    109          1           0       -7.115997   -2.575736   -2.952089
    110          1           0       -8.492950   -1.368345   -0.649546
    111          1           0       -8.863319   -3.050763   -0.679692
    112          1           0       -9.740947   -3.169184   -2.832845
    113          1           0       -8.977132   -1.523245   -3.172261
    114          1           0      -11.087440   -1.998111   -1.220871
    115          1           0      -12.625287   -2.851222   -2.552014
    116          1           0      -11.642533   -2.656631   -3.994948
    117          1           0      -12.618781   -1.370791   -3.448778
    118          1           0      -11.385513    0.220154   -3.047400
    119          1           0       -9.771836    0.384636   -2.370236
    120          1           0      -10.957248    1.449874   -0.513104
    121          1           0      -11.095608   -0.140268   -0.088467
    122          1           0      -13.422020    0.572188   -1.859608
    123          1           0      -13.030640    1.922313   -0.956962
    124          1           0      -13.011866   -0.123895    1.062518
    125          1           0      -14.704149   -1.565835    0.581186
    126          1           0      -13.685399   -1.667080   -0.817533
    127          1           0      -15.135355   -0.771111   -1.050686
    128          1           0      -15.738520    0.908611    0.714112
    129          1           0      -14.736645    2.132135    0.169081
    130          1           0      -13.526590    1.066069    2.616681
    131          1           0      -15.102915    1.529808    3.014189
    132          1           0      -14.899018    3.840933    2.548510
    133          1           0      -13.417515    3.464331    1.600408
    134          1           0      -12.652167    2.551549    3.960117
    135          1           0      -13.659001    4.704797    5.445338
    136          1           0      -13.963853    2.945494    5.636365
    137          1           0      -15.061882    4.010073    4.762456
    138          1           0      -11.295680    3.957837    3.282497
    139          1           0      -11.747942    5.023174    4.566422
    140          1           0      -12.265831    5.364531    2.851201
 ---------------------------------------------------------------------

 SCF Done:  E(RB-LYP) =  -3007.35101405     A.U. after   21 cycles

 Excitation energies and oscillator strengths:

 Excited State   1:      Singlet-A      1.6997 eV  729.44 nm  f=0.0602  <S**2>=0.000
     244 -> 247        0.60270
     245 -> 247       -0.21625
     246 -> 247       -0.29361
 This state for optimization and/or second-order correction.
 Total Energy, E(TD-HF/TD-DFT) =  -3007.28855076
 Copying the excited state density for this state as the 1-particle RhoCI density.

 Excited State   2:      Singlet-A      1.7795 eV  696.75 nm  f=0.2597  <S**2>=0.000
     244 -> 247        0.25289
     245 -> 247       -0.15526
     245 -> 248        0.15816
     246 -> 247        0.62263
     246 <- 247       -0.14466

 Excited State   3:      Singlet-A      1.8542 eV  668.66 nm  f=0.0073  <S**2>=0.000
     243 -> 247        0.68549
     245 -> 247       -0.11799

 Excited State   4:      Singlet-A      1.9826 eV  625.35 nm  f=0.0805  <S**2>=0.000
     243 -> 247        0.14972
     244 -> 247        0.24066
     245 -> 247        0.58904
     246 -> 248       -0.20268
     246 -> 249       -0.12176

 Excited State   5:      Singlet-A      2.1036 eV  589.38 nm  f=0.0001  <S**2>=0.000
     242 -> 247        0.70699

 The electronic state is 1-A.
 Alpha  occ. eigenvalues --  -46.26467 -18.83273 -18.79477 -18.76544 -18.76094
 Alpha  occ. eigenvalues --  -18.75289 -18.75214 -14.03606 -14.03139 -14.01597
 Alpha  occ. eigenvalues --  -14.00430 -10.04272 -10.02897  -9.99780  -9.99171
 Alpha  occ. eigenvalues --   -9.98430  -9.96989  -9.96778  -9.96586  -9.96489
 Alpha  occ. eigenvalues --   -9.96242  -9.96228  -9.96213  -9.95492  -9.95198
 Alpha  occ. eigenvalues --   -9.95100  -9.94402  -9.94316  -9.93944  -9.93853
 Alpha  occ. eigenvalues --   -9.93807  -9.93744  -9.93690  -9.93681  -9.93599
 Alpha  occ. eigenvalues --   -9.93324  -9.93106  -9.93037  -9.92852  -9.92708
 Alpha  occ. eigenvalues --   -9.92701  -9.92575  -9.92569  -9.92556  -9.92537
 Alpha  occ. eigenvalues --   -9.92245  -9.92084  -9.92073  -9.91916  -9.91759
 Alpha  occ. eigenvalues --   -9.91737  -9.91699  -9.91650  -9.91602  -9.91411
 Alpha  occ. eigenvalues --   -9.91241  -9.91155  -9.91119  -9.91096  -9.91088
 Alpha  occ. eigenvalues --   -9.91064  -9.90883  -9.90866  -9.90754  -9.90692
 Alpha  occ. eigenvalues --   -9.90042  -2.91315  -1.71712  -1.71201  -1.71043
 Alpha  occ. eigenvalues --   -0.99817  -0.98225  -0.90850  -0.90161  -0.89937
 Alpha  occ. eigenvalues --   -0.89145  -0.87203  -0.85846  -0.84457  -0.82968
 Alpha  occ. eigenvalues --   -0.75660  -0.74279  -0.73267  -0.72700  -0.72454
 Alpha  occ. eigenvalues --   -0.72214  -0.71857  -0.71283  -0.70950  -0.70780
 Alpha  occ. eigenvalues --   -0.69871  -0.69700  -0.68407  -0.67427  -0.67340
 Alpha  occ. eigenvalues --   -0.66692  -0.65989  -0.65586  -0.65106  -0.64519
 Alpha  occ. eigenvalues --   -0.64424  -0.63034  -0.62550  -0.61807  -0.61032
 Alpha  occ. eigenvalues --   -0.60343  -0.60016  -0.59850  -0.59593  -0.59371
 Alpha  occ. eigenvalues --   -0.58588  -0.58019  -0.56781  -0.55625  -0.54303
 Alpha  occ. eigenvalues --   -0.54168  -0.53780  -0.53138  -0.52811  -0.51621
 Alpha  occ. eigenvalues --   -0.51412  -0.51293  -0.50878  -0.50516  -0.50297
 Alpha  occ. eigenvalues --   -0.50100  -0.49423  -0.48717  -0.47315  -0.46415
 Alpha  occ. eigenvalues --   -0.46319  -0.45981  -0.45670  -0.45324  -0.44832
 Alpha  occ. eigenvalues --   -0.44541  -0.44222  -0.43320  -0.43136  -0.42524
 Alpha  occ. eigenvalues --   -0.42013  -0.41858  -0.41624  -0.41410  -0.41037
 Alpha  occ. eigenvalues --   -0.40744  -0.40512  -0.40297  -0.40098  -0.39921
 Alpha  occ. eigenvalues --   -0.39820  -0.39622  -0.39512  -0.39326  -0.39256
 Alpha  occ. eigenvalues --   -0.39089  -0.38860  -0.38816  -0.38698  -0.38390
 Alpha  occ. eigenvalues --   -0.38143  -0.37944  -0.37701  -0.37666  -0.37584
 Alpha  occ. eigenvalues --   -0.37381  -0.37176  -0.37006  -0.36975  -0.36863
 Alpha  occ. eigenvalues --   -0.36507  -0.36154  -0.35998  -0.35805  -0.35597
 Alpha  occ. eigenvalues --   -0.35326  -0.35266  -0.35135  -0.34998  -0.34770
 Alpha  occ. eigenvalues --   -0.34712  -0.34637  -0.34422  -0.34367  -0.34148
 Alpha  occ. eigenvalues --   -0.34101  -0.33968  -0.33588  -0.33423  -0.33321
 Alpha  occ. eigenvalues --   -0.33186  -0.32903  -0.32553  -0.32428  -0.32340
 Alpha  occ. eigenvalues --   -0.32150  -0.32063  -0.31776  -0.31528  -0.31397
 Alpha  occ. eigenvalues --   -0.31321  -0.31285  -0.31007  -0.30688  -0.30440
 Alpha  occ. eigenvalues --   -0.30410  -0.30257  -0.30220  -0.29944  -0.29929
 Alpha  occ. eigenvalues --   -0.29726  -0.29451  -0.29166  -0.29139  -0.29057
 Alpha  occ. eigenvalues --   -0.28930  -0.28664  -0.28609  -0.28224  -0.27869
 Alpha  occ. eigenvalues --   -0.27707  -0.27448  -0.27072  -0.26735  -0.26594
 Alpha  occ. eigenvalues --   -0.26312  -0.26309  -0.25623  -0.25510  -0.25290
 Alpha  occ. eigenvalues --   -0.25092  -0.23974  -0.23655  -0.23603  -0.23448
 Alpha  occ. eigenvalues --   -0.23329  -0.22306  -0.21739  -0.21647  -0.20582
 Alpha  occ. eigenvalues --   -0.20329  -0.19783  -0.18772  -0.18265  -0.17561
 Alpha  occ. eigenvalues --   -0.16126
 Alpha virt. eigenvalues --   -0.12052  -0.07552  -0.06355  -0.04685  -0.03090
 Alpha virt. eigenvalues --   -0.02773  -0.01983  -0.01773  -0.01464   0.00594
 Alpha virt. eigenvalues --    0.01334   0.01949   0.02108   0.02277   0.02805

 Mulliken charges:
               1
     1  Mg   0.694010
     2  C    0.056905
     3  C   -0.075287
     4  C   -0.033917
     5  C   -0.105115
     6  N   -0.235264
     7  C   -0.119301
     8  C    0.082055
     9  C   -0.041971
    10  C    0.053786
    11  C    0.123933
    12  C    0.092437
    13  C    0.105184
    14  C    0.053868
    15  O   -0.219364
    16  O   -0.217797
    17  N   -0.321334
    18  C    0.176800
    19  C   -0.164446
    20  C    0.079286
    21  C    0.148735
    22  C    0.188632
    23  C   -0.096204
    24  O   -0.182044
    25  C    0.109524
    26  N   -0.258216
    27  C   -0.005561
    28  C    0.061515
    29  C    0.009509
    30  C    0.103761
    31  C    0.105123
    32  C    0.057280
    33  C    0.064894
    34  N   -0.232139
    35  C    0.113088
    36  C   -0.179725
    37  C    0.084780
    38  C    0.061633
    39  C    0.207480
    40  C   -0.076886
    41  O   -0.139100
    42  C    0.026774
    43  C    0.103223
    44  O   -0.122035
    45  O   -0.298490
    46  C    0.231971
    47  C    0.333614
    48  C   -0.130852
    49  C   -0.178749
    50  C    0.130524
    51  C    0.163406
    52  C    0.065736
    53  C    0.072722
    54  C   -0.088441
    55  C    0.104043
    56  C    0.129660
    57  C    0.063904
    58  C    0.109956
    59  C   -0.110969
    60  C    0.108349
    61  C    0.171573
    62  C    0.059037
    63  C    0.129020
    64  C   -0.121942
    65  C    0.125668
    66  C    0.102575
    67  H   -0.072817
    68  H   -0.043613
    69  H   -0.081233
    70  H   -0.023189
    71  H   -0.023017
    72  H    0.002613
    73  H   -0.016990
    74  H   -0.002755
    75  H    0.002072
    76  H   -0.014295
    77  H    0.013971
    78  H    0.002472
    79  H    0.004483
    80  H   -0.014553
    81  H    0.003951
    82  H   -0.012642
    83  H    0.022859
    84  H    0.002949
    85  H   -0.009623
    86  H   -0.017594
    87  H   -0.012369
    88  H   -0.000182
    89  H    0.010773
    90  H   -0.021264
    91  H   -0.022673
    92  H   -0.017310
    93  H   -0.011992
    94  H   -0.006823
    95  H    0.000144
    96  H    0.003418
    97  H    0.015980
    98  H   -0.011231
    99  H    0.005743
   100  H    0.003247
   101  H    0.017899
   102  H    0.003472
   103  H    0.024813
   104  H   -0.040706
   105  H   -0.000438
   106  H   -0.014350
   107  H    0.008614
   108  H   -0.026356
   109  H   -0.006994
   110  H   -0.020488
   111  H   -0.034380
   112  H   -0.030203
   113  H   -0.035241
   114  H   -0.039550
   115  H   -0.002231
   116  H   -0.026371
   117  H   -0.027391
   118  H   -0.039837
   119  H   -0.034060
   120  H   -0.045175
   121  H   -0.034499
   122  H   -0.039807
   123  H   -0.044985
   124  H   -0.024373
   125  H   -0.024667
   126  H   -0.031604
   127  H   -0.010402
   128  H   -0.046996
   129  H   -0.041213
   130  H   -0.035509
   131  H   -0.042198
   132  H   -0.024811
   133  H   -0.043166
   134  H   -0.039600
   135  H   -0.026955
   136  H   -0.017575
   137  H   -0.028367
   138  H   -0.026299
   139  H   -0.012913
   140  H   -0.004419
 Sum of Mulliken charges =  -0.00000

 Dipole moment (field-independent basis, Debye):
    X=             -1.8695    Y=              3.2151    Z=             -0.8080  Tot=              3.8059
 Quadrupole moment (field-independent basis, Debye-Ang):
   XX=           -371.6693   YY=           -424.4685   ZZ=           -407.5755
   XY=              1.8014   XZ=             30.0483   YZ=              0.4634

 Normal termination of Gaussian 16 at Thu May  5 02:01:40 2022.
