 Gaussian 16, Revision A.03,
 Gaussian 16:  ES64L-G16RevA.03 25-Dec-2016

 -----------------------------------
 #p cam-b3lyp/Def2SVP td=(nstates=5)
 -----------------------------------

 ------------------------------------------------------
 step_501_chromophore_7 TDDFT with cam-b3lyp functional
 ------------------------------------------------------
 Symbolic Z-matrix:
 Charge =  0 Multiplicity = 1

                         Standard orientation:
 ---------------------------------------------------------------------
 Center     Atomic      Atomic             Coordinates (Angstroms)
 Number     Number       Type             X           Y           Z
 ---------------------------------------------------------------------
      1         12           0        6.194244    0.457426    0.107384
      2          6           0        3.786553   -1.988928    0.343990
      3          6           0        3.791416    2.537460   -1.361786
      4          6           0        8.517724    2.880049   -0.248597
      5          6           0        8.553720   -1.729592    1.187698
      6          7           0        4.074495    0.164519   -0.683072
      7          6           0        3.245944   -0.870291   -0.231480
      8          6           0        1.753307   -0.555905   -0.453755
      9          6           0        1.851664    0.871972   -1.106553
     10          6           0        3.306345    1.282460   -1.026633
     11          6           0        1.316030    0.915640   -2.532083
     12          6           0        0.765675   -0.583471    0.766033
     13          6           0       -0.364270   -1.749997    0.777269
     14          6           0       -1.775613   -1.155097    0.803801
     15          8           0       -2.161160   -0.237815    1.549429
     16          8           0       -2.470693   -1.618856   -0.209564
     17          7           0        6.203956    2.356653   -0.765416
     18          6           0        5.078291    3.078084   -1.194786
     19          6           0        5.405014    4.488827   -1.427246
     20          6           0        6.874482    4.643618   -1.179964
     21          6           0        7.280929    3.284139   -0.642322
     22          6           0        4.385462    5.510362   -1.880614
     23          6           0        7.763234    5.786506   -1.331688
     24          8           0        8.982372    5.645292   -1.155517
     25          6           0        7.281512    7.158655   -1.769256
     26          7           0        8.185181    0.494008    0.345957
     27          6           0        8.972058    1.658352    0.273018
     28          6           0       10.462142    1.491285    0.777783
     29          6           0       10.410669   -0.064751    1.207469
     30          6           0        8.944265   -0.450059    0.908059
     31          6           0       11.582817    1.814221   -0.329034
     32          6           0       10.809866   -0.265076    2.709925
     33          6           0       11.619084   -1.472673    3.066069
     34          7           0        6.179900   -1.537405    0.564322
     35          6           0        7.240053   -2.303980    1.056630
     36          6           0        6.787649   -3.584693    1.481034
     37          6           0        5.360020   -3.467824    1.298799
     38          6           0        5.100360   -2.240567    0.675758
     39          6           0        7.504880   -4.716657    2.087873
     40          6           0        4.138836   -4.208412    1.358233
     41          8           0        3.813303   -5.326752    1.771686
     42          6           0        3.077225   -3.300089    0.586928
     43          6           0        2.624215   -4.023662   -0.630505
     44          8           0        2.977774   -3.884537   -1.734926
     45          8           0        1.565615   -4.873520   -0.318501
     46          6           0        0.676681   -5.175828   -1.421019
     47          6           0       -3.687866   -0.969878   -0.660141
     48          6           0       -4.706172   -1.893331   -1.113156
     49          6           0       -5.932422   -1.557972   -1.606709
     50          6           0       -6.255447   -0.109827   -1.999449
     51          6           0       -7.039296   -2.582707   -1.865128
     52          6           0       -8.490832   -2.238938   -1.305965
     53          6           0       -9.443080   -2.193607   -2.449187
     54          6           0      -10.837830   -1.574101   -2.193494
     55          6           0      -11.966229   -2.161376   -3.078869
     56          6           0      -10.760411   -0.037530   -2.192518
     57          6           0      -11.429331    0.536319   -0.876237
     58          6           0      -12.921275    0.838115   -0.928154
     59          6           0      -13.723772    0.242242    0.322326
     60          6           0      -14.382973   -1.008683   -0.299743
     61          6           0      -14.723252    1.281879    0.850595
     62          6           0      -14.319908    1.736898    2.285014
     63          6           0      -14.019031    3.202570    2.471672
     64          6           0      -13.178722    3.482723    3.754308
     65          6           0      -14.010691    3.796413    4.956280
     66          6           0      -12.099412    4.610763    3.620705
     67          1           0        3.015871    3.208644   -1.736696
     68          1           0        9.343160    3.594878   -0.247464
     69          1           0        9.277263   -2.386168    1.675317
     70          1           0        1.363727   -1.240648   -1.206282
     71          1           0        1.213047    1.593829   -0.596687
     72          1           0        2.142812    1.127407   -3.209559
     73          1           0        0.629984    1.761251   -2.501647
     74          1           0        0.736553    0.048733   -2.848833
     75          1           0        0.261600    0.382395    0.807704
     76          1           0        1.299909   -0.735407    1.704014
     77          1           0       -0.188064   -2.226131    1.741977
     78          1           0       -0.239809   -2.408562   -0.082036
     79          1           0        4.176946    5.296198   -2.929560
     80          1           0        4.835091    6.497589   -1.785984
     81          1           0        3.418531    5.407820   -1.387565
     82          1           0        8.175294    7.687148   -2.101476
     83          1           0        6.754549    7.709969   -0.989797
     84          1           0        6.693788    7.213837   -2.685359
     85          1           0       10.605180    2.056733    1.698031
     86          1           0       11.110627   -0.711291    0.677690
     87          1           0       12.391363    1.091227   -0.219178
     88          1           0       12.124821    2.752635   -0.218436
     89          1           0       11.196266    1.786755   -1.348015
     90          1           0        9.967852   -0.222673    3.400612
     91          1           0       11.477331    0.516918    3.071463
     92          1           0       10.947038   -2.082579    3.669572
     93          1           0       12.451418   -1.394487    3.765510
     94          1           0       11.907654   -2.003678    2.158363
     95          1           0        8.373416   -4.326650    2.619285
     96          1           0        7.845091   -5.300795    1.232892
     97          1           0        6.786681   -5.335187    2.626456
     98          1           0        2.212960   -3.113683    1.223931
     99          1           0        1.231566   -5.906039   -2.009097
    100          1           0        0.571847   -4.243498   -1.975649
    101          1           0       -0.258367   -5.616314   -1.073774
    102          1           0       -3.477829   -0.467420   -1.603085
    103          1           0       -4.152801   -0.287417    0.051744
    104          1           0       -4.603976   -2.924131   -0.773883
    105          1           0       -6.723326   -0.147315   -2.982956
    106          1           0       -5.392207    0.554924   -2.027981
    107          1           0       -6.964538    0.287194   -1.273679
    108          1           0       -6.801835   -3.540632   -1.403109
    109          1           0       -7.115997   -2.575736   -2.952089
    110          1           0       -8.492950   -1.368345   -0.649546
    111          1           0       -8.863319   -3.050763   -0.679692
    112          1           0       -9.740947   -3.169184   -2.832845
    113          1           0       -8.977132   -1.523245   -3.172261
    114          1           0      -11.087440   -1.998111   -1.220871
    115          1           0      -12.625287   -2.851222   -2.552014
    116          1           0      -11.642533   -2.656631   -3.994948
    117          1           0      -12.618781   -1.370791   -3.448778
    118          1           0      -11.385513    0.220154   -3.047400
    119          1           0       -9.771836    0.384636   -2.370236
    120          1           0      -10.957248    1.449874   -0.513104
    121          1           0      -11.095608   -0.140268   -0.088467
    122          1           0      -13.422020    0.572188   -1.859608
    123          1           0      -13.030640    1.922313   -0.956962
    124          1           0      -13.011866   -0.123895    1.062518
    125          1           0      -14.704149   -1.565835    0.581186
    126          1           0      -13.685399   -1.667080   -0.817533
    127          1           0      -15.135355   -0.771111   -1.050686
    128          1           0      -15.738520    0.908611    0.714112
    129          1           0      -14.736645    2.132135    0.169081
    130          1           0      -13.526590    1.066069    2.616681
    131          1           0      -15.102915    1.529808    3.014189
    132          1           0      -14.899018    3.840933    2.548510
    133          1           0      -13.417515    3.464331    1.600408
    134          1           0      -12.652167    2.551549    3.960117
    135          1           0      -13.659001    4.704797    5.445338
    136          1           0      -13.963853    2.945494    5.636365
    137          1           0      -15.061882    4.010073    4.762456
    138          1           0      -11.295680    3.957837    3.282497
    139          1           0      -11.747942    5.023174    4.566422
    140          1           0      -12.265831    5.364531    2.851201
 ---------------------------------------------------------------------

 SCF Done:  E(RCAM-B3LYP) =  -3007.14452205     A.U. after   18 cycles

 Excitation energies and oscillator strengths:

 Excited State   1:      Singlet-A      1.6730 eV  741.10 nm  f=0.4013  <S**2>=0.000
     245 -> 248        0.15777
     246 -> 247        0.68847
 This state for optimization and/or second-order correction.
 Total Energy, E(TD-HF/TD-DFT) =  -3007.08304125
 Copying the excited state density for this state as the 1-particle RhoCI density.

 Excited State   2:      Singlet-A      2.1915 eV  565.75 nm  f=0.1344  <S**2>=0.000
     245 -> 247        0.64536
     246 -> 248       -0.25813

 Excited State   3:      Singlet-A      3.2307 eV  383.77 nm  f=0.0032  <S**2>=0.000
     241 -> 247       -0.27396
     242 -> 247        0.48276
     244 -> 247       -0.40768

 Excited State   4:      Singlet-A      3.3095 eV  374.63 nm  f=0.0026  <S**2>=0.000
     241 -> 249       -0.12054
     241 -> 251       -0.10704
     242 -> 247        0.41630
     242 -> 249       -0.10197
     244 -> 247        0.47596
     244 -> 249       -0.10429

 Excited State   5:      Singlet-A      3.3882 eV  365.93 nm  f=0.0369  <S**2>=0.000
     241 -> 247        0.50813
     242 -> 247        0.15889
     242 -> 249       -0.12563
     244 -> 247       -0.22597
     246 -> 248       -0.31805

 The electronic state is 1-A.
 Alpha  occ. eigenvalues --  -46.87930 -19.26164 -19.22207 -19.19618 -19.18978
 Alpha  occ. eigenvalues --  -19.18851 -19.17959 -14.42560 -14.42013 -14.40270
 Alpha  occ. eigenvalues --  -14.38585 -10.39523 -10.38139 -10.35326 -10.34214
 Alpha  occ. eigenvalues --  -10.32422 -10.31833 -10.31312 -10.31052 -10.31038
 Alpha  occ. eigenvalues --  -10.30789 -10.30620 -10.30469 -10.30275 -10.29283
 Alpha  occ. eigenvalues --  -10.29232 -10.28556 -10.28422 -10.28242 -10.27955
 Alpha  occ. eigenvalues --  -10.27838 -10.27804 -10.27747 -10.27716 -10.27680
 Alpha  occ. eigenvalues --  -10.27533 -10.27316 -10.27195 -10.26578 -10.26561
 Alpha  occ. eigenvalues --  -10.26488 -10.26478 -10.26478 -10.26444 -10.26170
 Alpha  occ. eigenvalues --  -10.25974 -10.25973 -10.25824 -10.25783 -10.25717
 Alpha  occ. eigenvalues --  -10.25669 -10.25444 -10.25309 -10.25296 -10.25117
 Alpha  occ. eigenvalues --  -10.24927 -10.24812 -10.24759 -10.24747 -10.24734
 Alpha  occ. eigenvalues --  -10.24731 -10.24589 -10.24488 -10.24363 -10.24279
 Alpha  occ. eigenvalues --  -10.23584  -3.16690  -1.91559  -1.91156  -1.91008
 Alpha  occ. eigenvalues --   -1.18280  -1.16809  -1.09555  -1.08127  -1.07747
 Alpha  occ. eigenvalues --   -1.07003  -1.04635  -1.03433  -1.02094  -1.00633
 Alpha  occ. eigenvalues --   -0.92609  -0.91180  -0.90072  -0.89433  -0.89187
 Alpha  occ. eigenvalues --   -0.88903  -0.88569  -0.87887  -0.87493  -0.87216
 Alpha  occ. eigenvalues --   -0.86674  -0.86077  -0.84761  -0.83565  -0.83429
 Alpha  occ. eigenvalues --   -0.82802  -0.82199  -0.81669  -0.81021  -0.80358
 Alpha  occ. eigenvalues --   -0.80232  -0.78813  -0.78344  -0.77263  -0.76452
 Alpha  occ. eigenvalues --   -0.75643  -0.75245  -0.75186  -0.74893  -0.74631
 Alpha  occ. eigenvalues --   -0.73612  -0.73008  -0.71712  -0.70463  -0.69102
 Alpha  occ. eigenvalues --   -0.68647  -0.68290  -0.67638  -0.67186  -0.65669
 Alpha  occ. eigenvalues --   -0.65606  -0.65433  -0.65083  -0.64402  -0.64375
 Alpha  occ. eigenvalues --   -0.63896  -0.63409  -0.62624  -0.60882  -0.60197
 Alpha  occ. eigenvalues --   -0.59801  -0.59497  -0.59071  -0.58594  -0.58382
 Alpha  occ. eigenvalues --   -0.57980  -0.57711  -0.56557  -0.56274  -0.55616
 Alpha  occ. eigenvalues --   -0.55307  -0.55083  -0.54502  -0.54156  -0.53866
 Alpha  occ. eigenvalues --   -0.53608  -0.53367  -0.53139  -0.52962  -0.52681
 Alpha  occ. eigenvalues --   -0.52481  -0.52344  -0.52220  -0.52100  -0.51899
 Alpha  occ. eigenvalues --   -0.51601  -0.51327  -0.51229  -0.51014  -0.51002
 Alpha  occ. eigenvalues --   -0.50415  -0.50308  -0.50136  -0.50030  -0.49840
 Alpha  occ. eigenvalues --   -0.49776  -0.49632  -0.49356  -0.49262  -0.49131
 Alpha  occ. eigenvalues --   -0.48937  -0.48584  -0.48343  -0.48166  -0.48026
 Alpha  occ. eigenvalues --   -0.47312  -0.47106  -0.46996  -0.46858  -0.46761
 Alpha  occ. eigenvalues --   -0.46461  -0.46316  -0.46287  -0.46169  -0.46016
 Alpha  occ. eigenvalues --   -0.45897  -0.45838  -0.45403  -0.45367  -0.45007
 Alpha  occ. eigenvalues --   -0.44936  -0.44639  -0.44158  -0.44110  -0.43898
 Alpha  occ. eigenvalues --   -0.43633  -0.43533  -0.43454  -0.43310  -0.43043
 Alpha  occ. eigenvalues --   -0.42933  -0.42782  -0.42459  -0.42365  -0.42165
 Alpha  occ. eigenvalues --   -0.41806  -0.41569  -0.41430  -0.41219  -0.41172
 Alpha  occ. eigenvalues --   -0.40932  -0.40756  -0.40659  -0.40307  -0.40158
 Alpha  occ. eigenvalues --   -0.40051  -0.39947  -0.39628  -0.39212  -0.38938
 Alpha  occ. eigenvalues --   -0.38660  -0.38569  -0.37934  -0.37693  -0.37535
 Alpha  occ. eigenvalues --   -0.37093  -0.37027  -0.36694  -0.36200  -0.36151
 Alpha  occ. eigenvalues --   -0.35720  -0.34978  -0.34528  -0.34132  -0.34099
 Alpha  occ. eigenvalues --   -0.33885  -0.33810  -0.33187  -0.31542  -0.31450
 Alpha  occ. eigenvalues --   -0.30032  -0.29782  -0.29397  -0.29275  -0.24385
 Alpha  occ. eigenvalues --   -0.21472
 Alpha virt. eigenvalues --   -0.09285  -0.02178  -0.00252   0.01974   0.02455
 Alpha virt. eigenvalues --    0.04535   0.05400   0.05611   0.06400   0.07365
 Alpha virt. eigenvalues --    0.08238   0.08325   0.08453   0.08655   0.09103

 Mulliken charges:
               1
     1  Mg   0.826981
     2  C    0.027699
     3  C   -0.093625
     4  C   -0.058225
     5  C   -0.101509
     6  N   -0.299762
     7  C   -0.075135
     8  C    0.035269
     9  C   -0.091118
    10  C    0.071286
    11  C    0.064736
    12  C    0.039686
    13  C    0.033415
    14  C    0.142103
    15  O   -0.263998
    16  O   -0.283430
    17  N   -0.404010
    18  C    0.188398
    19  C   -0.165700
    20  C    0.011986
    21  C    0.173537
    22  C    0.129532
    23  C   -0.020818
    24  O   -0.222319
    25  C    0.027922
    26  N   -0.333189
    27  C    0.018487
    28  C    0.006408
    29  C   -0.041549
    30  C    0.114620
    31  C    0.046997
    32  C    0.002703
    33  C   -0.000962
    34  N   -0.324884
    35  C    0.108823
    36  C   -0.169509
    37  C    0.001355
    38  C    0.101749
    39  C    0.151111
    40  C    0.020889
    41  O   -0.181632
    42  C   -0.051415
    43  C    0.190537
    44  O   -0.156322
    45  O   -0.360045
    46  C    0.189136
    47  C    0.296272
    48  C   -0.147632
    49  C   -0.197767
    50  C    0.069221
    51  C    0.104737
    52  C    0.006071
    53  C    0.027046
    54  C   -0.141278
    55  C    0.043935
    56  C    0.073509
    57  C    0.012237
    58  C    0.057400
    59  C   -0.168254
    60  C    0.057140
    61  C    0.112644
    62  C    0.005667
    63  C    0.075013
    64  C   -0.180351
    65  C    0.062450
    66  C    0.042321
    67  H   -0.036316
    68  H   -0.001568
    69  H   -0.045711
    70  H    0.009278
    71  H    0.011802
    72  H    0.029159
    73  H    0.006347
    74  H    0.022893
    75  H    0.032850
    76  H    0.016919
    77  H    0.045826
    78  H    0.031480
    79  H    0.034028
    80  H    0.013110
    81  H    0.032428
    82  H    0.024628
    83  H    0.051053
    84  H    0.032253
    85  H    0.025258
    86  H    0.015838
    87  H    0.012311
    88  H    0.024192
    89  H    0.035790
    90  H    0.009072
    91  H    0.005508
    92  H    0.005729
    93  H    0.015024
    94  H    0.015197
    95  H    0.020712
    96  H    0.030123
    97  H    0.043018
    98  H    0.028445
    99  H    0.031364
   100  H    0.022616
   101  H    0.041121
   102  H    0.028632
   103  H    0.056935
   104  H   -0.005585
   105  H    0.022268
   106  H    0.011261
   107  H    0.031346
   108  H    0.005220
   109  H    0.022228
   110  H    0.006088
   111  H   -0.003881
   112  H   -0.001210
   113  H   -0.011607
   114  H   -0.009642
   115  H    0.020420
   116  H    0.001060
   117  H   -0.004083
   118  H   -0.010769
   119  H   -0.005913
   120  H   -0.014780
   121  H   -0.008669
   122  H   -0.012761
   123  H   -0.015608
   124  H    0.005857
   125  H    0.000924
   126  H   -0.011926
   127  H    0.012395
   128  H   -0.014278
   129  H   -0.011081
   130  H   -0.007570
   131  H   -0.013117
   132  H    0.002654
   133  H   -0.016230
   134  H   -0.007202
   135  H   -0.001220
   136  H    0.006673
   137  H   -0.003765
   138  H   -0.002549
   139  H    0.011907
   140  H    0.019214
 Sum of Mulliken charges =  -0.00000

 Dipole moment (field-independent basis, Debye):
    X=             -1.9153    Y=              4.5824    Z=             -1.1989  Tot=              5.1092
 Quadrupole moment (field-independent basis, Debye-Ang):
   XX=           -368.5115   YY=           -419.5512   ZZ=           -407.3646
   XY=              9.8369   XZ=             29.8413   YZ=             -1.0855

 Normal termination of Gaussian 16 at Thu May  5 00:50:40 2022.
