 Gaussian 16, Revision A.03,
 Gaussian 16:  ES64L-G16RevA.03 25-Dec-2016

 ---------------------------------
 #p PBE1PBE/Def2SVP td=(nstates=5)
 ---------------------------------

 ----------------------------------------------------
 step_501_chromophore_7 TDDFT with PBE1PBE functional
 ----------------------------------------------------
 Symbolic Z-matrix:
 Charge =  0 Multiplicity = 1

                         Standard orientation:
 ---------------------------------------------------------------------
 Center     Atomic      Atomic             Coordinates (Angstroms)
 Number     Number       Type             X           Y           Z
 ---------------------------------------------------------------------
      1         12           0        6.194244    0.457426    0.107384
      2          6           0        3.786553   -1.988928    0.343990
      3          6           0        3.791416    2.537460   -1.361786
      4          6           0        8.517724    2.880049   -0.248597
      5          6           0        8.553720   -1.729592    1.187698
      6          7           0        4.074495    0.164519   -0.683072
      7          6           0        3.245944   -0.870291   -0.231480
      8          6           0        1.753307   -0.555905   -0.453755
      9          6           0        1.851664    0.871972   -1.106553
     10          6           0        3.306345    1.282460   -1.026633
     11          6           0        1.316030    0.915640   -2.532083
     12          6           0        0.765675   -0.583471    0.766033
     13          6           0       -0.364270   -1.749997    0.777269
     14          6           0       -1.775613   -1.155097    0.803801
     15          8           0       -2.161160   -0.237815    1.549429
     16          8           0       -2.470693   -1.618856   -0.209564
     17          7           0        6.203956    2.356653   -0.765416
     18          6           0        5.078291    3.078084   -1.194786
     19          6           0        5.405014    4.488827   -1.427246
     20          6           0        6.874482    4.643618   -1.179964
     21          6           0        7.280929    3.284139   -0.642322
     22          6           0        4.385462    5.510362   -1.880614
     23          6           0        7.763234    5.786506   -1.331688
     24          8           0        8.982372    5.645292   -1.155517
     25          6           0        7.281512    7.158655   -1.769256
     26          7           0        8.185181    0.494008    0.345957
     27          6           0        8.972058    1.658352    0.273018
     28          6           0       10.462142    1.491285    0.777783
     29          6           0       10.410669   -0.064751    1.207469
     30          6           0        8.944265   -0.450059    0.908059
     31          6           0       11.582817    1.814221   -0.329034
     32          6           0       10.809866   -0.265076    2.709925
     33          6           0       11.619084   -1.472673    3.066069
     34          7           0        6.179900   -1.537405    0.564322
     35          6           0        7.240053   -2.303980    1.056630
     36          6           0        6.787649   -3.584693    1.481034
     37          6           0        5.360020   -3.467824    1.298799
     38          6           0        5.100360   -2.240567    0.675758
     39          6           0        7.504880   -4.716657    2.087873
     40          6           0        4.138836   -4.208412    1.358233
     41          8           0        3.813303   -5.326752    1.771686
     42          6           0        3.077225   -3.300089    0.586928
     43          6           0        2.624215   -4.023662   -0.630505
     44          8           0        2.977774   -3.884537   -1.734926
     45          8           0        1.565615   -4.873520   -0.318501
     46          6           0        0.676681   -5.175828   -1.421019
     47          6           0       -3.687866   -0.969878   -0.660141
     48          6           0       -4.706172   -1.893331   -1.113156
     49          6           0       -5.932422   -1.557972   -1.606709
     50          6           0       -6.255447   -0.109827   -1.999449
     51          6           0       -7.039296   -2.582707   -1.865128
     52          6           0       -8.490832   -2.238938   -1.305965
     53          6           0       -9.443080   -2.193607   -2.449187
     54          6           0      -10.837830   -1.574101   -2.193494
     55          6           0      -11.966229   -2.161376   -3.078869
     56          6           0      -10.760411   -0.037530   -2.192518
     57          6           0      -11.429331    0.536319   -0.876237
     58          6           0      -12.921275    0.838115   -0.928154
     59          6           0      -13.723772    0.242242    0.322326
     60          6           0      -14.382973   -1.008683   -0.299743
     61          6           0      -14.723252    1.281879    0.850595
     62          6           0      -14.319908    1.736898    2.285014
     63          6           0      -14.019031    3.202570    2.471672
     64          6           0      -13.178722    3.482723    3.754308
     65          6           0      -14.010691    3.796413    4.956280
     66          6           0      -12.099412    4.610763    3.620705
     67          1           0        3.015871    3.208644   -1.736696
     68          1           0        9.343160    3.594878   -0.247464
     69          1           0        9.277263   -2.386168    1.675317
     70          1           0        1.363727   -1.240648   -1.206282
     71          1           0        1.213047    1.593829   -0.596687
     72          1           0        2.142812    1.127407   -3.209559
     73          1           0        0.629984    1.761251   -2.501647
     74          1           0        0.736553    0.048733   -2.848833
     75          1           0        0.261600    0.382395    0.807704
     76          1           0        1.299909   -0.735407    1.704014
     77          1           0       -0.188064   -2.226131    1.741977
     78          1           0       -0.239809   -2.408562   -0.082036
     79          1           0        4.176946    5.296198   -2.929560
     80          1           0        4.835091    6.497589   -1.785984
     81          1           0        3.418531    5.407820   -1.387565
     82          1           0        8.175294    7.687148   -2.101476
     83          1           0        6.754549    7.709969   -0.989797
     84          1           0        6.693788    7.213837   -2.685359
     85          1           0       10.605180    2.056733    1.698031
     86          1           0       11.110627   -0.711291    0.677690
     87          1           0       12.391363    1.091227   -0.219178
     88          1           0       12.124821    2.752635   -0.218436
     89          1           0       11.196266    1.786755   -1.348015
     90          1           0        9.967852   -0.222673    3.400612
     91          1           0       11.477331    0.516918    3.071463
     92          1           0       10.947038   -2.082579    3.669572
     93          1           0       12.451418   -1.394487    3.765510
     94          1           0       11.907654   -2.003678    2.158363
     95          1           0        8.373416   -4.326650    2.619285
     96          1           0        7.845091   -5.300795    1.232892
     97          1           0        6.786681   -5.335187    2.626456
     98          1           0        2.212960   -3.113683    1.223931
     99          1           0        1.231566   -5.906039   -2.009097
    100          1           0        0.571847   -4.243498   -1.975649
    101          1           0       -0.258367   -5.616314   -1.073774
    102          1           0       -3.477829   -0.467420   -1.603085
    103          1           0       -4.152801   -0.287417    0.051744
    104          1           0       -4.603976   -2.924131   -0.773883
    105          1           0       -6.723326   -0.147315   -2.982956
    106          1           0       -5.392207    0.554924   -2.027981
    107          1           0       -6.964538    0.287194   -1.273679
    108          1           0       -6.801835   -3.540632   -1.403109
    109          1           0       -7.115997   -2.575736   -2.952089
    110          1           0       -8.492950   -1.368345   -0.649546
    111          1           0       -8.863319   -3.050763   -0.679692
    112          1           0       -9.740947   -3.169184   -2.832845
    113          1           0       -8.977132   -1.523245   -3.172261
    114          1           0      -11.087440   -1.998111   -1.220871
    115          1           0      -12.625287   -2.851222   -2.552014
    116          1           0      -11.642533   -2.656631   -3.994948
    117          1           0      -12.618781   -1.370791   -3.448778
    118          1           0      -11.385513    0.220154   -3.047400
    119          1           0       -9.771836    0.384636   -2.370236
    120          1           0      -10.957248    1.449874   -0.513104
    121          1           0      -11.095608   -0.140268   -0.088467
    122          1           0      -13.422020    0.572188   -1.859608
    123          1           0      -13.030640    1.922313   -0.956962
    124          1           0      -13.011866   -0.123895    1.062518
    125          1           0      -14.704149   -1.565835    0.581186
    126          1           0      -13.685399   -1.667080   -0.817533
    127          1           0      -15.135355   -0.771111   -1.050686
    128          1           0      -15.738520    0.908611    0.714112
    129          1           0      -14.736645    2.132135    0.169081
    130          1           0      -13.526590    1.066069    2.616681
    131          1           0      -15.102915    1.529808    3.014189
    132          1           0      -14.899018    3.840933    2.548510
    133          1           0      -13.417515    3.464331    1.600408
    134          1           0      -12.652167    2.551549    3.960117
    135          1           0      -13.659001    4.704797    5.445338
    136          1           0      -13.963853    2.945494    5.636365
    137          1           0      -15.061882    4.010073    4.762456
    138          1           0      -11.295680    3.957837    3.282497
    139          1           0      -11.747942    5.023174    4.566422
    140          1           0      -12.265831    5.364531    2.851201
 ---------------------------------------------------------------------

 SCF Done:  E(RPBE1PBE) =  -3005.33362163     A.U. after   15 cycles

 Excitation energies and oscillator strengths:

 Excited State   1:      Singlet-A      1.8157 eV  682.85 nm  f=0.3862  <S**2>=0.000
     245 -> 248        0.15019
     246 -> 247        0.69577
     246 <- 247       -0.11509
 This state for optimization and/or second-order correction.
 Total Energy, E(TD-HF/TD-DFT) =  -3005.26689627
 Copying the excited state density for this state as the 1-particle RhoCI density.

 Excited State   2:      Singlet-A      2.1898 eV  566.18 nm  f=0.1241  <S**2>=0.000
     245 -> 247        0.65563
     246 -> 248       -0.22866

 Excited State   3:      Singlet-A      2.7469 eV  451.37 nm  f=0.0007  <S**2>=0.000
     241 -> 247       -0.11084
     242 -> 247        0.13102
     243 -> 247        0.66022
     243 -> 249       -0.11160

 Excited State   4:      Singlet-A      2.9168 eV  425.06 nm  f=0.0017  <S**2>=0.000
     242 -> 247        0.68515
     243 -> 247       -0.12995

 Excited State   5:      Singlet-A      2.9523 eV  419.95 nm  f=0.0002  <S**2>=0.000
     240 -> 247        0.66089
     240 -> 248       -0.17107
     240 -> 249        0.14269

 The electronic state is 1-A.
 Alpha  occ. eigenvalues --  -46.91365 -19.26868 -19.22928 -19.19834 -19.19332
 Alpha  occ. eigenvalues --  -19.18881 -19.18458 -14.42047 -14.41580 -14.39875
 Alpha  occ. eigenvalues --  -14.38374 -10.36581 -10.35187 -10.32223 -10.31565
 Alpha  occ. eigenvalues --  -10.29833 -10.29432 -10.28866 -10.28671 -10.28548
 Alpha  occ. eigenvalues --  -10.28464 -10.28175 -10.27888 -10.27839 -10.27336
 Alpha  occ. eigenvalues --  -10.27051 -10.26288 -10.26155 -10.26058 -10.25694
 Alpha  occ. eigenvalues --  -10.25547 -10.25528 -10.25514 -10.25448 -10.25225
 Alpha  occ. eigenvalues --  -10.25057 -10.24941 -10.24869 -10.24434 -10.24199
 Alpha  occ. eigenvalues --  -10.24071 -10.23988 -10.23937 -10.23863 -10.23583
 Alpha  occ. eigenvalues --  -10.23558 -10.23413 -10.23404 -10.23356 -10.23342
 Alpha  occ. eigenvalues --  -10.23256 -10.23175 -10.22960 -10.22800 -10.22708
 Alpha  occ. eigenvalues --  -10.22529 -10.22492 -10.22377 -10.22299 -10.22289
 Alpha  occ. eigenvalues --  -10.22256 -10.22184 -10.22181 -10.21769 -10.21690
 Alpha  occ. eigenvalues --  -10.20948  -3.13698  -1.86509  -1.86084  -1.85940
 Alpha  occ. eigenvalues --   -1.13169  -1.11622  -1.04072  -1.03077  -1.02669
 Alpha  occ. eigenvalues --   -1.01885  -0.99503  -0.98079  -0.96650  -0.95104
 Alpha  occ. eigenvalues --   -0.87108  -0.85336  -0.84192  -0.83567  -0.83463
 Alpha  occ. eigenvalues --   -0.83156  -0.82833  -0.82023  -0.81847  -0.81623
 Alpha  occ. eigenvalues --   -0.80796  -0.80306  -0.78966  -0.77832  -0.77752
 Alpha  occ. eigenvalues --   -0.77040  -0.76347  -0.75827  -0.75338  -0.74669
 Alpha  occ. eigenvalues --   -0.74441  -0.73068  -0.72575  -0.71599  -0.70607
 Alpha  occ. eigenvalues --   -0.70016  -0.69615  -0.69280  -0.69045  -0.68816
 Alpha  occ. eigenvalues --   -0.67997  -0.67479  -0.66133  -0.64772  -0.63438
 Alpha  occ. eigenvalues --   -0.63096  -0.62603  -0.62098  -0.61452  -0.60122
 Alpha  occ. eigenvalues --   -0.60011  -0.59780  -0.59518  -0.58864  -0.58520
 Alpha  occ. eigenvalues --   -0.58510  -0.57576  -0.56820  -0.55503  -0.54633
 Alpha  occ. eigenvalues --   -0.54238  -0.54052  -0.53678  -0.53280  -0.52918
 Alpha  occ. eigenvalues --   -0.52444  -0.52237  -0.51066  -0.50778  -0.50097
 Alpha  occ. eigenvalues --   -0.49813  -0.49699  -0.48986  -0.48505  -0.48471
 Alpha  occ. eigenvalues --   -0.48195  -0.47864  -0.47653  -0.47552  -0.47301
 Alpha  occ. eigenvalues --   -0.46994  -0.46861  -0.46678  -0.46451  -0.46394
 Alpha  occ. eigenvalues --   -0.46207  -0.45946  -0.45736  -0.45680  -0.45545
 Alpha  occ. eigenvalues --   -0.45009  -0.44886  -0.44771  -0.44512  -0.44456
 Alpha  occ. eigenvalues --   -0.44349  -0.44151  -0.43952  -0.43883  -0.43659
 Alpha  occ. eigenvalues --   -0.43453  -0.43269  -0.43062  -0.42833  -0.42676
 Alpha  occ. eigenvalues --   -0.41977  -0.41764  -0.41710  -0.41490  -0.41451
 Alpha  occ. eigenvalues --   -0.41101  -0.41040  -0.40990  -0.40947  -0.40842
 Alpha  occ. eigenvalues --   -0.40584  -0.40440  -0.40183  -0.40136  -0.39824
 Alpha  occ. eigenvalues --   -0.39642  -0.39459  -0.39052  -0.38762  -0.38607
 Alpha  occ. eigenvalues --   -0.38415  -0.38305  -0.38249  -0.38098  -0.37824
 Alpha  occ. eigenvalues --   -0.37760  -0.37531  -0.37184  -0.37079  -0.36944
 Alpha  occ. eigenvalues --   -0.36706  -0.36487  -0.36279  -0.36085  -0.36034
 Alpha  occ. eigenvalues --   -0.35787  -0.35561  -0.35548  -0.35119  -0.35061
 Alpha  occ. eigenvalues --   -0.34954  -0.34759  -0.34411  -0.34054  -0.33851
 Alpha  occ. eigenvalues --   -0.33627  -0.33484  -0.32725  -0.32722  -0.32354
 Alpha  occ. eigenvalues --   -0.32175  -0.31821  -0.31708  -0.31229  -0.31072
 Alpha  occ. eigenvalues --   -0.30582  -0.29901  -0.29738  -0.29206  -0.28996
 Alpha  occ. eigenvalues --   -0.28771  -0.28693  -0.28636  -0.27116  -0.26054
 Alpha  occ. eigenvalues --   -0.25530  -0.25257  -0.24825  -0.24724  -0.21300
 Alpha  occ. eigenvalues --   -0.19089
 Alpha virt. eigenvalues --   -0.11711  -0.05796  -0.04283  -0.02177  -0.00515
 Alpha virt. eigenvalues --    0.00005   0.00950   0.01119   0.01692   0.03631
 Alpha virt. eigenvalues --    0.04447   0.04659   0.04977   0.05109   0.05752

 Mulliken charges:
               1
     1  Mg   0.979983
     2  C    0.006253
     3  C   -0.079277
     4  C   -0.055008
     5  C   -0.085896
     6  N   -0.392245
     7  C    0.005295
     8  C   -0.032418
     9  C   -0.165677
    10  C    0.099250
    11  C    0.009882
    12  C   -0.005698
    13  C   -0.055453
    14  C    0.217660
    15  O   -0.297602
    16  O   -0.319142
    17  N   -0.508787
    18  C    0.200565
    19  C   -0.189323
    20  C   -0.030781
    21  C    0.196100
    22  C    0.065006
    23  C    0.021859
    24  O   -0.259765
    25  C   -0.040831
    26  N   -0.443717
    27  C    0.047132
    28  C   -0.067765
    29  C   -0.116522
    30  C    0.147739
    31  C   -0.011709
    32  C   -0.052520
    33  C   -0.073291
    34  N   -0.460186
    35  C    0.133076
    36  C   -0.183500
    37  C   -0.039139
    38  C    0.159162
    39  C    0.091344
    40  C    0.109851
    41  O   -0.225134
    42  C   -0.164307
    43  C    0.284285
    44  O   -0.193015
    45  O   -0.392035
    46  C    0.132357
    47  C    0.254692
    48  C   -0.156293
    49  C   -0.239787
    50  C    0.007215
    51  C    0.039728
    52  C   -0.052939
    53  C   -0.035820
    54  C   -0.220438
    55  C   -0.015132
    56  C    0.014888
    57  C   -0.050184
    58  C    0.007466
    59  C   -0.257937
    60  C   -0.011032
    61  C    0.064375
    62  C   -0.055763
    63  C    0.013772
    64  C   -0.272282
    65  C    0.005725
    66  C   -0.021027
    67  H   -0.004357
    68  H    0.030660
    69  H   -0.008546
    70  H    0.049871
    71  H    0.048558
    72  H    0.057149
    73  H    0.033278
    74  H    0.048821
    75  H    0.064046
    76  H    0.048834
    77  H    0.077579
    78  H    0.067688
    79  H    0.061709
    80  H    0.042966
    81  H    0.058065
    82  H    0.051360
    83  H    0.076132
    84  H    0.057351
    85  H    0.060978
    86  H    0.051902
    87  H    0.039661
    88  H    0.051121
    89  H    0.062784
    90  H    0.041714
    91  H    0.039349
    92  H    0.032957
    93  H    0.043142
    94  H    0.041576
    95  H    0.048507
    96  H    0.060698
    97  H    0.070930
    98  H    0.070962
    99  H    0.054725
   100  H    0.044084
   101  H    0.063187
   102  H    0.055901
   103  H    0.082151
   104  H    0.024912
   105  H    0.049421
   106  H    0.037796
   107  H    0.058857
   108  H    0.036615
   109  H    0.055474
   110  H    0.038330
   111  H    0.029676
   112  H    0.032022
   113  H    0.023798
   114  H    0.028437
   115  H    0.046000
   116  H    0.028793
   117  H    0.022937
   118  H    0.023325
   119  H    0.026115
   120  H    0.018188
   121  H    0.022880
   122  H    0.018567
   123  H    0.016883
   124  H    0.041290
   125  H    0.030746
   126  H    0.024661
   127  H    0.039579
   128  H    0.017791
   129  H    0.020532
   130  H    0.023079
   131  H    0.021396
   132  H    0.034868
   133  H    0.019007
   134  H    0.030974
   135  H    0.025938
   136  H    0.033844
   137  H    0.022926
   138  H    0.026199
   139  H    0.039246
   140  H    0.046125
 Sum of Mulliken charges =  -0.00000

 Dipole moment (field-independent basis, Debye):
    X=             -1.9171    Y=              4.0058    Z=             -1.0004  Tot=              4.5522
 Quadrupole moment (field-independent basis, Debye-Ang):
   XX=           -362.5831   YY=           -417.5875   ZZ=           -404.7921
   XY=              5.9092   XZ=             32.1657   YZ=             -1.3400

 Normal termination of Gaussian 16 at Thu May  5 01:10:20 2022.
