 Gaussian 16, Revision A.03,
 Gaussian 16:  ES64L-G16RevA.03 25-Dec-2016

 --------------------------------
 #p wB97XD/Def2SVP td=(nstates=5)
 --------------------------------

 ---------------------------------------------------
 step_501_chromophore_7 TDDFT with wB97XD functional
 ---------------------------------------------------
 Symbolic Z-matrix:
 Charge =  0 Multiplicity = 1

                         Standard orientation:
 ---------------------------------------------------------------------
 Center     Atomic      Atomic             Coordinates (Angstroms)
 Number     Number       Type             X           Y           Z
 ---------------------------------------------------------------------
      1         12           0        6.194244    0.457426    0.107384
      2          6           0        3.786553   -1.988928    0.343990
      3          6           0        3.791416    2.537460   -1.361786
      4          6           0        8.517724    2.880049   -0.248597
      5          6           0        8.553720   -1.729592    1.187698
      6          7           0        4.074495    0.164519   -0.683072
      7          6           0        3.245944   -0.870291   -0.231480
      8          6           0        1.753307   -0.555905   -0.453755
      9          6           0        1.851664    0.871972   -1.106553
     10          6           0        3.306345    1.282460   -1.026633
     11          6           0        1.316030    0.915640   -2.532083
     12          6           0        0.765675   -0.583471    0.766033
     13          6           0       -0.364270   -1.749997    0.777269
     14          6           0       -1.775613   -1.155097    0.803801
     15          8           0       -2.161160   -0.237815    1.549429
     16          8           0       -2.470693   -1.618856   -0.209564
     17          7           0        6.203956    2.356653   -0.765416
     18          6           0        5.078291    3.078084   -1.194786
     19          6           0        5.405014    4.488827   -1.427246
     20          6           0        6.874482    4.643618   -1.179964
     21          6           0        7.280929    3.284139   -0.642322
     22          6           0        4.385462    5.510362   -1.880614
     23          6           0        7.763234    5.786506   -1.331688
     24          8           0        8.982372    5.645292   -1.155517
     25          6           0        7.281512    7.158655   -1.769256
     26          7           0        8.185181    0.494008    0.345957
     27          6           0        8.972058    1.658352    0.273018
     28          6           0       10.462142    1.491285    0.777783
     29          6           0       10.410669   -0.064751    1.207469
     30          6           0        8.944265   -0.450059    0.908059
     31          6           0       11.582817    1.814221   -0.329034
     32          6           0       10.809866   -0.265076    2.709925
     33          6           0       11.619084   -1.472673    3.066069
     34          7           0        6.179900   -1.537405    0.564322
     35          6           0        7.240053   -2.303980    1.056630
     36          6           0        6.787649   -3.584693    1.481034
     37          6           0        5.360020   -3.467824    1.298799
     38          6           0        5.100360   -2.240567    0.675758
     39          6           0        7.504880   -4.716657    2.087873
     40          6           0        4.138836   -4.208412    1.358233
     41          8           0        3.813303   -5.326752    1.771686
     42          6           0        3.077225   -3.300089    0.586928
     43          6           0        2.624215   -4.023662   -0.630505
     44          8           0        2.977774   -3.884537   -1.734926
     45          8           0        1.565615   -4.873520   -0.318501
     46          6           0        0.676681   -5.175828   -1.421019
     47          6           0       -3.687866   -0.969878   -0.660141
     48          6           0       -4.706172   -1.893331   -1.113156
     49          6           0       -5.932422   -1.557972   -1.606709
     50          6           0       -6.255447   -0.109827   -1.999449
     51          6           0       -7.039296   -2.582707   -1.865128
     52          6           0       -8.490832   -2.238938   -1.305965
     53          6           0       -9.443080   -2.193607   -2.449187
     54          6           0      -10.837830   -1.574101   -2.193494
     55          6           0      -11.966229   -2.161376   -3.078869
     56          6           0      -10.760411   -0.037530   -2.192518
     57          6           0      -11.429331    0.536319   -0.876237
     58          6           0      -12.921275    0.838115   -0.928154
     59          6           0      -13.723772    0.242242    0.322326
     60          6           0      -14.382973   -1.008683   -0.299743
     61          6           0      -14.723252    1.281879    0.850595
     62          6           0      -14.319908    1.736898    2.285014
     63          6           0      -14.019031    3.202570    2.471672
     64          6           0      -13.178722    3.482723    3.754308
     65          6           0      -14.010691    3.796413    4.956280
     66          6           0      -12.099412    4.610763    3.620705
     67          1           0        3.015871    3.208644   -1.736696
     68          1           0        9.343160    3.594878   -0.247464
     69          1           0        9.277263   -2.386168    1.675317
     70          1           0        1.363727   -1.240648   -1.206282
     71          1           0        1.213047    1.593829   -0.596687
     72          1           0        2.142812    1.127407   -3.209559
     73          1           0        0.629984    1.761251   -2.501647
     74          1           0        0.736553    0.048733   -2.848833
     75          1           0        0.261600    0.382395    0.807704
     76          1           0        1.299909   -0.735407    1.704014
     77          1           0       -0.188064   -2.226131    1.741977
     78          1           0       -0.239809   -2.408562   -0.082036
     79          1           0        4.176946    5.296198   -2.929560
     80          1           0        4.835091    6.497589   -1.785984
     81          1           0        3.418531    5.407820   -1.387565
     82          1           0        8.175294    7.687148   -2.101476
     83          1           0        6.754549    7.709969   -0.989797
     84          1           0        6.693788    7.213837   -2.685359
     85          1           0       10.605180    2.056733    1.698031
     86          1           0       11.110627   -0.711291    0.677690
     87          1           0       12.391363    1.091227   -0.219178
     88          1           0       12.124821    2.752635   -0.218436
     89          1           0       11.196266    1.786755   -1.348015
     90          1           0        9.967852   -0.222673    3.400612
     91          1           0       11.477331    0.516918    3.071463
     92          1           0       10.947038   -2.082579    3.669572
     93          1           0       12.451418   -1.394487    3.765510
     94          1           0       11.907654   -2.003678    2.158363
     95          1           0        8.373416   -4.326650    2.619285
     96          1           0        7.845091   -5.300795    1.232892
     97          1           0        6.786681   -5.335187    2.626456
     98          1           0        2.212960   -3.113683    1.223931
     99          1           0        1.231566   -5.906039   -2.009097
    100          1           0        0.571847   -4.243498   -1.975649
    101          1           0       -0.258367   -5.616314   -1.073774
    102          1           0       -3.477829   -0.467420   -1.603085
    103          1           0       -4.152801   -0.287417    0.051744
    104          1           0       -4.603976   -2.924131   -0.773883
    105          1           0       -6.723326   -0.147315   -2.982956
    106          1           0       -5.392207    0.554924   -2.027981
    107          1           0       -6.964538    0.287194   -1.273679
    108          1           0       -6.801835   -3.540632   -1.403109
    109          1           0       -7.115997   -2.575736   -2.952089
    110          1           0       -8.492950   -1.368345   -0.649546
    111          1           0       -8.863319   -3.050763   -0.679692
    112          1           0       -9.740947   -3.169184   -2.832845
    113          1           0       -8.977132   -1.523245   -3.172261
    114          1           0      -11.087440   -1.998111   -1.220871
    115          1           0      -12.625287   -2.851222   -2.552014
    116          1           0      -11.642533   -2.656631   -3.994948
    117          1           0      -12.618781   -1.370791   -3.448778
    118          1           0      -11.385513    0.220154   -3.047400
    119          1           0       -9.771836    0.384636   -2.370236
    120          1           0      -10.957248    1.449874   -0.513104
    121          1           0      -11.095608   -0.140268   -0.088467
    122          1           0      -13.422020    0.572188   -1.859608
    123          1           0      -13.030640    1.922313   -0.956962
    124          1           0      -13.011866   -0.123895    1.062518
    125          1           0      -14.704149   -1.565835    0.581186
    126          1           0      -13.685399   -1.667080   -0.817533
    127          1           0      -15.135355   -0.771111   -1.050686
    128          1           0      -15.738520    0.908611    0.714112
    129          1           0      -14.736645    2.132135    0.169081
    130          1           0      -13.526590    1.066069    2.616681
    131          1           0      -15.102915    1.529808    3.014189
    132          1           0      -14.899018    3.840933    2.548510
    133          1           0      -13.417515    3.464331    1.600408
    134          1           0      -12.652167    2.551549    3.960117
    135          1           0      -13.659001    4.704797    5.445338
    136          1           0      -13.963853    2.945494    5.636365
    137          1           0      -15.061882    4.010073    4.762456
    138          1           0      -11.295680    3.957837    3.282497
    139          1           0      -11.747942    5.023174    4.566422
    140          1           0      -12.265831    5.364531    2.851201
 ---------------------------------------------------------------------

 SCF Done:  E(RwB97XD) =  -3007.84108577     A.U. after   20 cycles

 Excitation energies and oscillator strengths:

 Excited State   1:      Singlet-A      1.6235 eV  763.69 nm  f=0.4007  <S**2>=0.000
     245 -> 248        0.16280
     246 -> 247        0.68611
     245 <- 248        0.10590
 This state for optimization and/or second-order correction.
 Total Energy, E(TD-HF/TD-DFT) =  -3007.78142356
 Copying the excited state density for this state as the 1-particle RhoCI density.

 Excited State   2:      Singlet-A      2.1354 eV  580.62 nm  f=0.1308  <S**2>=0.000
     245 -> 247        0.64273
     246 -> 248       -0.26040

 Excited State   3:      Singlet-A      3.2499 eV  381.51 nm  f=0.0043  <S**2>=0.000
     241 -> 247        0.47721
     242 -> 247        0.38365
     244 -> 247       -0.29578
     246 -> 248        0.12406

 Excited State   4:      Singlet-A      3.3672 eV  368.21 nm  f=0.0042  <S**2>=0.000
     241 -> 247        0.14920
     242 -> 247        0.21147
     242 -> 249       -0.10934
     242 -> 250        0.13904
     244 -> 247        0.56013
     244 -> 249       -0.14491
     246 -> 248        0.15890

 Excited State   5:      Singlet-A      3.4348 eV  360.96 nm  f=0.0424  <S**2>=0.000
     240 -> 247        0.43853
     240 -> 248       -0.22131
     240 -> 249        0.25777
     240 -> 250        0.11443
     241 -> 247       -0.15388
     242 -> 247        0.21738
     246 -> 248       -0.23734

 The electronic state is 1-A.
 Alpha  occ. eigenvalues --  -46.94314 -19.31416 -19.27412 -19.24473 -19.23976
 Alpha  occ. eigenvalues --  -19.23942 -19.22970 -14.47189 -14.46632 -14.44951
 Alpha  occ. eigenvalues --  -14.43143 -10.43348 -10.41923 -10.39341 -10.38196
 Alpha  occ. eigenvalues --  -10.36316 -10.35933 -10.35385 -10.35177 -10.35168
 Alpha  occ. eigenvalues --  -10.34781 -10.34742 -10.34334 -10.34218 -10.33318
 Alpha  occ. eigenvalues --  -10.33242 -10.32750 -10.32492 -10.32300 -10.31895
 Alpha  occ. eigenvalues --  -10.31834 -10.31806 -10.31801 -10.31726 -10.31618
 Alpha  occ. eigenvalues --  -10.31566 -10.31380 -10.31209 -10.30616 -10.30499
 Alpha  occ. eigenvalues --  -10.30443 -10.30440 -10.30361 -10.30353 -10.30089
 Alpha  occ. eigenvalues --  -10.29880 -10.29839 -10.29794 -10.29721 -10.29666
 Alpha  occ. eigenvalues --  -10.29647 -10.29449 -10.29233 -10.29124 -10.29064
 Alpha  occ. eigenvalues --  -10.28858 -10.28753 -10.28667 -10.28664 -10.28632
 Alpha  occ. eigenvalues --  -10.28619 -10.28537 -10.28481 -10.28215 -10.28100
 Alpha  occ. eigenvalues --  -10.27375  -3.20481  -1.94044  -1.93619  -1.93477
 Alpha  occ. eigenvalues --   -1.20516  -1.18910  -1.11818  -1.10309  -1.09929
 Alpha  occ. eigenvalues --   -1.09212  -1.06625  -1.05448  -1.04097  -1.02716
 Alpha  occ. eigenvalues --   -0.94557  -0.93006  -0.91855  -0.91216  -0.91110
 Alpha  occ. eigenvalues --   -0.90763  -0.90459  -0.89672  -0.89412  -0.89144
 Alpha  occ. eigenvalues --   -0.88657  -0.87957  -0.86639  -0.85439  -0.85329
 Alpha  occ. eigenvalues --   -0.84685  -0.84146  -0.83551  -0.82941  -0.82280
 Alpha  occ. eigenvalues --   -0.82096  -0.80791  -0.80274  -0.79168  -0.78300
 Alpha  occ. eigenvalues --   -0.77601  -0.77161  -0.76971  -0.76714  -0.76481
 Alpha  occ. eigenvalues --   -0.75568  -0.74989  -0.73696  -0.72403  -0.71106
 Alpha  occ. eigenvalues --   -0.70558  -0.70188  -0.69643  -0.69069  -0.67592
 Alpha  occ. eigenvalues --   -0.67489  -0.67359  -0.67080  -0.66346  -0.66195
 Alpha  occ. eigenvalues --   -0.65904  -0.65237  -0.64454  -0.62858  -0.62225
 Alpha  occ. eigenvalues --   -0.61731  -0.61429  -0.61067  -0.60555  -0.60315
 Alpha  occ. eigenvalues --   -0.59892  -0.59661  -0.58554  -0.58206  -0.57540
 Alpha  occ. eigenvalues --   -0.57240  -0.57071  -0.56418  -0.55984  -0.55786
 Alpha  occ. eigenvalues --   -0.55541  -0.55281  -0.55080  -0.54898  -0.54593
 Alpha  occ. eigenvalues --   -0.54386  -0.54264  -0.54168  -0.54010  -0.53810
 Alpha  occ. eigenvalues --   -0.53506  -0.53225  -0.53094  -0.52928  -0.52884
 Alpha  occ. eigenvalues --   -0.52328  -0.52207  -0.52129  -0.51975  -0.51753
 Alpha  occ. eigenvalues --   -0.51650  -0.51577  -0.51268  -0.51167  -0.50998
 Alpha  occ. eigenvalues --   -0.50892  -0.50563  -0.50260  -0.50089  -0.49941
 Alpha  occ. eigenvalues --   -0.49242  -0.48985  -0.48975  -0.48807  -0.48653
 Alpha  occ. eigenvalues --   -0.48329  -0.48196  -0.48187  -0.48095  -0.47926
 Alpha  occ. eigenvalues --   -0.47790  -0.47700  -0.47332  -0.47303  -0.46917
 Alpha  occ. eigenvalues --   -0.46818  -0.46627  -0.46084  -0.45979  -0.45780
 Alpha  occ. eigenvalues --   -0.45545  -0.45478  -0.45371  -0.45253  -0.44965
 Alpha  occ. eigenvalues --   -0.44894  -0.44673  -0.44498  -0.44258  -0.44093
 Alpha  occ. eigenvalues --   -0.43725  -0.43552  -0.43323  -0.43106  -0.43062
 Alpha  occ. eigenvalues --   -0.42825  -0.42647  -0.42600  -0.42162  -0.42063
 Alpha  occ. eigenvalues --   -0.41960  -0.41819  -0.41475  -0.41089  -0.40838
 Alpha  occ. eigenvalues --   -0.40583  -0.40458  -0.39760  -0.39622  -0.39389
 Alpha  occ. eigenvalues --   -0.39263  -0.38878  -0.38704  -0.38089  -0.38016
 Alpha  occ. eigenvalues --   -0.37552  -0.36927  -0.36509  -0.36093  -0.35953
 Alpha  occ. eigenvalues --   -0.35808  -0.35667  -0.35401  -0.33688  -0.33503
 Alpha  occ. eigenvalues --   -0.32201  -0.31842  -0.31453  -0.31375  -0.26316
 Alpha  occ. eigenvalues --   -0.23282
 Alpha virt. eigenvalues --   -0.07640  -0.00239   0.01776   0.04331   0.05297
 Alpha virt. eigenvalues --    0.06836   0.07642   0.07896   0.08584   0.10174
 Alpha virt. eigenvalues --    0.11042   0.11345   0.11680   0.11806   0.12575

 Mulliken charges:
               1
     1  Mg   0.968294
     2  C    0.011365
     3  C   -0.102719
     4  C   -0.069848
     5  C   -0.098117
     6  N   -0.364158
     7  C   -0.031237
     8  C   -0.005438
     9  C   -0.139370
    10  C    0.093501
    11  C    0.018628
    12  C    0.003606
    13  C   -0.033491
    14  C    0.205762
    15  O   -0.294802
    16  O   -0.316855
    17  N   -0.481960
    18  C    0.200967
    19  C   -0.179587
    20  C   -0.027859
    21  C    0.194097
    22  C    0.079520
    23  C    0.021843
    24  O   -0.252829
    25  C   -0.034372
    26  N   -0.410891
    27  C    0.039039
    28  C   -0.045382
    29  C   -0.088457
    30  C    0.133998
    31  C   -0.000941
    32  C   -0.040938
    33  C   -0.058103
    34  N   -0.418677
    35  C    0.119434
    36  C   -0.179014
    37  C   -0.042323
    38  C    0.138557
    39  C    0.103206
    40  C    0.093658
    41  O   -0.217570
    42  C   -0.119080
    43  C    0.257681
    44  O   -0.187258
    45  O   -0.390452
    46  C    0.148201
    47  C    0.268691
    48  C   -0.164513
    49  C   -0.227797
    50  C    0.020821
    51  C    0.059646
    52  C   -0.043144
    53  C   -0.008539
    54  C   -0.192631
    55  C   -0.004415
    56  C    0.031834
    57  C   -0.030022
    58  C    0.022155
    59  C   -0.226206
    60  C    0.011411
    61  C    0.073158
    62  C   -0.036942
    63  C    0.030458
    64  C   -0.241273
    65  C    0.014488
    66  C   -0.008127
    67  H   -0.010518
    68  H    0.026108
    69  H   -0.021834
    70  H    0.032587
    71  H    0.037739
    72  H    0.050630
    73  H    0.027826
    74  H    0.045012
    75  H    0.054986
    76  H    0.041956
    77  H    0.072802
    78  H    0.056671
    79  H    0.058228
    80  H    0.036997
    81  H    0.055091
    82  H    0.050750
    83  H    0.073596
    84  H    0.053495
    85  H    0.052236
    86  H    0.039567
    87  H    0.034002
    88  H    0.046119
    89  H    0.057276
    90  H    0.033967
    91  H    0.029755
    92  H    0.026308
    93  H    0.038866
    94  H    0.034998
    95  H    0.041584
    96  H    0.054271
    97  H    0.067239
    98  H    0.057354
    99  H    0.050724
   100  H    0.038071
   101  H    0.060316
   102  H    0.048560
   103  H    0.078484
   104  H    0.021900
   105  H    0.043126
   106  H    0.033117
   107  H    0.052233
   108  H    0.031497
   109  H    0.045111
   110  H    0.028304
   111  H    0.022693
   112  H    0.023361
   113  H    0.007183
   114  H    0.011951
   115  H    0.041931
   116  H    0.024124
   117  H    0.014828
   118  H    0.012166
   119  H    0.017875
   120  H    0.011547
   121  H    0.010445
   122  H    0.006945
   123  H    0.007610
   124  H    0.028190
   125  H    0.024829
   126  H    0.006739
   127  H    0.033248
   128  H    0.011904
   129  H    0.010526
   130  H    0.012320
   131  H    0.012696
   132  H    0.026676
   133  H    0.006738
   134  H    0.018705
   135  H    0.019632
   136  H    0.028842
   137  H    0.016755
   138  H    0.018974
   139  H    0.033601
   140  H    0.041175
 Sum of Mulliken charges =  -0.00000

 Dipole moment (field-independent basis, Debye):
    X=             -1.9500    Y=              4.8015    Z=             -1.2511  Tot=              5.3312
 Quadrupole moment (field-independent basis, Debye-Ang):
   XX=           -363.1806   YY=           -414.9754   ZZ=           -404.4732
   XY=             10.9991   XZ=             30.4348   YZ=             -1.7358

 Normal termination of Gaussian 16 at Thu May  5 01:47:31 2022.
