 Gaussian 16, Revision A.03,
 Gaussian 16:  ES64L-G16RevA.03 25-Dec-2016

 --------------------
 #p ZINDO=(nstates=5)
 --------------------

 ----------------------------
 step_501_chromophore_7 ZINDO
 ----------------------------
 Symbolic Z-matrix:
 Charge =  0 Multiplicity = 1

                         Standard orientation:
 ---------------------------------------------------------------------
 Center     Atomic      Atomic             Coordinates (Angstroms)
 Number     Number       Type             X           Y           Z
 ---------------------------------------------------------------------
      1         12           0        6.194244    0.457426    0.107384
      2          6           0        3.786553   -1.988928    0.343990
      3          6           0        3.791416    2.537460   -1.361786
      4          6           0        8.517724    2.880049   -0.248597
      5          6           0        8.553720   -1.729592    1.187698
      6          7           0        4.074495    0.164519   -0.683072
      7          6           0        3.245944   -0.870291   -0.231480
      8          6           0        1.753307   -0.555905   -0.453755
      9          6           0        1.851664    0.871972   -1.106553
     10          6           0        3.306345    1.282460   -1.026633
     11          6           0        1.316030    0.915640   -2.532083
     12          6           0        0.765675   -0.583471    0.766033
     13          6           0       -0.364270   -1.749997    0.777269
     14          6           0       -1.775613   -1.155097    0.803801
     15          8           0       -2.161160   -0.237815    1.549429
     16          8           0       -2.470693   -1.618856   -0.209564
     17          7           0        6.203956    2.356653   -0.765416
     18          6           0        5.078291    3.078084   -1.194786
     19          6           0        5.405014    4.488827   -1.427246
     20          6           0        6.874482    4.643618   -1.179964
     21          6           0        7.280929    3.284139   -0.642322
     22          6           0        4.385462    5.510362   -1.880614
     23          6           0        7.763234    5.786506   -1.331688
     24          8           0        8.982372    5.645292   -1.155517
     25          6           0        7.281512    7.158655   -1.769256
     26          7           0        8.185181    0.494008    0.345957
     27          6           0        8.972058    1.658352    0.273018
     28          6           0       10.462142    1.491285    0.777783
     29          6           0       10.410669   -0.064751    1.207469
     30          6           0        8.944265   -0.450059    0.908059
     31          6           0       11.582817    1.814221   -0.329034
     32          6           0       10.809866   -0.265076    2.709925
     33          6           0       11.619084   -1.472673    3.066069
     34          7           0        6.179900   -1.537405    0.564322
     35          6           0        7.240053   -2.303980    1.056630
     36          6           0        6.787649   -3.584693    1.481034
     37          6           0        5.360020   -3.467824    1.298799
     38          6           0        5.100360   -2.240567    0.675758
     39          6           0        7.504880   -4.716657    2.087873
     40          6           0        4.138836   -4.208412    1.358233
     41          8           0        3.813303   -5.326752    1.771686
     42          6           0        3.077225   -3.300089    0.586928
     43          6           0        2.624215   -4.023662   -0.630505
     44          8           0        2.977774   -3.884537   -1.734926
     45          8           0        1.565615   -4.873520   -0.318501
     46          6           0        0.676681   -5.175828   -1.421019
     47          6           0       -3.687866   -0.969878   -0.660141
     48          6           0       -4.706172   -1.893331   -1.113156
     49          6           0       -5.932422   -1.557972   -1.606709
     50          6           0       -6.255447   -0.109827   -1.999449
     51          6           0       -7.039296   -2.582707   -1.865128
     52          6           0       -8.490832   -2.238938   -1.305965
     53          6           0       -9.443080   -2.193607   -2.449187
     54          6           0      -10.837830   -1.574101   -2.193494
     55          6           0      -11.966229   -2.161376   -3.078869
     56          6           0      -10.760411   -0.037530   -2.192518
     57          6           0      -11.429331    0.536319   -0.876237
     58          6           0      -12.921275    0.838115   -0.928154
     59          6           0      -13.723772    0.242242    0.322326
     60          6           0      -14.382973   -1.008683   -0.299743
     61          6           0      -14.723252    1.281879    0.850595
     62          6           0      -14.319908    1.736898    2.285014
     63          6           0      -14.019031    3.202570    2.471672
     64          6           0      -13.178722    3.482723    3.754308
     65          6           0      -14.010691    3.796413    4.956280
     66          6           0      -12.099412    4.610763    3.620705
     67          1           0        3.015871    3.208644   -1.736696
     68          1           0        9.343160    3.594878   -0.247464
     69          1           0        9.277263   -2.386168    1.675317
     70          1           0        1.363727   -1.240648   -1.206282
     71          1           0        1.213047    1.593829   -0.596687
     72          1           0        2.142812    1.127407   -3.209559
     73          1           0        0.629984    1.761251   -2.501647
     74          1           0        0.736553    0.048733   -2.848833
     75          1           0        0.261600    0.382395    0.807704
     76          1           0        1.299909   -0.735407    1.704014
     77          1           0       -0.188064   -2.226131    1.741977
     78          1           0       -0.239809   -2.408562   -0.082036
     79          1           0        4.176946    5.296198   -2.929560
     80          1           0        4.835091    6.497589   -1.785984
     81          1           0        3.418531    5.407820   -1.387565
     82          1           0        8.175294    7.687148   -2.101476
     83          1           0        6.754549    7.709969   -0.989797
     84          1           0        6.693788    7.213837   -2.685359
     85          1           0       10.605180    2.056733    1.698031
     86          1           0       11.110627   -0.711291    0.677690
     87          1           0       12.391363    1.091227   -0.219178
     88          1           0       12.124821    2.752635   -0.218436
     89          1           0       11.196266    1.786755   -1.348015
     90          1           0        9.967852   -0.222673    3.400612
     91          1           0       11.477331    0.516918    3.071463
     92          1           0       10.947038   -2.082579    3.669572
     93          1           0       12.451418   -1.394487    3.765510
     94          1           0       11.907654   -2.003678    2.158363
     95          1           0        8.373416   -4.326650    2.619285
     96          1           0        7.845091   -5.300795    1.232892
     97          1           0        6.786681   -5.335187    2.626456
     98          1           0        2.212960   -3.113683    1.223931
     99          1           0        1.231566   -5.906039   -2.009097
    100          1           0        0.571847   -4.243498   -1.975649
    101          1           0       -0.258367   -5.616314   -1.073774
    102          1           0       -3.477829   -0.467420   -1.603085
    103          1           0       -4.152801   -0.287417    0.051744
    104          1           0       -4.603976   -2.924131   -0.773883
    105          1           0       -6.723326   -0.147315   -2.982956
    106          1           0       -5.392207    0.554924   -2.027981
    107          1           0       -6.964538    0.287194   -1.273679
    108          1           0       -6.801835   -3.540632   -1.403109
    109          1           0       -7.115997   -2.575736   -2.952089
    110          1           0       -8.492950   -1.368345   -0.649546
    111          1           0       -8.863319   -3.050763   -0.679692
    112          1           0       -9.740947   -3.169184   -2.832845
    113          1           0       -8.977132   -1.523245   -3.172261
    114          1           0      -11.087440   -1.998111   -1.220871
    115          1           0      -12.625287   -2.851222   -2.552014
    116          1           0      -11.642533   -2.656631   -3.994948
    117          1           0      -12.618781   -1.370791   -3.448778
    118          1           0      -11.385513    0.220154   -3.047400
    119          1           0       -9.771836    0.384636   -2.370236
    120          1           0      -10.957248    1.449874   -0.513104
    121          1           0      -11.095608   -0.140268   -0.088467
    122          1           0      -13.422020    0.572188   -1.859608
    123          1           0      -13.030640    1.922313   -0.956962
    124          1           0      -13.011866   -0.123895    1.062518
    125          1           0      -14.704149   -1.565835    0.581186
    126          1           0      -13.685399   -1.667080   -0.817533
    127          1           0      -15.135355   -0.771111   -1.050686
    128          1           0      -15.738520    0.908611    0.714112
    129          1           0      -14.736645    2.132135    0.169081
    130          1           0      -13.526590    1.066069    2.616681
    131          1           0      -15.102915    1.529808    3.014189
    132          1           0      -14.899018    3.840933    2.548510
    133          1           0      -13.417515    3.464331    1.600408
    134          1           0      -12.652167    2.551549    3.960117
    135          1           0      -13.659001    4.704797    5.445338
    136          1           0      -13.963853    2.945494    5.636365
    137          1           0      -15.061882    4.010073    4.762456
    138          1           0      -11.295680    3.957837    3.282497
    139          1           0      -11.747942    5.023174    4.566422
    140          1           0      -12.265831    5.364531    2.851201
 ---------------------------------------------------------------------

 SCF Done:  E(RZINDO/S) =  -474.369308218     A.U. after   20 cycles

 Excitation energies and oscillator strengths:

 Excited State   1:      Singlet-A      1.2333 eV 1005.34 nm  f=0.6136  <S**2>=0.000
     175 ->178         0.15194
     176 ->177         0.66841
 This state for optimization and/or second-order correction.
 Total Energy, E(CIS/TDA) =  -474.323986773
 Copying the excited state density for this state as the 1-particle RhoCI density.

 Excited State   2:      Singlet-A      1.9116 eV  648.59 nm  f=0.0761  <S**2>=0.000
     175 ->177         0.56077
     176 ->178        -0.37753
     176 ->179        -0.12764

 Excited State   3:      Singlet-A      2.8103 eV  441.18 nm  f=0.0067  <S**2>=0.000
     168 ->177         0.37966
     168 ->178        -0.30020
     168 ->179         0.34568
     168 ->180         0.19248
     168 ->184        -0.10531
     168 ->186        -0.23257

 Excited State   4:      Singlet-A      2.8820 eV  430.20 nm  f=0.5218  <S**2>=0.000
     175 ->177         0.28966
     176 ->178         0.53646
     176 ->179        -0.27737

 Excited State   5:      Singlet-A      2.9932 eV  414.22 nm  f=0.1359  <S**2>=0.000
     170 ->177         0.24943
     170 ->179        -0.23962
     170 ->180         0.31588
     170 ->186         0.11935
     170 ->188         0.15169
     174 ->177         0.21733
     175 ->177         0.13615
     176 ->178         0.15227
     176 ->179         0.23199
     176 ->180        -0.16009

 The electronic state is 1-A.
 Alpha  occ. eigenvalues --   -1.85951  -1.78964  -1.77306  -1.74658  -1.74231
 Alpha  occ. eigenvalues --   -1.68189  -1.66078  -1.61713  -1.59128  -1.57842
 Alpha  occ. eigenvalues --   -1.55961  -1.51879  -1.49168  -1.48765  -1.47519
 Alpha  occ. eigenvalues --   -1.44482  -1.42337  -1.40553  -1.39207  -1.38836
 Alpha  occ. eigenvalues --   -1.35831  -1.34559  -1.33952  -1.31594  -1.29003
 Alpha  occ. eigenvalues --   -1.27948  -1.24800  -1.22188  -1.21259  -1.18399
 Alpha  occ. eigenvalues --   -1.16981  -1.15813  -1.15011  -1.14726  -1.12929
 Alpha  occ. eigenvalues --   -1.12678  -1.11405  -1.11011  -1.05366  -1.03050
 Alpha  occ. eigenvalues --   -1.02702  -1.01354  -0.99349  -0.97818  -0.97683
 Alpha  occ. eigenvalues --   -0.96234  -0.95017  -0.93273  -0.92663  -0.91988
 Alpha  occ. eigenvalues --   -0.91276  -0.90356  -0.89237  -0.87951  -0.86828
 Alpha  occ. eigenvalues --   -0.86641  -0.84451  -0.83671  -0.81515  -0.80064
 Alpha  occ. eigenvalues --   -0.79400  -0.78788  -0.76578  -0.76474  -0.76236
 Alpha  occ. eigenvalues --   -0.75753  -0.75219  -0.74214  -0.73688  -0.73297
 Alpha  occ. eigenvalues --   -0.73252  -0.72743  -0.71461  -0.70636  -0.70545
 Alpha  occ. eigenvalues --   -0.70334  -0.69707  -0.68501  -0.68163  -0.67330
 Alpha  occ. eigenvalues --   -0.67088  -0.66918  -0.66827  -0.66033  -0.65429
 Alpha  occ. eigenvalues --   -0.65365  -0.65106  -0.64836  -0.64019  -0.63700
 Alpha  occ. eigenvalues --   -0.63303  -0.62752  -0.62554  -0.62376  -0.62087
 Alpha  occ. eigenvalues --   -0.61653  -0.61446  -0.61027  -0.60510  -0.60406
 Alpha  occ. eigenvalues --   -0.60301  -0.59935  -0.59394  -0.59202  -0.58344
 Alpha  occ. eigenvalues --   -0.58111  -0.57788  -0.57447  -0.57403  -0.56489
 Alpha  occ. eigenvalues --   -0.56084  -0.55759  -0.55474  -0.54768  -0.54300
 Alpha  occ. eigenvalues --   -0.54068  -0.53888  -0.53641  -0.53372  -0.52922
 Alpha  occ. eigenvalues --   -0.52297  -0.51990  -0.51678  -0.51432  -0.51048
 Alpha  occ. eigenvalues --   -0.50971  -0.50654  -0.50359  -0.50286  -0.50039
 Alpha  occ. eigenvalues --   -0.49866  -0.49607  -0.49443  -0.49068  -0.48903
 Alpha  occ. eigenvalues --   -0.48448  -0.48397  -0.48338  -0.48104  -0.47795
 Alpha  occ. eigenvalues --   -0.47734  -0.47304  -0.46946  -0.46715  -0.46496
 Alpha  occ. eigenvalues --   -0.45994  -0.45805  -0.45607  -0.45423  -0.45281
 Alpha  occ. eigenvalues --   -0.45035  -0.44729  -0.44324  -0.44181  -0.43984
 Alpha  occ. eigenvalues --   -0.43840  -0.43420  -0.42223  -0.41866  -0.41590
 Alpha  occ. eigenvalues --   -0.41338  -0.41169  -0.40815  -0.39324  -0.38797
 Alpha  occ. eigenvalues --   -0.38122  -0.37137  -0.36016  -0.34932  -0.34038
 Alpha  occ. eigenvalues --   -0.33474  -0.32729  -0.31541  -0.31490  -0.27021
 Alpha  occ. eigenvalues --   -0.22150
 Alpha virt. eigenvalues --   -0.09146  -0.02522  -0.01074   0.01172   0.01671
 Alpha virt. eigenvalues --    0.02407   0.02926   0.03899   0.04448   0.04856
 Alpha virt. eigenvalues --    0.06134   0.06481   0.07550   0.07915   0.08043

 Mulliken charges:
               1
     1  Mg   0.432836
     2  C   -0.035939
     3  C   -0.081367
     4  C   -0.045095
     5  C   -0.061058
     6  N   -0.309601
     7  C    0.109606
     8  C    0.001085
     9  C    0.006861
    10  C    0.168310
    11  C   -0.049629
    12  C   -0.029276
    13  C   -0.004157
    14  C    0.474858
    15  O   -0.548565
    16  O   -0.253560
    17  N   -0.348740
    18  C    0.140061
    19  C    0.023745
    20  C   -0.048056
    21  C    0.146947
    22  C   -0.038056
    23  C    0.336892
    24  O   -0.529638
    25  C   -0.033815
    26  N   -0.251720
    27  C    0.146059
    28  C   -0.001820
    29  C   -0.005959
    30  C    0.110334
    31  C   -0.051132
    32  C   -0.029994
    33  C   -0.060008
    34  N   -0.312486
    35  C    0.056916
    36  C    0.026996
    37  C   -0.084519
    38  C    0.140559
    39  C   -0.034728
    40  C    0.322076
    41  O   -0.542169
    42  C    0.047609
    43  C    0.498093
    44  O   -0.501554
    45  O   -0.291907
    46  C    0.074622
    47  C    0.113025
    48  C   -0.087343
    49  C   -0.024391
    50  C   -0.046773
    51  C   -0.025558
    52  C   -0.031186
    53  C   -0.033840
    54  C   -0.017754
    55  C   -0.059372
    56  C   -0.034104
    57  C   -0.038237
    58  C   -0.035707
    59  C   -0.017668
    60  C   -0.060663
    61  C   -0.032082
    62  C   -0.032430
    63  C   -0.026131
    64  C   -0.011978
    65  C   -0.054651
    66  C   -0.066449
    67  H    0.021536
    68  H    0.043555
    69  H    0.024346
    70  H    0.036970
    71  H    0.027497
    72  H    0.027942
    73  H    0.012829
    74  H    0.028823
    75  H    0.036063
    76  H    0.026861
    77  H    0.049708
    78  H    0.044490
    79  H    0.035159
    80  H    0.030904
    81  H    0.037214
    82  H    0.032863
    83  H    0.042556
    84  H    0.030975
    85  H    0.043879
    86  H    0.039091
    87  H    0.016763
    88  H    0.026270
    89  H    0.031602
    90  H    0.021765
    91  H    0.010747
    92  H    0.009366
    93  H    0.023713
    94  H    0.021309
    95  H    0.030455
    96  H    0.034589
    97  H    0.043436
    98  H    0.045244
    99  H    0.043498
   100  H    0.039701
   101  H    0.037515
   102  H    0.043014
   103  H    0.066572
   104  H    0.026052
   105  H    0.023876
   106  H    0.022880
   107  H    0.031359
   108  H    0.026947
   109  H    0.033272
   110  H    0.028543
   111  H    0.013326
   112  H    0.024721
   113  H    0.015710
   114  H    0.015169
   115  H    0.019189
   116  H    0.016309
   117  H    0.012403
   118  H    0.016662
   119  H    0.024871
   120  H    0.008760
   121  H    0.017262
   122  H    0.022547
   123  H    0.008014
   124  H    0.031414
   125  H    0.009904
   126  H    0.014489
   127  H    0.026214
   128  H    0.020239
   129  H    0.017401
   130  H    0.023930
   131  H    0.009634
   132  H    0.026857
   133  H    0.013169
   134  H    0.018125
   135  H    0.016130
   136  H    0.014918
   137  H    0.013656
   138  H    0.006230
   139  H    0.025903
   140  H    0.028473
 Sum of Mulliken charges =  -0.00000

 Dipole moment (field-independent basis, Debye):
    X=             -3.5178    Y=              8.3910    Z=             -1.7481  Tot=              9.2650
 N-N= 4.197240312643D+03 E-N= 0.000000000000D+00  KE=-9.068957218621D+03
 Leave Link  601 at Thu May  5 02:01:46 2022, MaxMem=  6710886400 cpu:               1.2 elap:               0.1
 (Enter /sw/apps/gaussian-16.0/g16/l9999.exe)
 1\1\GINC-BP1-COMPUTE215\SP\RZINDO CIS\STO-3G\C55H74Mg1N4O6\OF15641\05-
 May-2022\0\\#p ZINDO=(nstates=5)\\step_501_chromophore_7 ZINDO\\0,1\Mg
 ,0,25.267,0.12,29.485\C,0,27.141,-0.087,32.363\C,0,22.442,0.651,31.484
 \C,0,23.339,0.244,26.717\C,0,27.97,-0.768,27.635\N,0,24.827,-0.003,31.
 72\C,0,25.83,0.139,32.687\C,0,25.261,0.574,34.052\C,0,23.73,0.682,33.7
 07\C,0,23.611,0.485,32.211\C,0,22.87,-0.302,34.49\C,0,25.807,1.875,34.
 74\C,0,26.649,1.687,36.116\C,0,25.987,2.434,37.278\O,0,25.565,3.603,37

 Normal termination of Gaussian 16 at Thu May  5 02:01:46 2022.
