 Gaussian 16, Revision A.03,
 Gaussian 16:  ES64L-G16RevA.03 25-Dec-2016

 ------------------------------
 #p blyp/Def2SVP td=(nstates=5)
 ------------------------------

 --------------------------------------------------
 step_751_chromophore_14 TDDFT with blyp functional
 --------------------------------------------------
 Symbolic Z-matrix:
 Charge =  0 Multiplicity = 1

                         Standard orientation:
 ---------------------------------------------------------------------
 Center     Atomic      Atomic             Coordinates (Angstroms)
 Number     Number       Type             X           Y           Z
 ---------------------------------------------------------------------
      1         12           0        5.478486    0.817325   -0.084515
      2          6           0        4.750560   -2.609630    0.301330
      3          6           0        4.169948    0.496060   -3.347950
      4          6           0        5.545807    4.142790   -0.365011
      5          6           0        5.789826    0.978119    3.377598
      6          7           0        4.572335   -0.912356   -1.340022
      7          6           0        4.403347   -2.248665   -0.967611
      8          6           0        3.790160   -3.109893   -2.150315
      9          6           0        3.666636   -2.088488   -3.345547
     10          6           0        4.163068   -0.725770   -2.627773
     11          6           0        4.394352   -2.459820   -4.698989
     12          6           0        2.502215   -3.898149   -1.800649
     13          6           0        1.476928   -3.042497   -0.975380
     14          6           0       -0.076254   -3.296820   -1.179244
     15          8           0       -0.591577   -4.331522   -1.611792
     16          8           0       -0.816956   -2.188520   -0.813807
     17          7           0        4.999400    2.083647   -1.662580
     18          6           0        4.448419    1.818797   -2.907627
     19          6           0        4.198841    3.067693   -3.586991
     20          6           0        4.666185    4.113473   -2.710232
     21          6           0        5.132053    3.454570   -1.511980
     22          6           0        3.685912    3.139319   -5.059200
     23          6           0        4.551065    5.611987   -3.021978
     24          8           0        4.167561    5.896305   -4.103958
     25          6           0        4.954072    6.797379   -2.071117
     26          7           0        5.461482    2.319894    1.338088
     27          6           0        5.706584    3.587780    0.904930
     28          6           0        5.951297    4.538687    2.123328
     29          6           0        6.061205    3.593526    3.347875
     30          6           0        5.716115    2.205400    2.654046
     31          6           0        7.090025    5.703616    1.965337
     32          6           0        5.075654    3.931868    4.576693
     33          6           0        5.857180    4.235906    5.882125
     34          7           0        5.497588   -0.576173    1.501647
     35          6           0        5.622999   -0.361983    2.852475
     36          6           0        5.602994   -1.594336    3.585806
     37          6           0        5.328111   -2.525839    2.623785
     38          6           0        5.284211   -1.860507    1.359232
     39          6           0        5.775283   -1.812308    5.069508
     40          6           0        5.008580   -3.933978    2.355772
     41          8           0        4.858753   -4.891463    3.126086
     42          6           0        4.671798   -4.002560    0.852129
     43          6           0        5.648095   -4.911055    0.199361
     44          8           0        5.353048   -6.076518   -0.005933
     45          8           0        6.962692   -4.415733    0.116194
     46          6           0        7.893016   -5.532393   -0.301186
     47          6           0       -2.314036   -2.383649   -0.877994
     48          6           0       -3.019953   -1.013562   -0.787677
     49          6           0       -3.975368   -0.395950   -1.505272
     50          6           0       -4.710108   -1.073624   -2.658164
     51          6           0       -4.512238    0.919694   -1.031034
     52          6           0       -5.565633    0.673884    0.077868
     53          6           0       -6.957310    1.084030   -0.284758
     54          6           0       -8.196173    0.342837    0.279715
     55          6           0       -8.171159    0.159920    1.777095
     56          6           0       -8.500524   -0.991867   -0.457384
     57          6           0       -9.976113   -1.229113   -0.837318
     58          6           0      -10.786017   -1.743032    0.414859
     59          6           0      -11.657241   -0.545314    1.055348
     60          6           0      -11.707417   -0.501746    2.639883
     61          6           0      -13.070741   -0.544872    0.511198
     62          6           0      -13.769246    0.884063    0.605508
     63          6           0      -15.262353    0.763892    0.080365
     64          6           0      -16.357601    1.569544    0.775145
     65          6           0      -17.684758    0.847738    1.132611
     66          6           0      -16.661189    2.882785    0.036345
     67          1           0        3.844585    0.236849   -4.358338
     68          1           0        5.664739    5.216723   -0.524692
     69          1           0        6.100090    0.980571    4.424482
     70          1           0        4.517917   -3.892535   -2.362110
     71          1           0        2.621427   -1.793710   -3.440608
     72          1           0        5.226743   -1.869682   -5.083158
     73          1           0        3.606482   -2.580022   -5.442797
     74          1           0        4.793346   -3.433161   -4.410654
     75          1           0        2.807212   -4.738509   -1.177980
     76          1           0        1.916248   -4.236594   -2.654434
     77          1           0        1.585274   -1.967173   -1.120638
     78          1           0        1.548757   -3.306106    0.079629
     79          1           0        3.507237    2.117605   -5.396933
     80          1           0        4.345429    3.695537   -5.724507
     81          1           0        2.757884    3.705692   -4.978040
     82          1           0        6.027827    6.973596   -2.020849
     83          1           0        4.417836    6.608776   -1.140146
     84          1           0        4.323834    7.627259   -2.391431
     85          1           0        4.968367    5.001150    2.213459
     86          1           0        7.128721    3.503117    3.547343
     87          1           0        7.929069    5.432752    1.323531
     88          1           0        7.452253    5.757116    2.991630
     89          1           0        6.617900    6.660951    1.745863
     90          1           0        4.385856    3.113149    4.783738
     91          1           0        4.478839    4.816508    4.351481
     92          1           0        5.585572    3.413739    6.544598
     93          1           0        5.678925    5.203792    6.349628
     94          1           0        6.916069    4.030553    5.720258
     95          1           0        5.766001   -0.869211    5.616757
     96          1           0        6.755302   -2.283704    5.135216
     97          1           0        4.978937   -2.467449    5.423654
     98          1           0        3.686346   -4.464596    0.897151
     99          1           0        7.979519   -6.211626    0.546962
    100          1           0        8.809056   -4.954787   -0.426256
    101          1           0        7.532965   -6.058082   -1.185625
    102          1           0       -2.704648   -3.067088   -0.124601
    103          1           0       -2.530876   -2.854572   -1.837402
    104          1           0       -2.698180   -0.504993    0.122113
    105          1           0       -4.200503   -1.964826   -3.024867
    106          1           0       -4.684211   -0.383899   -3.501929
    107          1           0       -5.724532   -1.279689   -2.313805
    108          1           0       -4.923493    1.520248   -1.842099
    109          1           0       -3.745215    1.555757   -0.591281
    110          1           0       -5.286714    1.174188    1.004428
    111          1           0       -5.574385   -0.406278    0.225274
    112          1           0       -6.969099    0.983684   -1.370769
    113          1           0       -7.032655    2.121612    0.041189
    114          1           0       -9.103527    0.870377   -0.014792
    115          1           0       -8.765708    0.958168    2.221118
    116          1           0       -7.177158    0.212836    2.220098
    117          1           0       -8.564338   -0.796730    2.122028
    118          1           0       -8.207413   -1.828828    0.176064
    119          1           0       -7.919172   -1.206438   -1.353864
    120          1           0       -9.884712   -1.847890   -1.730750
    121          1           0      -10.364989   -0.261345   -1.153466
    122          1           0      -10.088537   -2.183356    1.127601
    123          1           0      -11.411549   -2.559226    0.053686
    124          1           0      -11.224419    0.429690    0.829887
    125          1           0      -12.687448   -0.068830    2.840035
    126          1           0      -10.947957    0.104507    3.135063
    127          1           0      -11.782226   -1.516071    3.031014
    128          1           0      -13.662216   -1.164727    1.184671
    129          1           0      -13.206708   -1.001532   -0.468924
    130          1           0      -13.256279    1.574969   -0.062548
    131          1           0      -13.758035    1.336100    1.596575
    132          1           0      -15.558924   -0.281545    0.001046
    133          1           0      -15.302762    1.084064   -0.960990
    134          1           0      -15.875915    1.851387    1.711778
    135          1           0      -18.580732    1.464630    1.063870
    136          1           0      -17.575208    0.471726    2.150085
    137          1           0      -17.936323   -0.022088    0.525866
    138          1           0      -17.708268    3.176120   -0.026461
    139          1           0      -16.280371    2.806577   -0.982389
    140          1           0      -16.189444    3.733822    0.527842
 ---------------------------------------------------------------------

 SCF Done:  E(RB-LYP) =  -3007.38119371     A.U. after   22 cycles

 Excitation energies and oscillator strengths:

 Excited State   1:      Singlet-A      1.8170 eV  682.35 nm  f=0.2628  <S**2>=0.000
     244 -> 247        0.11669
     245 -> 247        0.10136
     245 -> 248        0.18081
     246 -> 247        0.67345
     246 <- 247       -0.14473
 This state for optimization and/or second-order correction.
 Total Energy, E(TD-HF/TD-DFT) =  -3007.31441950
 Copying the excited state density for this state as the 1-particle RhoCI density.

 Excited State   2:      Singlet-A      1.9059 eV  650.53 nm  f=0.0537  <S**2>=0.000
     243 -> 247       -0.18302
     244 -> 247        0.51463
     245 -> 247        0.40576
     246 -> 247       -0.15476

 Excited State   3:      Singlet-A      1.9468 eV  636.86 nm  f=0.0001  <S**2>=0.000
     243 -> 247        0.65965
     244 -> 247        0.25240

 Excited State   4:      Singlet-A      2.0691 eV  599.20 nm  f=0.0742  <S**2>=0.000
     243 -> 247        0.17054
     244 -> 247       -0.39089
     245 -> 247        0.50608
     246 -> 248       -0.21448

 Excited State   5:      Singlet-A      2.3437 eV  529.01 nm  f=0.0005  <S**2>=0.000
     241 -> 247        0.69303
     242 -> 247       -0.13730

 The electronic state is 1-A.
 Alpha  occ. eigenvalues --  -46.27825 -18.81889 -18.81692 -18.76471 -18.76367
 Alpha  occ. eigenvalues --  -18.75771 -18.75761 -14.03679 -14.03343 -14.01197
 Alpha  occ. eigenvalues --  -14.00874 -10.03859 -10.03382 -10.00105  -9.99646
 Alpha  occ. eigenvalues --   -9.97924  -9.97679  -9.97071  -9.96949  -9.96744
 Alpha  occ. eigenvalues --   -9.96589  -9.95940  -9.95721  -9.95533  -9.94952
 Alpha  occ. eigenvalues --   -9.94910  -9.94562  -9.94373  -9.94229  -9.93790
 Alpha  occ. eigenvalues --   -9.93725  -9.93599  -9.93576  -9.93476  -9.93260
 Alpha  occ. eigenvalues --   -9.93232  -9.93229  -9.93226  -9.93213  -9.93155
 Alpha  occ. eigenvalues --   -9.93075  -9.92770  -9.92723  -9.92659  -9.92402
 Alpha  occ. eigenvalues --   -9.92396  -9.92363  -9.92128  -9.92037  -9.91997
 Alpha  occ. eigenvalues --   -9.91892  -9.91750  -9.91748  -9.91727  -9.91606
 Alpha  occ. eigenvalues --   -9.91431  -9.91304  -9.91278  -9.90983  -9.90923
 Alpha  occ. eigenvalues --   -9.90922  -9.90878  -9.90729  -9.90703  -9.90528
 Alpha  occ. eigenvalues --   -9.90321  -2.92419  -1.72817  -1.72331  -1.72118
 Alpha  occ. eigenvalues --   -0.96508  -0.96224  -0.94014  -0.90557  -0.88979
 Alpha  occ. eigenvalues --   -0.88377  -0.87402  -0.86418  -0.84881  -0.84123
 Alpha  occ. eigenvalues --   -0.76009  -0.74124  -0.72733  -0.72169  -0.71943
 Alpha  occ. eigenvalues --   -0.71871  -0.71642  -0.70939  -0.70580  -0.70033
 Alpha  occ. eigenvalues --   -0.68592  -0.68485  -0.68094  -0.67110  -0.67004
 Alpha  occ. eigenvalues --   -0.66002  -0.65381  -0.64856  -0.64463  -0.64106
 Alpha  occ. eigenvalues --   -0.64072  -0.62470  -0.61960  -0.61551  -0.60923
 Alpha  occ. eigenvalues --   -0.60851  -0.60102  -0.59887  -0.59438  -0.58723
 Alpha  occ. eigenvalues --   -0.58261  -0.57691  -0.56951  -0.55722  -0.54586
 Alpha  occ. eigenvalues --   -0.54244  -0.53718  -0.52980  -0.52227  -0.51945
 Alpha  occ. eigenvalues --   -0.51284  -0.51137  -0.50871  -0.50090  -0.49867
 Alpha  occ. eigenvalues --   -0.48975  -0.48876  -0.48392  -0.48074  -0.46203
 Alpha  occ. eigenvalues --   -0.46071  -0.45953  -0.45362  -0.44392  -0.44224
 Alpha  occ. eigenvalues --   -0.43527  -0.43315  -0.42858  -0.42468  -0.42157
 Alpha  occ. eigenvalues --   -0.41829  -0.41742  -0.41395  -0.41150  -0.40710
 Alpha  occ. eigenvalues --   -0.40631  -0.40470  -0.40344  -0.40214  -0.39834
 Alpha  occ. eigenvalues --   -0.39784  -0.39605  -0.39353  -0.39282  -0.39128
 Alpha  occ. eigenvalues --   -0.38836  -0.38770  -0.38480  -0.38198  -0.38134
 Alpha  occ. eigenvalues --   -0.37685  -0.37604  -0.37315  -0.37238  -0.37112
 Alpha  occ. eigenvalues --   -0.37030  -0.36808  -0.36714  -0.36558  -0.36270
 Alpha  occ. eigenvalues --   -0.36074  -0.35897  -0.35711  -0.35611  -0.35516
 Alpha  occ. eigenvalues --   -0.35480  -0.35437  -0.35119  -0.34947  -0.34743
 Alpha  occ. eigenvalues --   -0.34731  -0.34649  -0.34509  -0.34254  -0.33928
 Alpha  occ. eigenvalues --   -0.33749  -0.33614  -0.33319  -0.33103  -0.32978
 Alpha  occ. eigenvalues --   -0.32603  -0.32496  -0.32484  -0.32376  -0.32340
 Alpha  occ. eigenvalues --   -0.32137  -0.31890  -0.31746  -0.31546  -0.31365
 Alpha  occ. eigenvalues --   -0.31233  -0.31141  -0.31021  -0.30872  -0.30731
 Alpha  occ. eigenvalues --   -0.30696  -0.30662  -0.30361  -0.30234  -0.30157
 Alpha  occ. eigenvalues --   -0.29984  -0.29631  -0.29480  -0.29030  -0.28988
 Alpha  occ. eigenvalues --   -0.28595  -0.28510  -0.28471  -0.28384  -0.27894
 Alpha  occ. eigenvalues --   -0.27771  -0.27341  -0.27046  -0.26669  -0.26461
 Alpha  occ. eigenvalues --   -0.26404  -0.26130  -0.25902  -0.25508  -0.25375
 Alpha  occ. eigenvalues --   -0.25024  -0.24960  -0.24708  -0.24187  -0.23921
 Alpha  occ. eigenvalues --   -0.23646  -0.22401  -0.21464  -0.21387  -0.20966
 Alpha  occ. eigenvalues --   -0.20294  -0.20215  -0.18773  -0.18738  -0.17337
 Alpha  occ. eigenvalues --   -0.15998
 Alpha virt. eigenvalues --   -0.11683  -0.06720  -0.06054  -0.04415  -0.03375
 Alpha virt. eigenvalues --   -0.02438  -0.02221  -0.01785  -0.01370   0.00096
 Alpha virt. eigenvalues --    0.01240   0.02008   0.02341   0.02371   0.03075

 Mulliken charges:
               1
     1  Mg   0.703043
     2  C    0.064138
     3  C   -0.039047
     4  C   -0.066500
     5  C   -0.064602
     6  N   -0.196175
     7  C   -0.113608
     8  C    0.052065
     9  C    0.002192
    10  C   -0.080778
    11  C    0.140797
    12  C    0.123238
    13  C    0.061189
    14  C    0.078854
    15  O   -0.205844
    16  O   -0.287362
    17  N   -0.310253
    18  C    0.174638
    19  C   -0.154237
    20  C    0.015795
    21  C    0.149279
    22  C    0.194413
    23  C   -0.117121
    24  O   -0.130837
    25  C    0.156135
    26  N   -0.236378
    27  C    0.047704
    28  C   -0.011526
    29  C    0.034678
    30  C   -0.006346
    31  C    0.129047
    32  C    0.100450
    33  C    0.053058
    34  N   -0.207303
    35  C    0.063957
    36  C   -0.197008
    37  C    0.089521
    38  C    0.041933
    39  C    0.188078
    40  C   -0.055635
    41  O   -0.140395
    42  C    0.056220
    43  C    0.121981
    44  O   -0.180272
    45  O   -0.313126
    46  C    0.223494
    47  C    0.316703
    48  C   -0.090898
    49  C   -0.158666
    50  C    0.146315
    51  C    0.159673
    52  C    0.051530
    53  C    0.093537
    54  C   -0.004609
    55  C    0.114185
    56  C    0.037287
    57  C    0.058232
    58  C    0.142524
    59  C   -0.050424
    60  C    0.090396
    61  C    0.066054
    62  C    0.059324
    63  C    0.102992
    64  C   -0.078239
    65  C    0.098945
    66  C    0.097226
    67  H   -0.064402
    68  H   -0.095777
    69  H   -0.065079
    70  H   -0.015594
    71  H   -0.011605
    72  H    0.013949
    73  H    0.003095
    74  H   -0.011628
    75  H    0.004925
    76  H   -0.003845
    77  H    0.017499
    78  H    0.013988
    79  H   -0.021678
    80  H    0.012553
    81  H    0.004676
    82  H    0.039805
    83  H   -0.006023
    84  H   -0.017520
    85  H   -0.021673
    86  H   -0.020037
    87  H    0.005383
    88  H   -0.011920
    89  H    0.002308
    90  H   -0.005417
    91  H   -0.017483
    92  H   -0.014324
    93  H    0.007086
    94  H   -0.014276
    95  H   -0.017846
    96  H    0.012547
    97  H    0.018816
    98  H   -0.003168
    99  H    0.023830
   100  H    0.012293
   101  H    0.027597
   102  H    0.010118
   103  H   -0.013044
   104  H   -0.039639
   105  H   -0.013257
   106  H   -0.009357
   107  H    0.014134
   108  H   -0.033497
   109  H   -0.029637
   110  H   -0.022177
   111  H   -0.020955
   112  H   -0.040259
   113  H   -0.035856
   114  H   -0.046139
   115  H   -0.013506
   116  H   -0.021548
   117  H   -0.015629
   118  H   -0.047356
   119  H   -0.049367
   120  H   -0.036078
   121  H   -0.027782
   122  H   -0.034175
   123  H   -0.033554
   124  H   -0.032037
   125  H   -0.032595
   126  H   -0.002549
   127  H   -0.018916
   128  H   -0.035391
   129  H   -0.023271
   130  H   -0.026520
   131  H   -0.016019
   132  H   -0.040173
   133  H   -0.042898
   134  H   -0.039038
   135  H   -0.017550
   136  H   -0.015939
   137  H   -0.019707
   138  H   -0.021892
   139  H   -0.022145
   140  H   -0.019489
 Sum of Mulliken charges =  -0.00000

 Dipole moment (field-independent basis, Debye):
    X=              1.5152    Y=              5.6050    Z=              0.9518  Tot=              5.8837
 Quadrupole moment (field-independent basis, Debye-Ang):
   XX=           -355.9260   YY=           -441.6908   ZZ=           -404.3998
   XY=             16.4785   XZ=              3.6837   YZ=             36.6059

 Normal termination of Gaussian 16 at Sat Apr 30 13:49:59 2022.
