 Gaussian 16, Revision A.03,
 Gaussian 16:  ES64L-G16RevA.03 25-Dec-2016

 -----------------------------------
 #p cam-b3lyp/Def2SVP td=(nstates=5)
 -----------------------------------

 -------------------------------------------------------
 step_751_chromophore_14 TDDFT with cam-b3lyp functional
 -------------------------------------------------------
 Symbolic Z-matrix:
 Charge =  0 Multiplicity = 1

                         Standard orientation:
 ---------------------------------------------------------------------
 Center     Atomic      Atomic             Coordinates (Angstroms)
 Number     Number       Type             X           Y           Z
 ---------------------------------------------------------------------
      1         12           0        5.478486    0.817325   -0.084515
      2          6           0        4.750560   -2.609630    0.301330
      3          6           0        4.169948    0.496060   -3.347950
      4          6           0        5.545807    4.142790   -0.365011
      5          6           0        5.789826    0.978119    3.377598
      6          7           0        4.572335   -0.912356   -1.340022
      7          6           0        4.403347   -2.248665   -0.967611
      8          6           0        3.790160   -3.109893   -2.150315
      9          6           0        3.666636   -2.088488   -3.345547
     10          6           0        4.163068   -0.725770   -2.627773
     11          6           0        4.394352   -2.459820   -4.698989
     12          6           0        2.502215   -3.898149   -1.800649
     13          6           0        1.476928   -3.042497   -0.975380
     14          6           0       -0.076254   -3.296820   -1.179244
     15          8           0       -0.591577   -4.331522   -1.611792
     16          8           0       -0.816956   -2.188520   -0.813807
     17          7           0        4.999400    2.083647   -1.662580
     18          6           0        4.448419    1.818797   -2.907627
     19          6           0        4.198841    3.067693   -3.586991
     20          6           0        4.666185    4.113473   -2.710232
     21          6           0        5.132053    3.454570   -1.511980
     22          6           0        3.685912    3.139319   -5.059200
     23          6           0        4.551065    5.611987   -3.021978
     24          8           0        4.167561    5.896305   -4.103958
     25          6           0        4.954072    6.797379   -2.071117
     26          7           0        5.461482    2.319894    1.338088
     27          6           0        5.706584    3.587780    0.904930
     28          6           0        5.951297    4.538687    2.123328
     29          6           0        6.061205    3.593526    3.347875
     30          6           0        5.716115    2.205400    2.654046
     31          6           0        7.090025    5.703616    1.965337
     32          6           0        5.075654    3.931868    4.576693
     33          6           0        5.857180    4.235906    5.882125
     34          7           0        5.497588   -0.576173    1.501647
     35          6           0        5.622999   -0.361983    2.852475
     36          6           0        5.602994   -1.594336    3.585806
     37          6           0        5.328111   -2.525839    2.623785
     38          6           0        5.284211   -1.860507    1.359232
     39          6           0        5.775283   -1.812308    5.069508
     40          6           0        5.008580   -3.933978    2.355772
     41          8           0        4.858753   -4.891463    3.126086
     42          6           0        4.671798   -4.002560    0.852129
     43          6           0        5.648095   -4.911055    0.199361
     44          8           0        5.353048   -6.076518   -0.005933
     45          8           0        6.962692   -4.415733    0.116194
     46          6           0        7.893016   -5.532393   -0.301186
     47          6           0       -2.314036   -2.383649   -0.877994
     48          6           0       -3.019953   -1.013562   -0.787677
     49          6           0       -3.975368   -0.395950   -1.505272
     50          6           0       -4.710108   -1.073624   -2.658164
     51          6           0       -4.512238    0.919694   -1.031034
     52          6           0       -5.565633    0.673884    0.077868
     53          6           0       -6.957310    1.084030   -0.284758
     54          6           0       -8.196173    0.342837    0.279715
     55          6           0       -8.171159    0.159920    1.777095
     56          6           0       -8.500524   -0.991867   -0.457384
     57          6           0       -9.976113   -1.229113   -0.837318
     58          6           0      -10.786017   -1.743032    0.414859
     59          6           0      -11.657241   -0.545314    1.055348
     60          6           0      -11.707417   -0.501746    2.639883
     61          6           0      -13.070741   -0.544872    0.511198
     62          6           0      -13.769246    0.884063    0.605508
     63          6           0      -15.262353    0.763892    0.080365
     64          6           0      -16.357601    1.569544    0.775145
     65          6           0      -17.684758    0.847738    1.132611
     66          6           0      -16.661189    2.882785    0.036345
     67          1           0        3.844585    0.236849   -4.358338
     68          1           0        5.664739    5.216723   -0.524692
     69          1           0        6.100090    0.980571    4.424482
     70          1           0        4.517917   -3.892535   -2.362110
     71          1           0        2.621427   -1.793710   -3.440608
     72          1           0        5.226743   -1.869682   -5.083158
     73          1           0        3.606482   -2.580022   -5.442797
     74          1           0        4.793346   -3.433161   -4.410654
     75          1           0        2.807212   -4.738509   -1.177980
     76          1           0        1.916248   -4.236594   -2.654434
     77          1           0        1.585274   -1.967173   -1.120638
     78          1           0        1.548757   -3.306106    0.079629
     79          1           0        3.507237    2.117605   -5.396933
     80          1           0        4.345429    3.695537   -5.724507
     81          1           0        2.757884    3.705692   -4.978040
     82          1           0        6.027827    6.973596   -2.020849
     83          1           0        4.417836    6.608776   -1.140146
     84          1           0        4.323834    7.627259   -2.391431
     85          1           0        4.968367    5.001150    2.213459
     86          1           0        7.128721    3.503117    3.547343
     87          1           0        7.929069    5.432752    1.323531
     88          1           0        7.452253    5.757116    2.991630
     89          1           0        6.617900    6.660951    1.745863
     90          1           0        4.385856    3.113149    4.783738
     91          1           0        4.478839    4.816508    4.351481
     92          1           0        5.585572    3.413739    6.544598
     93          1           0        5.678925    5.203792    6.349628
     94          1           0        6.916069    4.030553    5.720258
     95          1           0        5.766001   -0.869211    5.616757
     96          1           0        6.755302   -2.283704    5.135216
     97          1           0        4.978937   -2.467449    5.423654
     98          1           0        3.686346   -4.464596    0.897151
     99          1           0        7.979519   -6.211626    0.546962
    100          1           0        8.809056   -4.954787   -0.426256
    101          1           0        7.532965   -6.058082   -1.185625
    102          1           0       -2.704648   -3.067088   -0.124601
    103          1           0       -2.530876   -2.854572   -1.837402
    104          1           0       -2.698180   -0.504993    0.122113
    105          1           0       -4.200503   -1.964826   -3.024867
    106          1           0       -4.684211   -0.383899   -3.501929
    107          1           0       -5.724532   -1.279689   -2.313805
    108          1           0       -4.923493    1.520248   -1.842099
    109          1           0       -3.745215    1.555757   -0.591281
    110          1           0       -5.286714    1.174188    1.004428
    111          1           0       -5.574385   -0.406278    0.225274
    112          1           0       -6.969099    0.983684   -1.370769
    113          1           0       -7.032655    2.121612    0.041189
    114          1           0       -9.103527    0.870377   -0.014792
    115          1           0       -8.765708    0.958168    2.221118
    116          1           0       -7.177158    0.212836    2.220098
    117          1           0       -8.564338   -0.796730    2.122028
    118          1           0       -8.207413   -1.828828    0.176064
    119          1           0       -7.919172   -1.206438   -1.353864
    120          1           0       -9.884712   -1.847890   -1.730750
    121          1           0      -10.364989   -0.261345   -1.153466
    122          1           0      -10.088537   -2.183356    1.127601
    123          1           0      -11.411549   -2.559226    0.053686
    124          1           0      -11.224419    0.429690    0.829887
    125          1           0      -12.687448   -0.068830    2.840035
    126          1           0      -10.947957    0.104507    3.135063
    127          1           0      -11.782226   -1.516071    3.031014
    128          1           0      -13.662216   -1.164727    1.184671
    129          1           0      -13.206708   -1.001532   -0.468924
    130          1           0      -13.256279    1.574969   -0.062548
    131          1           0      -13.758035    1.336100    1.596575
    132          1           0      -15.558924   -0.281545    0.001046
    133          1           0      -15.302762    1.084064   -0.960990
    134          1           0      -15.875915    1.851387    1.711778
    135          1           0      -18.580732    1.464630    1.063870
    136          1           0      -17.575208    0.471726    2.150085
    137          1           0      -17.936323   -0.022088    0.525866
    138          1           0      -17.708268    3.176120   -0.026461
    139          1           0      -16.280371    2.806577   -0.982389
    140          1           0      -16.189444    3.733822    0.527842
 ---------------------------------------------------------------------

 SCF Done:  E(RCAM-B3LYP) =  -3007.16527141     A.U. after   18 cycles

 Excitation energies and oscillator strengths:

 Excited State   1:      Singlet-A      1.7226 eV  719.74 nm  f=0.3729  <S**2>=0.000
     245 -> 248        0.17448
     246 -> 247        0.68700
     245 <- 248        0.10678
 This state for optimization and/or second-order correction.
 Total Energy, E(TD-HF/TD-DFT) =  -3007.10196643
 Copying the excited state density for this state as the 1-particle RhoCI density.

 Excited State   2:      Singlet-A      2.2496 eV  551.14 nm  f=0.1235  <S**2>=0.000
     245 -> 247        0.64329
     246 -> 248       -0.28134

 Excited State   3:      Singlet-A      3.2898 eV  376.87 nm  f=0.0009  <S**2>=0.000
     244 -> 247        0.69059

 Excited State   4:      Singlet-A      3.5078 eV  353.45 nm  f=0.0337  <S**2>=0.000
     241 -> 247        0.40233
     241 -> 249       -0.26418
     241 -> 250        0.10820
     241 -> 251        0.12425
     242 -> 247        0.36181
     242 -> 249       -0.13719
     246 -> 248        0.20761

 Excited State   5:      Singlet-A      3.6062 eV  343.81 nm  f=0.3299  <S**2>=0.000
     241 -> 247       -0.34510
     241 -> 249        0.14407
     242 -> 247        0.25969
     245 -> 247        0.19012
     246 -> 248        0.47552

 The electronic state is 1-A.
 Alpha  occ. eigenvalues --  -46.89412 -19.24822 -19.24566 -19.19651 -19.19302
 Alpha  occ. eigenvalues --  -19.19179 -19.18765 -14.42435 -14.42374 -14.39776
 Alpha  occ. eigenvalues --  -14.39176 -10.39203 -10.38878 -10.35402 -10.34832
 Alpha  occ. eigenvalues --  -10.32097 -10.31690 -10.31680 -10.31480 -10.31340
 Alpha  occ. eigenvalues --  -10.30964 -10.30564 -10.30487 -10.29453 -10.29165
 Alpha  occ. eigenvalues --  -10.29047 -10.28692 -10.28544 -10.28462 -10.28203
 Alpha  occ. eigenvalues --  -10.27771 -10.27720 -10.27511 -10.27438 -10.27351
 Alpha  occ. eigenvalues --  -10.27329 -10.27303 -10.27275 -10.27178 -10.27172
 Alpha  occ. eigenvalues --  -10.27082 -10.26988 -10.26918 -10.26899 -10.26237
 Alpha  occ. eigenvalues --  -10.26151 -10.26065 -10.26053 -10.25735 -10.25654
 Alpha  occ. eigenvalues --  -10.25619 -10.25545 -10.25458 -10.25442 -10.25417
 Alpha  occ. eigenvalues --  -10.25110 -10.24927 -10.24899 -10.24760 -10.24590
 Alpha  occ. eigenvalues --  -10.24553 -10.24545 -10.24316 -10.24270 -10.24176
 Alpha  occ. eigenvalues --  -10.23898  -3.17905  -1.92781  -1.92382  -1.92192
 Alpha  occ. eigenvalues --   -1.15072  -1.14620  -1.12713  -1.08746  -1.06878
 Alpha  occ. eigenvalues --   -1.06158  -1.04929  -1.04017  -1.02637  -1.01751
 Alpha  occ. eigenvalues --   -0.93101  -0.91009  -0.89516  -0.88955  -0.88730
 Alpha  occ. eigenvalues --   -0.88556  -0.88248  -0.87391  -0.87125  -0.86524
 Alpha  occ. eigenvalues --   -0.85234  -0.84908  -0.84397  -0.83201  -0.83166
 Alpha  occ. eigenvalues --   -0.82010  -0.81530  -0.80879  -0.80296  -0.79857
 Alpha  occ. eigenvalues --   -0.79811  -0.78066  -0.77548  -0.77123  -0.76326
 Alpha  occ. eigenvalues --   -0.76229  -0.75437  -0.75233  -0.74703  -0.73930
 Alpha  occ. eigenvalues --   -0.73340  -0.72711  -0.71873  -0.70572  -0.69135
 Alpha  occ. eigenvalues --   -0.68852  -0.68286  -0.67423  -0.66793  -0.65990
 Alpha  occ. eigenvalues --   -0.65528  -0.65236  -0.65065  -0.64037  -0.63891
 Alpha  occ. eigenvalues --   -0.62893  -0.62647  -0.62068  -0.61832  -0.59748
 Alpha  occ. eigenvalues --   -0.59595  -0.59505  -0.58819  -0.57781  -0.57661
 Alpha  occ. eigenvalues --   -0.57037  -0.56530  -0.56056  -0.55445  -0.55375
 Alpha  occ. eigenvalues --   -0.54935  -0.54844  -0.54157  -0.53993  -0.53571
 Alpha  occ. eigenvalues --   -0.53554  -0.53226  -0.53102  -0.52924  -0.52750
 Alpha  occ. eigenvalues --   -0.52620  -0.52395  -0.52065  -0.51863  -0.51674
 Alpha  occ. eigenvalues --   -0.51570  -0.51241  -0.51154  -0.50689  -0.50534
 Alpha  occ. eigenvalues --   -0.50014  -0.49897  -0.49847  -0.49651  -0.49431
 Alpha  occ. eigenvalues --   -0.49234  -0.49098  -0.48905  -0.48792  -0.48690
 Alpha  occ. eigenvalues --   -0.48551  -0.48283  -0.47903  -0.47760  -0.47577
 Alpha  occ. eigenvalues --   -0.47503  -0.47361  -0.47118  -0.47106  -0.46786
 Alpha  occ. eigenvalues --   -0.46607  -0.46528  -0.46383  -0.46159  -0.45752
 Alpha  occ. eigenvalues --   -0.45523  -0.45379  -0.45137  -0.45002  -0.44776
 Alpha  occ. eigenvalues --   -0.44445  -0.44269  -0.44140  -0.43926  -0.43829
 Alpha  occ. eigenvalues --   -0.43545  -0.43515  -0.43199  -0.43043  -0.42912
 Alpha  occ. eigenvalues --   -0.42854  -0.42784  -0.42544  -0.42464  -0.42141
 Alpha  occ. eigenvalues --   -0.42028  -0.41965  -0.41782  -0.41720  -0.41479
 Alpha  occ. eigenvalues --   -0.41234  -0.41024  -0.40703  -0.40252  -0.40128
 Alpha  occ. eigenvalues --   -0.39753  -0.39561  -0.39528  -0.39289  -0.38822
 Alpha  occ. eigenvalues --   -0.38747  -0.38221  -0.37978  -0.37807  -0.37129
 Alpha  occ. eigenvalues --   -0.37094  -0.36823  -0.36674  -0.36585  -0.36435
 Alpha  occ. eigenvalues --   -0.36242  -0.35884  -0.35428  -0.34587  -0.34579
 Alpha  occ. eigenvalues --   -0.34283  -0.33309  -0.32773  -0.31427  -0.31039
 Alpha  occ. eigenvalues --   -0.30592  -0.30303  -0.30043  -0.29801  -0.24193
 Alpha  occ. eigenvalues --   -0.21320
 Alpha virt. eigenvalues --   -0.08809  -0.01530   0.00541   0.01661   0.02681
 Alpha virt. eigenvalues --    0.05278   0.05378   0.05570   0.06265   0.06975
 Alpha virt. eigenvalues --    0.07785   0.08599   0.08674   0.08842   0.09443

 Mulliken charges:
               1
     1  Mg   0.832888
     2  C    0.025827
     3  C   -0.055686
     4  C   -0.091668
     5  C   -0.068864
     6  N   -0.259697
     7  C   -0.084274
     8  C    0.013508
     9  C   -0.052255
    10  C   -0.050755
    11  C    0.077634
    12  C    0.073463
    13  C   -0.005597
    14  C    0.164312
    15  O   -0.248787
    16  O   -0.352242
    17  N   -0.400135
    18  C    0.180242
    19  C   -0.154440
    20  C   -0.056489
    21  C    0.182728
    22  C    0.145870
    23  C   -0.041152
    24  O   -0.168792
    25  C    0.071808
    26  N   -0.313375
    27  C    0.074624
    28  C   -0.063952
    29  C   -0.024704
    30  C    0.015542
    31  C    0.069686
    32  C    0.045446
    33  C   -0.008993
    34  N   -0.296675
    35  C    0.064532
    36  C   -0.200136
    37  C    0.013240
    38  C    0.091848
    39  C    0.141018
    40  C    0.046088
    41  O   -0.180395
    42  C   -0.025405
    43  C    0.208651
    44  O   -0.216447
    45  O   -0.373410
    46  C    0.182069
    47  C    0.289686
    48  C   -0.112840
    49  C   -0.185273
    50  C    0.091326
    51  C    0.094899
    52  C   -0.002510
    53  C    0.046959
    54  C   -0.062516
    55  C    0.053482
    56  C   -0.013995
    57  C    0.007806
    58  C    0.084041
    59  C   -0.106970
    60  C    0.038161
    61  C    0.011629
    62  C    0.010367
    63  C    0.049115
    64  C   -0.142241
    65  C    0.041842
    66  C    0.039450
    67  H   -0.028612
    68  H   -0.055547
    69  H   -0.031966
    70  H    0.017808
    71  H    0.021744
    72  H    0.039349
    73  H    0.027690
    74  H    0.013211
    75  H    0.032676
    76  H    0.029044
    77  H    0.047227
    78  H    0.042283
    79  H    0.003318
    80  H    0.040463
    81  H    0.032015
    82  H    0.066785
    83  H    0.022591
    84  H    0.019008
    85  H    0.013152
    86  H    0.013835
    87  H    0.030326
    88  H    0.012559
    89  H    0.025021
    90  H    0.024938
    91  H    0.010382
    92  H    0.009011
    93  H    0.030341
    94  H    0.008439
    95  H    0.005149
    96  H    0.037593
    97  H    0.043512
    98  H    0.038297
    99  H    0.047385
   100  H    0.037557
   101  H    0.050716
   102  H    0.037176
   103  H    0.016498
   104  H   -0.006086
   105  H    0.011886
   106  H    0.015156
   107  H    0.030849
   108  H   -0.001963
   109  H    0.004196
   110  H    0.005542
   111  H    0.006319
   112  H   -0.013333
   113  H   -0.007119
   114  H   -0.013498
   115  H    0.009506
   116  H    0.003919
   117  H    0.007094
   118  H   -0.018753
   119  H   -0.021288
   120  H   -0.005230
   121  H   -0.001990
   122  H   -0.006918
   123  H   -0.003189
   124  H   -0.004579
   125  H   -0.008470
   126  H    0.019722
   127  H    0.005498
   128  H   -0.006551
   129  H    0.005424
   130  H    0.000906
   131  H    0.008137
   132  H   -0.010829
   133  H   -0.013917
   134  H   -0.006898
   135  H    0.006595
   136  H    0.007709
   137  H    0.003772
   138  H    0.002746
   139  H    0.000725
   140  H    0.004819
 Sum of Mulliken charges =  -0.00000

 Dipole moment (field-independent basis, Debye):
    X=              1.6251    Y=              6.2670    Z=              0.4006  Tot=              6.4867
 Quadrupole moment (field-independent basis, Debye-Ang):
   XX=           -354.3330   YY=           -438.2139   ZZ=           -402.7980
   XY=             19.3990   XZ=              1.5310   YZ=             37.4696

 Normal termination of Gaussian 16 at Sat Apr 30 12:39:11 2022.
