 Gaussian 16, Revision A.03,
 Gaussian 16:  ES64L-G16RevA.03 25-Dec-2016

 ---------------------------------
 #p PBE1PBE/Def2SVP td=(nstates=5)
 ---------------------------------

 -----------------------------------------------------
 step_751_chromophore_14 TDDFT with PBE1PBE functional
 -----------------------------------------------------
 Symbolic Z-matrix:
 Charge =  0 Multiplicity = 1

                         Standard orientation:
 ---------------------------------------------------------------------
 Center     Atomic      Atomic             Coordinates (Angstroms)
 Number     Number       Type             X           Y           Z
 ---------------------------------------------------------------------
      1         12           0        5.478486    0.817325   -0.084515
      2          6           0        4.750560   -2.609630    0.301330
      3          6           0        4.169948    0.496060   -3.347950
      4          6           0        5.545807    4.142790   -0.365011
      5          6           0        5.789826    0.978119    3.377598
      6          7           0        4.572335   -0.912356   -1.340022
      7          6           0        4.403347   -2.248665   -0.967611
      8          6           0        3.790160   -3.109893   -2.150315
      9          6           0        3.666636   -2.088488   -3.345547
     10          6           0        4.163068   -0.725770   -2.627773
     11          6           0        4.394352   -2.459820   -4.698989
     12          6           0        2.502215   -3.898149   -1.800649
     13          6           0        1.476928   -3.042497   -0.975380
     14          6           0       -0.076254   -3.296820   -1.179244
     15          8           0       -0.591577   -4.331522   -1.611792
     16          8           0       -0.816956   -2.188520   -0.813807
     17          7           0        4.999400    2.083647   -1.662580
     18          6           0        4.448419    1.818797   -2.907627
     19          6           0        4.198841    3.067693   -3.586991
     20          6           0        4.666185    4.113473   -2.710232
     21          6           0        5.132053    3.454570   -1.511980
     22          6           0        3.685912    3.139319   -5.059200
     23          6           0        4.551065    5.611987   -3.021978
     24          8           0        4.167561    5.896305   -4.103958
     25          6           0        4.954072    6.797379   -2.071117
     26          7           0        5.461482    2.319894    1.338088
     27          6           0        5.706584    3.587780    0.904930
     28          6           0        5.951297    4.538687    2.123328
     29          6           0        6.061205    3.593526    3.347875
     30          6           0        5.716115    2.205400    2.654046
     31          6           0        7.090025    5.703616    1.965337
     32          6           0        5.075654    3.931868    4.576693
     33          6           0        5.857180    4.235906    5.882125
     34          7           0        5.497588   -0.576173    1.501647
     35          6           0        5.622999   -0.361983    2.852475
     36          6           0        5.602994   -1.594336    3.585806
     37          6           0        5.328111   -2.525839    2.623785
     38          6           0        5.284211   -1.860507    1.359232
     39          6           0        5.775283   -1.812308    5.069508
     40          6           0        5.008580   -3.933978    2.355772
     41          8           0        4.858753   -4.891463    3.126086
     42          6           0        4.671798   -4.002560    0.852129
     43          6           0        5.648095   -4.911055    0.199361
     44          8           0        5.353048   -6.076518   -0.005933
     45          8           0        6.962692   -4.415733    0.116194
     46          6           0        7.893016   -5.532393   -0.301186
     47          6           0       -2.314036   -2.383649   -0.877994
     48          6           0       -3.019953   -1.013562   -0.787677
     49          6           0       -3.975368   -0.395950   -1.505272
     50          6           0       -4.710108   -1.073624   -2.658164
     51          6           0       -4.512238    0.919694   -1.031034
     52          6           0       -5.565633    0.673884    0.077868
     53          6           0       -6.957310    1.084030   -0.284758
     54          6           0       -8.196173    0.342837    0.279715
     55          6           0       -8.171159    0.159920    1.777095
     56          6           0       -8.500524   -0.991867   -0.457384
     57          6           0       -9.976113   -1.229113   -0.837318
     58          6           0      -10.786017   -1.743032    0.414859
     59          6           0      -11.657241   -0.545314    1.055348
     60          6           0      -11.707417   -0.501746    2.639883
     61          6           0      -13.070741   -0.544872    0.511198
     62          6           0      -13.769246    0.884063    0.605508
     63          6           0      -15.262353    0.763892    0.080365
     64          6           0      -16.357601    1.569544    0.775145
     65          6           0      -17.684758    0.847738    1.132611
     66          6           0      -16.661189    2.882785    0.036345
     67          1           0        3.844585    0.236849   -4.358338
     68          1           0        5.664739    5.216723   -0.524692
     69          1           0        6.100090    0.980571    4.424482
     70          1           0        4.517917   -3.892535   -2.362110
     71          1           0        2.621427   -1.793710   -3.440608
     72          1           0        5.226743   -1.869682   -5.083158
     73          1           0        3.606482   -2.580022   -5.442797
     74          1           0        4.793346   -3.433161   -4.410654
     75          1           0        2.807212   -4.738509   -1.177980
     76          1           0        1.916248   -4.236594   -2.654434
     77          1           0        1.585274   -1.967173   -1.120638
     78          1           0        1.548757   -3.306106    0.079629
     79          1           0        3.507237    2.117605   -5.396933
     80          1           0        4.345429    3.695537   -5.724507
     81          1           0        2.757884    3.705692   -4.978040
     82          1           0        6.027827    6.973596   -2.020849
     83          1           0        4.417836    6.608776   -1.140146
     84          1           0        4.323834    7.627259   -2.391431
     85          1           0        4.968367    5.001150    2.213459
     86          1           0        7.128721    3.503117    3.547343
     87          1           0        7.929069    5.432752    1.323531
     88          1           0        7.452253    5.757116    2.991630
     89          1           0        6.617900    6.660951    1.745863
     90          1           0        4.385856    3.113149    4.783738
     91          1           0        4.478839    4.816508    4.351481
     92          1           0        5.585572    3.413739    6.544598
     93          1           0        5.678925    5.203792    6.349628
     94          1           0        6.916069    4.030553    5.720258
     95          1           0        5.766001   -0.869211    5.616757
     96          1           0        6.755302   -2.283704    5.135216
     97          1           0        4.978937   -2.467449    5.423654
     98          1           0        3.686346   -4.464596    0.897151
     99          1           0        7.979519   -6.211626    0.546962
    100          1           0        8.809056   -4.954787   -0.426256
    101          1           0        7.532965   -6.058082   -1.185625
    102          1           0       -2.704648   -3.067088   -0.124601
    103          1           0       -2.530876   -2.854572   -1.837402
    104          1           0       -2.698180   -0.504993    0.122113
    105          1           0       -4.200503   -1.964826   -3.024867
    106          1           0       -4.684211   -0.383899   -3.501929
    107          1           0       -5.724532   -1.279689   -2.313805
    108          1           0       -4.923493    1.520248   -1.842099
    109          1           0       -3.745215    1.555757   -0.591281
    110          1           0       -5.286714    1.174188    1.004428
    111          1           0       -5.574385   -0.406278    0.225274
    112          1           0       -6.969099    0.983684   -1.370769
    113          1           0       -7.032655    2.121612    0.041189
    114          1           0       -9.103527    0.870377   -0.014792
    115          1           0       -8.765708    0.958168    2.221118
    116          1           0       -7.177158    0.212836    2.220098
    117          1           0       -8.564338   -0.796730    2.122028
    118          1           0       -8.207413   -1.828828    0.176064
    119          1           0       -7.919172   -1.206438   -1.353864
    120          1           0       -9.884712   -1.847890   -1.730750
    121          1           0      -10.364989   -0.261345   -1.153466
    122          1           0      -10.088537   -2.183356    1.127601
    123          1           0      -11.411549   -2.559226    0.053686
    124          1           0      -11.224419    0.429690    0.829887
    125          1           0      -12.687448   -0.068830    2.840035
    126          1           0      -10.947957    0.104507    3.135063
    127          1           0      -11.782226   -1.516071    3.031014
    128          1           0      -13.662216   -1.164727    1.184671
    129          1           0      -13.206708   -1.001532   -0.468924
    130          1           0      -13.256279    1.574969   -0.062548
    131          1           0      -13.758035    1.336100    1.596575
    132          1           0      -15.558924   -0.281545    0.001046
    133          1           0      -15.302762    1.084064   -0.960990
    134          1           0      -15.875915    1.851387    1.711778
    135          1           0      -18.580732    1.464630    1.063870
    136          1           0      -17.575208    0.471726    2.150085
    137          1           0      -17.936323   -0.022088    0.525866
    138          1           0      -17.708268    3.176120   -0.026461
    139          1           0      -16.280371    2.806577   -0.982389
    140          1           0      -16.189444    3.733822    0.527842
 ---------------------------------------------------------------------

 SCF Done:  E(RPBE1PBE) =  -3005.35270071     A.U. after   15 cycles

 Excitation energies and oscillator strengths:

 Excited State   1:      Singlet-A      1.8701 eV  662.97 nm  f=0.3571  <S**2>=0.000
     245 -> 248        0.16962
     246 -> 247        0.69391
     246 <- 247       -0.10767
 This state for optimization and/or second-order correction.
 Total Energy, E(TD-HF/TD-DFT) =  -3005.28397481
 Copying the excited state density for this state as the 1-particle RhoCI density.

 Excited State   2:      Singlet-A      2.2526 eV  550.40 nm  f=0.1232  <S**2>=0.000
     245 -> 247        0.65510
     246 -> 248       -0.25473

 Excited State   3:      Singlet-A      2.9680 eV  417.73 nm  f=0.0022  <S**2>=0.000
     242 -> 247       -0.29548
     244 -> 247        0.62831

 Excited State   4:      Singlet-A      3.0009 eV  413.16 nm  f=0.0019  <S**2>=0.000
     242 -> 247        0.59590
     242 -> 249       -0.14568
     244 -> 247        0.30997

 Excited State   5:      Singlet-A      3.0842 eV  402.00 nm  f=0.0001  <S**2>=0.000
     241 -> 247        0.68172
     241 -> 249        0.10871
     241 -> 250        0.10795

 The electronic state is 1-A.
 Alpha  occ. eigenvalues --  -46.92814 -19.25483 -19.25263 -19.19907 -19.19609
 Alpha  occ. eigenvalues --  -19.19235 -19.19155 -14.42013 -14.41821 -14.39362
 Alpha  occ. eigenvalues --  -14.38885 -10.36284 -10.35939 -10.32461 -10.32130
 Alpha  occ. eigenvalues --  -10.29490 -10.29268 -10.29257 -10.29103 -10.28925
 Alpha  occ. eigenvalues --  -10.28855 -10.28055 -10.27926 -10.27417 -10.26931
 Alpha  occ. eigenvalues --  -10.26880 -10.26456 -10.26277 -10.26181 -10.26074
 Alpha  occ. eigenvalues --  -10.25404 -10.25281 -10.25176 -10.25080 -10.25044
 Alpha  occ. eigenvalues --  -10.25021 -10.24992 -10.24977 -10.24911 -10.24793
 Alpha  occ. eigenvalues --  -10.24562 -10.24536 -10.24521 -10.24175 -10.23871
 Alpha  occ. eigenvalues --  -10.23807 -10.23432 -10.23353 -10.23214 -10.23213
 Alpha  occ. eigenvalues --  -10.23199 -10.23123 -10.23101 -10.23084 -10.23056
 Alpha  occ. eigenvalues --  -10.22677 -10.22671 -10.22496 -10.22437 -10.22127
 Alpha  occ. eigenvalues --  -10.22119 -10.21958 -10.21762 -10.21710 -10.21634
 Alpha  occ. eigenvalues --  -10.21290  -3.14887  -1.87702  -1.87285  -1.87096
 Alpha  occ. eigenvalues --   -1.09819  -1.09426  -1.07366  -1.03613  -1.01729
 Alpha  occ. eigenvalues --   -1.01037  -0.99756  -0.98699  -0.97150  -0.96306
 Alpha  occ. eigenvalues --   -0.87533  -0.85113  -0.83595  -0.83152  -0.83011
 Alpha  occ. eigenvalues --   -0.82661  -0.82522  -0.81865  -0.81236  -0.80858
 Alpha  occ. eigenvalues --   -0.79393  -0.79094  -0.78590  -0.77533  -0.77399
 Alpha  occ. eigenvalues --   -0.76190  -0.75704  -0.75057  -0.74532  -0.74160
 Alpha  occ. eigenvalues --   -0.74001  -0.72383  -0.71793  -0.71360  -0.70627
 Alpha  occ. eigenvalues --   -0.70375  -0.69780  -0.69324  -0.68831  -0.68094
 Alpha  occ. eigenvalues --   -0.67759  -0.67037  -0.66281  -0.64888  -0.63489
 Alpha  occ. eigenvalues --   -0.63094  -0.62807  -0.61637  -0.61209  -0.60430
 Alpha  occ. eigenvalues --   -0.59839  -0.59687  -0.59486  -0.58622  -0.58001
 Alpha  occ. eigenvalues --   -0.57195  -0.57071  -0.56628  -0.56079  -0.54345
 Alpha  occ. eigenvalues --   -0.54168  -0.53913  -0.53434  -0.52365  -0.52224
 Alpha  occ. eigenvalues --   -0.51529  -0.50914  -0.50599  -0.49846  -0.49790
 Alpha  occ. eigenvalues --   -0.49539  -0.49296  -0.48591  -0.48503  -0.48217
 Alpha  occ. eigenvalues --   -0.47928  -0.47757  -0.47505  -0.47427  -0.47329
 Alpha  occ. eigenvalues --   -0.47226  -0.46916  -0.46597  -0.46411  -0.46177
 Alpha  occ. eigenvalues --   -0.46161  -0.45871  -0.45658  -0.45259  -0.45218
 Alpha  occ. eigenvalues --   -0.44566  -0.44364  -0.44351  -0.44198  -0.43911
 Alpha  occ. eigenvalues --   -0.43747  -0.43728  -0.43578  -0.43417  -0.43332
 Alpha  occ. eigenvalues --   -0.43227  -0.42925  -0.42555  -0.42397  -0.42221
 Alpha  occ. eigenvalues --   -0.42082  -0.41975  -0.41818  -0.41675  -0.41473
 Alpha  occ. eigenvalues --   -0.41340  -0.41122  -0.41091  -0.40860  -0.40495
 Alpha  occ. eigenvalues --   -0.40220  -0.39955  -0.39884  -0.39780  -0.39518
 Alpha  occ. eigenvalues --   -0.39135  -0.39100  -0.38893  -0.38698  -0.38596
 Alpha  occ. eigenvalues --   -0.38405  -0.38290  -0.37961  -0.37775  -0.37683
 Alpha  occ. eigenvalues --   -0.37631  -0.37570  -0.37354  -0.37270  -0.36890
 Alpha  occ. eigenvalues --   -0.36869  -0.36738  -0.36661  -0.36561  -0.36370
 Alpha  occ. eigenvalues --   -0.35994  -0.35843  -0.35465  -0.35109  -0.34991
 Alpha  occ. eigenvalues --   -0.34665  -0.34549  -0.34287  -0.34088  -0.33748
 Alpha  occ. eigenvalues --   -0.33609  -0.33051  -0.32980  -0.32637  -0.32185
 Alpha  occ. eigenvalues --   -0.31942  -0.31627  -0.31624  -0.31491  -0.31389
 Alpha  occ. eigenvalues --   -0.31199  -0.30788  -0.30319  -0.29785  -0.29530
 Alpha  occ. eigenvalues --   -0.29394  -0.28211  -0.28135  -0.27056  -0.26121
 Alpha  occ. eigenvalues --   -0.25729  -0.25528  -0.25327  -0.25233  -0.21102
 Alpha  occ. eigenvalues --   -0.18950
 Alpha virt. eigenvalues --   -0.11289  -0.05047  -0.03702  -0.01797  -0.01080
 Alpha virt. eigenvalues --    0.00627   0.00859   0.01401   0.01611   0.03049
 Alpha virt. eigenvalues --    0.04076   0.04903   0.05204   0.05333   0.05977

 Mulliken charges:
               1
     1  Mg   0.974981
     2  C   -0.020138
     3  C   -0.056872
     4  C   -0.077851
     5  C   -0.058354
     6  N   -0.357506
     7  C   -0.010497
     8  C   -0.049001
     9  C   -0.126584
    10  C   -0.003016
    11  C    0.014294
    12  C    0.019510
    13  C   -0.083160
    14  C    0.231105
    15  O   -0.280376
    16  O   -0.380568
    17  N   -0.515919
    18  C    0.201015
    19  C   -0.176402
    20  C   -0.106389
    21  C    0.205280
    22  C    0.085038
    23  C    0.014632
    24  O   -0.201728
    25  C   -0.013469
    26  N   -0.420189
    27  C    0.104302
    28  C   -0.127020
    29  C   -0.108647
    30  C    0.057423
    31  C    0.002578
    32  C   -0.011881
    33  C   -0.080863
    34  N   -0.425640
    35  C    0.085861
    36  C   -0.221008
    37  C   -0.038618
    38  C    0.174317
    39  C    0.086645
    40  C    0.147923
    41  O   -0.224666
    42  C   -0.135746
    43  C    0.298329
    44  O   -0.250699
    45  O   -0.400405
    46  C    0.124468
    47  C    0.247385
    48  C   -0.117644
    49  C   -0.242087
    50  C    0.022987
    51  C    0.035173
    52  C   -0.064961
    53  C   -0.008249
    54  C   -0.152278
    55  C   -0.004273
    56  C   -0.071728
    57  C   -0.056989
    58  C    0.030102
    59  C   -0.194453
    60  C   -0.023983
    61  C   -0.044992
    62  C   -0.051171
    63  C   -0.000090
    64  C   -0.239113
    65  C   -0.017567
    66  C   -0.018662
    67  H    0.004092
    68  H   -0.014799
    69  H    0.002070
    70  H    0.057067
    71  H    0.059736
    72  H    0.064981
    73  H    0.055096
    74  H    0.041465
    75  H    0.065693
    76  H    0.061198
    77  H    0.079626
    78  H    0.076236
    79  H    0.031571
    80  H    0.066786
    81  H    0.059662
    82  H    0.092098
    83  H    0.049475
    84  H    0.047261
    85  H    0.052422
    86  H    0.051635
    87  H    0.057564
    88  H    0.041854
    89  H    0.052007
    90  H    0.056057
    91  H    0.042613
    92  H    0.036712
    93  H    0.057302
    94  H    0.036080
    95  H    0.032623
    96  H    0.066632
    97  H    0.070993
    98  H    0.074998
    99  H    0.069862
   100  H    0.059469
   101  H    0.072102
   102  H    0.063309
   103  H    0.043779
   104  H    0.024169
   105  H    0.039381
   106  H    0.043356
   107  H    0.063847
   108  H    0.029612
   109  H    0.037155
   110  H    0.037079
   111  H    0.041948
   112  H    0.020164
   113  H    0.026816
   114  H    0.025673
   115  H    0.036596
   116  H    0.031819
   117  H    0.034452
   118  H    0.015338
   119  H    0.016504
   120  H    0.027112
   121  H    0.031687
   122  H    0.023575
   123  H    0.029150
   124  H    0.035302
   125  H    0.020686
   126  H    0.047232
   127  H    0.033978
   128  H    0.028561
   129  H    0.036914
   130  H    0.034157
   131  H    0.037309
   132  H    0.021065
   133  H    0.019058
   134  H    0.032677
   135  H    0.033246
   136  H    0.035326
   137  H    0.030715
   138  H    0.029420
   139  H    0.027340
   140  H    0.032359
 Sum of Mulliken charges =  -0.00000

 Dipole moment (field-independent basis, Debye):
    X=              1.6195    Y=              6.1063    Z=              0.7818  Tot=              6.3656
 Quadrupole moment (field-independent basis, Debye-Ang):
   XX=           -350.4664   YY=           -435.4398   ZZ=           -398.4970
   XY=             18.9135   XZ=              3.9172   YZ=             38.5852

 Normal termination of Gaussian 16 at Sat Apr 30 12:59:48 2022.
