 Gaussian 16, Revision A.03,
 Gaussian 16:  ES64L-G16RevA.03 25-Dec-2016

 --------------------------------
 #p wB97XD/Def2SVP td=(nstates=5)
 --------------------------------

 ----------------------------------------------------
 step_751_chromophore_14 TDDFT with wB97XD functional
 ----------------------------------------------------
 Symbolic Z-matrix:
 Charge =  0 Multiplicity = 1

                         Standard orientation:
 ---------------------------------------------------------------------
 Center     Atomic      Atomic             Coordinates (Angstroms)
 Number     Number       Type             X           Y           Z
 ---------------------------------------------------------------------
      1         12           0        5.478486    0.817325   -0.084515
      2          6           0        4.750560   -2.609630    0.301330
      3          6           0        4.169948    0.496060   -3.347950
      4          6           0        5.545807    4.142790   -0.365011
      5          6           0        5.789826    0.978119    3.377598
      6          7           0        4.572335   -0.912356   -1.340022
      7          6           0        4.403347   -2.248665   -0.967611
      8          6           0        3.790160   -3.109893   -2.150315
      9          6           0        3.666636   -2.088488   -3.345547
     10          6           0        4.163068   -0.725770   -2.627773
     11          6           0        4.394352   -2.459820   -4.698989
     12          6           0        2.502215   -3.898149   -1.800649
     13          6           0        1.476928   -3.042497   -0.975380
     14          6           0       -0.076254   -3.296820   -1.179244
     15          8           0       -0.591577   -4.331522   -1.611792
     16          8           0       -0.816956   -2.188520   -0.813807
     17          7           0        4.999400    2.083647   -1.662580
     18          6           0        4.448419    1.818797   -2.907627
     19          6           0        4.198841    3.067693   -3.586991
     20          6           0        4.666185    4.113473   -2.710232
     21          6           0        5.132053    3.454570   -1.511980
     22          6           0        3.685912    3.139319   -5.059200
     23          6           0        4.551065    5.611987   -3.021978
     24          8           0        4.167561    5.896305   -4.103958
     25          6           0        4.954072    6.797379   -2.071117
     26          7           0        5.461482    2.319894    1.338088
     27          6           0        5.706584    3.587780    0.904930
     28          6           0        5.951297    4.538687    2.123328
     29          6           0        6.061205    3.593526    3.347875
     30          6           0        5.716115    2.205400    2.654046
     31          6           0        7.090025    5.703616    1.965337
     32          6           0        5.075654    3.931868    4.576693
     33          6           0        5.857180    4.235906    5.882125
     34          7           0        5.497588   -0.576173    1.501647
     35          6           0        5.622999   -0.361983    2.852475
     36          6           0        5.602994   -1.594336    3.585806
     37          6           0        5.328111   -2.525839    2.623785
     38          6           0        5.284211   -1.860507    1.359232
     39          6           0        5.775283   -1.812308    5.069508
     40          6           0        5.008580   -3.933978    2.355772
     41          8           0        4.858753   -4.891463    3.126086
     42          6           0        4.671798   -4.002560    0.852129
     43          6           0        5.648095   -4.911055    0.199361
     44          8           0        5.353048   -6.076518   -0.005933
     45          8           0        6.962692   -4.415733    0.116194
     46          6           0        7.893016   -5.532393   -0.301186
     47          6           0       -2.314036   -2.383649   -0.877994
     48          6           0       -3.019953   -1.013562   -0.787677
     49          6           0       -3.975368   -0.395950   -1.505272
     50          6           0       -4.710108   -1.073624   -2.658164
     51          6           0       -4.512238    0.919694   -1.031034
     52          6           0       -5.565633    0.673884    0.077868
     53          6           0       -6.957310    1.084030   -0.284758
     54          6           0       -8.196173    0.342837    0.279715
     55          6           0       -8.171159    0.159920    1.777095
     56          6           0       -8.500524   -0.991867   -0.457384
     57          6           0       -9.976113   -1.229113   -0.837318
     58          6           0      -10.786017   -1.743032    0.414859
     59          6           0      -11.657241   -0.545314    1.055348
     60          6           0      -11.707417   -0.501746    2.639883
     61          6           0      -13.070741   -0.544872    0.511198
     62          6           0      -13.769246    0.884063    0.605508
     63          6           0      -15.262353    0.763892    0.080365
     64          6           0      -16.357601    1.569544    0.775145
     65          6           0      -17.684758    0.847738    1.132611
     66          6           0      -16.661189    2.882785    0.036345
     67          1           0        3.844585    0.236849   -4.358338
     68          1           0        5.664739    5.216723   -0.524692
     69          1           0        6.100090    0.980571    4.424482
     70          1           0        4.517917   -3.892535   -2.362110
     71          1           0        2.621427   -1.793710   -3.440608
     72          1           0        5.226743   -1.869682   -5.083158
     73          1           0        3.606482   -2.580022   -5.442797
     74          1           0        4.793346   -3.433161   -4.410654
     75          1           0        2.807212   -4.738509   -1.177980
     76          1           0        1.916248   -4.236594   -2.654434
     77          1           0        1.585274   -1.967173   -1.120638
     78          1           0        1.548757   -3.306106    0.079629
     79          1           0        3.507237    2.117605   -5.396933
     80          1           0        4.345429    3.695537   -5.724507
     81          1           0        2.757884    3.705692   -4.978040
     82          1           0        6.027827    6.973596   -2.020849
     83          1           0        4.417836    6.608776   -1.140146
     84          1           0        4.323834    7.627259   -2.391431
     85          1           0        4.968367    5.001150    2.213459
     86          1           0        7.128721    3.503117    3.547343
     87          1           0        7.929069    5.432752    1.323531
     88          1           0        7.452253    5.757116    2.991630
     89          1           0        6.617900    6.660951    1.745863
     90          1           0        4.385856    3.113149    4.783738
     91          1           0        4.478839    4.816508    4.351481
     92          1           0        5.585572    3.413739    6.544598
     93          1           0        5.678925    5.203792    6.349628
     94          1           0        6.916069    4.030553    5.720258
     95          1           0        5.766001   -0.869211    5.616757
     96          1           0        6.755302   -2.283704    5.135216
     97          1           0        4.978937   -2.467449    5.423654
     98          1           0        3.686346   -4.464596    0.897151
     99          1           0        7.979519   -6.211626    0.546962
    100          1           0        8.809056   -4.954787   -0.426256
    101          1           0        7.532965   -6.058082   -1.185625
    102          1           0       -2.704648   -3.067088   -0.124601
    103          1           0       -2.530876   -2.854572   -1.837402
    104          1           0       -2.698180   -0.504993    0.122113
    105          1           0       -4.200503   -1.964826   -3.024867
    106          1           0       -4.684211   -0.383899   -3.501929
    107          1           0       -5.724532   -1.279689   -2.313805
    108          1           0       -4.923493    1.520248   -1.842099
    109          1           0       -3.745215    1.555757   -0.591281
    110          1           0       -5.286714    1.174188    1.004428
    111          1           0       -5.574385   -0.406278    0.225274
    112          1           0       -6.969099    0.983684   -1.370769
    113          1           0       -7.032655    2.121612    0.041189
    114          1           0       -9.103527    0.870377   -0.014792
    115          1           0       -8.765708    0.958168    2.221118
    116          1           0       -7.177158    0.212836    2.220098
    117          1           0       -8.564338   -0.796730    2.122028
    118          1           0       -8.207413   -1.828828    0.176064
    119          1           0       -7.919172   -1.206438   -1.353864
    120          1           0       -9.884712   -1.847890   -1.730750
    121          1           0      -10.364989   -0.261345   -1.153466
    122          1           0      -10.088537   -2.183356    1.127601
    123          1           0      -11.411549   -2.559226    0.053686
    124          1           0      -11.224419    0.429690    0.829887
    125          1           0      -12.687448   -0.068830    2.840035
    126          1           0      -10.947957    0.104507    3.135063
    127          1           0      -11.782226   -1.516071    3.031014
    128          1           0      -13.662216   -1.164727    1.184671
    129          1           0      -13.206708   -1.001532   -0.468924
    130          1           0      -13.256279    1.574969   -0.062548
    131          1           0      -13.758035    1.336100    1.596575
    132          1           0      -15.558924   -0.281545    0.001046
    133          1           0      -15.302762    1.084064   -0.960990
    134          1           0      -15.875915    1.851387    1.711778
    135          1           0      -18.580732    1.464630    1.063870
    136          1           0      -17.575208    0.471726    2.150085
    137          1           0      -17.936323   -0.022088    0.525866
    138          1           0      -17.708268    3.176120   -0.026461
    139          1           0      -16.280371    2.806577   -0.982389
    140          1           0      -16.189444    3.733822    0.527842
 ---------------------------------------------------------------------

 SCF Done:  E(RwB97XD) =  -3007.86583923     A.U. after   18 cycles

 Excitation energies and oscillator strengths:

 Excited State   1:      Singlet-A      1.6712 eV  741.87 nm  f=0.3728  <S**2>=0.000
     245 -> 248        0.17923
     246 -> 247        0.68501
     245 <- 248        0.11535
 This state for optimization and/or second-order correction.
 Total Energy, E(TD-HF/TD-DFT) =  -3007.80442248
 Copying the excited state density for this state as the 1-particle RhoCI density.

 Excited State   2:      Singlet-A      2.1957 eV  564.67 nm  f=0.1200  <S**2>=0.000
     245 -> 247        0.64095
     246 -> 248       -0.28405

 Excited State   3:      Singlet-A      3.3009 eV  375.61 nm  f=0.0003  <S**2>=0.000
     244 -> 247        0.67353

 Excited State   4:      Singlet-A      3.5472 eV  349.53 nm  f=0.0688  <S**2>=0.000
     241 -> 247        0.20400
     241 -> 249       -0.21021
     241 -> 250        0.10994
     242 -> 247        0.46230
     242 -> 249       -0.23598
     246 -> 248        0.26555

 Excited State   5:      Singlet-A      3.6321 eV  341.36 nm  f=0.3595  <S**2>=0.000
     241 -> 247       -0.40304
     241 -> 249        0.17559
     245 -> 247        0.19461
     246 -> 248        0.46648

 The electronic state is 1-A.
 Alpha  occ. eigenvalues --  -46.95767 -19.30031 -19.29811 -19.24580 -19.24247
 Alpha  occ. eigenvalues --  -19.24196 -19.23803 -14.47013 -14.47007 -14.44420
 Alpha  occ. eigenvalues --  -14.43725 -10.43027 -10.42734 -10.39394 -10.38843
 Alpha  occ. eigenvalues --  -10.36003 -10.35755 -10.35567 -10.35421 -10.35331
 Alpha  occ. eigenvalues --  -10.34984 -10.34681 -10.34591 -10.33415 -10.33242
 Alpha  occ. eigenvalues --  -10.33119 -10.32922 -10.32599 -10.32523 -10.32132
 Alpha  occ. eigenvalues --  -10.31761 -10.31690 -10.31628 -10.31402 -10.31331
 Alpha  occ. eigenvalues --  -10.31321 -10.31315 -10.31286 -10.31199 -10.31151
 Alpha  occ. eigenvalues --  -10.31142 -10.30972 -10.30956 -10.30825 -10.30163
 Alpha  occ. eigenvalues --  -10.30069 -10.30022 -10.29904 -10.29590 -10.29563
 Alpha  occ. eigenvalues --  -10.29543 -10.29484 -10.29427 -10.29417 -10.29361
 Alpha  occ. eigenvalues --  -10.29046 -10.28836 -10.28821 -10.28759 -10.28513
 Alpha  occ. eigenvalues --  -10.28479 -10.28398 -10.28131 -10.28111 -10.28100
 Alpha  occ. eigenvalues --  -10.27707  -3.21714  -1.95273  -1.94859  -1.94667
 Alpha  occ. eigenvalues --   -1.17205  -1.16792  -1.14953  -1.10956  -1.09074
 Alpha  occ. eigenvalues --   -1.08362  -1.06925  -1.06026  -1.04695  -1.03800
 Alpha  occ. eigenvalues --   -0.95068  -0.92791  -0.91278  -0.90810  -0.90686
 Alpha  occ. eigenvalues --   -0.90326  -0.90092  -0.89309  -0.88901  -0.88457
 Alpha  occ. eigenvalues --   -0.87256  -0.86764  -0.86252  -0.85121  -0.85030
 Alpha  occ. eigenvalues --   -0.83860  -0.83449  -0.82791  -0.82175  -0.81761
 Alpha  occ. eigenvalues --   -0.81677  -0.79990  -0.79474  -0.79039  -0.78237
 Alpha  occ. eigenvalues --   -0.78067  -0.77394  -0.77017  -0.76521  -0.75764
 Alpha  occ. eigenvalues --   -0.75313  -0.74652  -0.73845  -0.72511  -0.71029
 Alpha  occ. eigenvalues --   -0.70729  -0.70287  -0.69283  -0.68833  -0.67902
 Alpha  occ. eigenvalues --   -0.67370  -0.67240  -0.67049  -0.66050  -0.65693
 Alpha  occ. eigenvalues --   -0.64711  -0.64626  -0.64058  -0.63683  -0.61731
 Alpha  occ. eigenvalues --   -0.61633  -0.61420  -0.60796  -0.59731  -0.59640
 Alpha  occ. eigenvalues --   -0.59017  -0.58410  -0.58040  -0.57336  -0.57265
 Alpha  occ. eigenvalues --   -0.56896  -0.56740  -0.56034  -0.55902  -0.55522
 Alpha  occ. eigenvalues --   -0.55502  -0.55170  -0.54953  -0.54821  -0.54680
 Alpha  occ. eigenvalues --   -0.54557  -0.54284  -0.53954  -0.53766  -0.53552
 Alpha  occ. eigenvalues --   -0.53505  -0.53197  -0.53024  -0.52572  -0.52449
 Alpha  occ. eigenvalues --   -0.51968  -0.51831  -0.51709  -0.51614  -0.51382
 Alpha  occ. eigenvalues --   -0.51088  -0.50995  -0.50821  -0.50689  -0.50628
 Alpha  occ. eigenvalues --   -0.50463  -0.50174  -0.49789  -0.49637  -0.49477
 Alpha  occ. eigenvalues --   -0.49377  -0.49234  -0.49084  -0.49023  -0.48709
 Alpha  occ. eigenvalues --   -0.48539  -0.48388  -0.48321  -0.48099  -0.47704
 Alpha  occ. eigenvalues --   -0.47449  -0.47223  -0.47094  -0.46948  -0.46681
 Alpha  occ. eigenvalues --   -0.46487  -0.46183  -0.46060  -0.45813  -0.45732
 Alpha  occ. eigenvalues --   -0.45424  -0.45417  -0.45084  -0.44979  -0.44806
 Alpha  occ. eigenvalues --   -0.44792  -0.44724  -0.44488  -0.44409  -0.44001
 Alpha  occ. eigenvalues --   -0.43919  -0.43838  -0.43736  -0.43629  -0.43417
 Alpha  occ. eigenvalues --   -0.43085  -0.42888  -0.42566  -0.42118  -0.42040
 Alpha  occ. eigenvalues --   -0.41660  -0.41467  -0.41377  -0.41131  -0.40666
 Alpha  occ. eigenvalues --   -0.40645  -0.40074  -0.39896  -0.39657  -0.39281
 Alpha  occ. eigenvalues --   -0.38929  -0.38666  -0.38657  -0.38419  -0.38405
 Alpha  occ. eigenvalues --   -0.38250  -0.37724  -0.37276  -0.36584  -0.36414
 Alpha  occ. eigenvalues --   -0.36323  -0.35220  -0.34947  -0.33638  -0.33006
 Alpha  occ. eigenvalues --   -0.32603  -0.32385  -0.32057  -0.32027  -0.26121
 Alpha  occ. eigenvalues --   -0.23137
 Alpha virt. eigenvalues --   -0.07159   0.00385   0.02664   0.04639   0.04949
 Alpha virt. eigenvalues --    0.07441   0.07566   0.08092   0.08535   0.09611
 Alpha virt. eigenvalues --    0.10623   0.11646   0.11952   0.11973   0.12719

 Mulliken charges:
               1
     1  Mg   0.967042
     2  C   -0.002044
     3  C   -0.069073
     4  C   -0.095134
     5  C   -0.076062
     6  N   -0.323815
     7  C   -0.048341
     8  C   -0.023462
     9  C   -0.102039
    10  C   -0.020858
    11  C    0.025845
    12  C    0.031182
    13  C   -0.063527
    14  C    0.222078
    15  O   -0.278653
    16  O   -0.381066
    17  N   -0.484810
    18  C    0.197100
    19  C   -0.169435
    20  C   -0.099598
    21  C    0.204978
    22  C    0.098855
    23  C    0.006451
    24  O   -0.198176
    25  C    0.005626
    26  N   -0.387959
    27  C    0.096654
    28  C   -0.107795
    29  C   -0.079526
    30  C    0.042596
    31  C    0.018148
    32  C    0.000537
    33  C   -0.063992
    34  N   -0.385998
    35  C    0.076956
    36  C   -0.217383
    37  C   -0.033898
    38  C    0.141191
    39  C    0.099352
    40  C    0.125415
    41  O   -0.216231
    42  C   -0.095345
    43  C    0.274538
    44  O   -0.245767
    45  O   -0.401331
    46  C    0.140239
    47  C    0.264630
    48  C   -0.133253
    49  C   -0.217668
    50  C    0.041822
    51  C    0.047681
    52  C   -0.048445
    53  C    0.011075
    54  C   -0.120563
    55  C    0.007291
    56  C   -0.051883
    57  C   -0.035323
    58  C    0.041208
    59  C   -0.161454
    60  C   -0.007491
    61  C   -0.025459
    62  C   -0.035577
    63  C    0.013002
    64  C   -0.208609
    65  C   -0.005480
    66  C   -0.005926
    67  H   -0.003567
    68  H   -0.031738
    69  H   -0.006062
    70  H    0.044794
    71  H    0.047859
    72  H    0.060723
    73  H    0.050312
    74  H    0.034865
    75  H    0.057102
    76  H    0.054687
    77  H    0.070430
    78  H    0.068086
    79  H    0.026298
    80  H    0.064314
    81  H    0.055704
    82  H    0.089379
    83  H    0.042904
    84  H    0.045618
    85  H    0.039572
    86  H    0.038914
    87  H    0.052379
    88  H    0.034473
    89  H    0.046627
    90  H    0.048737
    91  H    0.034657
    92  H    0.030443
    93  H    0.052671
    94  H    0.028236
    95  H    0.026248
    96  H    0.060527
    97  H    0.066251
    98  H    0.067228
    99  H    0.065701
   100  H    0.056690
   101  H    0.067686
   102  H    0.059607
   103  H    0.035719
   104  H    0.020901
   105  H    0.034219
   106  H    0.037594
   107  H    0.051282
   108  H    0.022047
   109  H    0.031445
   110  H    0.030386
   111  H    0.026699
   112  H    0.007085
   113  H    0.019293
   114  H    0.010556
   115  H    0.030788
   116  H    0.026282
   117  H    0.025005
   118  H    0.003164
   119  H    0.003281
   120  H    0.021487
   121  H    0.018857
   122  H    0.013407
   123  H    0.022474
   124  H    0.015598
   125  H    0.011586
   126  H    0.040980
   127  H    0.027969
   128  H    0.015773
   129  H    0.029131
   130  H    0.025953
   131  H    0.027624
   132  H    0.011401
   133  H    0.008970
   134  H    0.019752
   135  H    0.027292
   136  H    0.029599
   137  H    0.024696
   138  H    0.023397
   139  H    0.020040
   140  H    0.026866
 Sum of Mulliken charges =  -0.00000

 Dipole moment (field-independent basis, Debye):
    X=              1.6372    Y=              6.4265    Z=              0.3065  Tot=              6.6388
 Quadrupole moment (field-independent basis, Debye-Ang):
   XX=           -349.9388   YY=           -434.2916   ZZ=           -398.3637
   XY=             20.0809   XZ=              1.3123   YZ=             37.7439

 Normal termination of Gaussian 16 at Sat Apr 30 13:33:36 2022.
