 Gaussian 16, Revision A.03,
 Gaussian 16:  ES64L-G16RevA.03 25-Dec-2016

 --------------------
 #p ZINDO=(nstates=5)
 --------------------

 -----------------------------
 step_751_chromophore_14 ZINDO
 -----------------------------
 Symbolic Z-matrix:
 Charge =  0 Multiplicity = 1

                         Standard orientation:
 ---------------------------------------------------------------------
 Center     Atomic      Atomic             Coordinates (Angstroms)
 Number     Number       Type             X           Y           Z
 ---------------------------------------------------------------------
      1         12           0        5.478486    0.817325   -0.084515
      2          6           0        4.750560   -2.609630    0.301330
      3          6           0        4.169948    0.496060   -3.347950
      4          6           0        5.545807    4.142790   -0.365011
      5          6           0        5.789826    0.978119    3.377598
      6          7           0        4.572335   -0.912356   -1.340022
      7          6           0        4.403347   -2.248665   -0.967611
      8          6           0        3.790160   -3.109893   -2.150315
      9          6           0        3.666636   -2.088488   -3.345547
     10          6           0        4.163068   -0.725770   -2.627773
     11          6           0        4.394352   -2.459820   -4.698989
     12          6           0        2.502215   -3.898149   -1.800649
     13          6           0        1.476928   -3.042497   -0.975380
     14          6           0       -0.076254   -3.296820   -1.179244
     15          8           0       -0.591577   -4.331522   -1.611792
     16          8           0       -0.816956   -2.188520   -0.813807
     17          7           0        4.999400    2.083647   -1.662580
     18          6           0        4.448419    1.818797   -2.907627
     19          6           0        4.198841    3.067693   -3.586991
     20          6           0        4.666185    4.113473   -2.710232
     21          6           0        5.132053    3.454570   -1.511980
     22          6           0        3.685912    3.139319   -5.059200
     23          6           0        4.551065    5.611987   -3.021978
     24          8           0        4.167561    5.896305   -4.103958
     25          6           0        4.954072    6.797379   -2.071117
     26          7           0        5.461482    2.319894    1.338088
     27          6           0        5.706584    3.587780    0.904930
     28          6           0        5.951297    4.538687    2.123328
     29          6           0        6.061205    3.593526    3.347875
     30          6           0        5.716115    2.205400    2.654046
     31          6           0        7.090025    5.703616    1.965337
     32          6           0        5.075654    3.931868    4.576693
     33          6           0        5.857180    4.235906    5.882125
     34          7           0        5.497588   -0.576173    1.501647
     35          6           0        5.622999   -0.361983    2.852475
     36          6           0        5.602994   -1.594336    3.585806
     37          6           0        5.328111   -2.525839    2.623785
     38          6           0        5.284211   -1.860507    1.359232
     39          6           0        5.775283   -1.812308    5.069508
     40          6           0        5.008580   -3.933978    2.355772
     41          8           0        4.858753   -4.891463    3.126086
     42          6           0        4.671798   -4.002560    0.852129
     43          6           0        5.648095   -4.911055    0.199361
     44          8           0        5.353048   -6.076518   -0.005933
     45          8           0        6.962692   -4.415733    0.116194
     46          6           0        7.893016   -5.532393   -0.301186
     47          6           0       -2.314036   -2.383649   -0.877994
     48          6           0       -3.019953   -1.013562   -0.787677
     49          6           0       -3.975368   -0.395950   -1.505272
     50          6           0       -4.710108   -1.073624   -2.658164
     51          6           0       -4.512238    0.919694   -1.031034
     52          6           0       -5.565633    0.673884    0.077868
     53          6           0       -6.957310    1.084030   -0.284758
     54          6           0       -8.196173    0.342837    0.279715
     55          6           0       -8.171159    0.159920    1.777095
     56          6           0       -8.500524   -0.991867   -0.457384
     57          6           0       -9.976113   -1.229113   -0.837318
     58          6           0      -10.786017   -1.743032    0.414859
     59          6           0      -11.657241   -0.545314    1.055348
     60          6           0      -11.707417   -0.501746    2.639883
     61          6           0      -13.070741   -0.544872    0.511198
     62          6           0      -13.769246    0.884063    0.605508
     63          6           0      -15.262353    0.763892    0.080365
     64          6           0      -16.357601    1.569544    0.775145
     65          6           0      -17.684758    0.847738    1.132611
     66          6           0      -16.661189    2.882785    0.036345
     67          1           0        3.844585    0.236849   -4.358338
     68          1           0        5.664739    5.216723   -0.524692
     69          1           0        6.100090    0.980571    4.424482
     70          1           0        4.517917   -3.892535   -2.362110
     71          1           0        2.621427   -1.793710   -3.440608
     72          1           0        5.226743   -1.869682   -5.083158
     73          1           0        3.606482   -2.580022   -5.442797
     74          1           0        4.793346   -3.433161   -4.410654
     75          1           0        2.807212   -4.738509   -1.177980
     76          1           0        1.916248   -4.236594   -2.654434
     77          1           0        1.585274   -1.967173   -1.120638
     78          1           0        1.548757   -3.306106    0.079629
     79          1           0        3.507237    2.117605   -5.396933
     80          1           0        4.345429    3.695537   -5.724507
     81          1           0        2.757884    3.705692   -4.978040
     82          1           0        6.027827    6.973596   -2.020849
     83          1           0        4.417836    6.608776   -1.140146
     84          1           0        4.323834    7.627259   -2.391431
     85          1           0        4.968367    5.001150    2.213459
     86          1           0        7.128721    3.503117    3.547343
     87          1           0        7.929069    5.432752    1.323531
     88          1           0        7.452253    5.757116    2.991630
     89          1           0        6.617900    6.660951    1.745863
     90          1           0        4.385856    3.113149    4.783738
     91          1           0        4.478839    4.816508    4.351481
     92          1           0        5.585572    3.413739    6.544598
     93          1           0        5.678925    5.203792    6.349628
     94          1           0        6.916069    4.030553    5.720258
     95          1           0        5.766001   -0.869211    5.616757
     96          1           0        6.755302   -2.283704    5.135216
     97          1           0        4.978937   -2.467449    5.423654
     98          1           0        3.686346   -4.464596    0.897151
     99          1           0        7.979519   -6.211626    0.546962
    100          1           0        8.809056   -4.954787   -0.426256
    101          1           0        7.532965   -6.058082   -1.185625
    102          1           0       -2.704648   -3.067088   -0.124601
    103          1           0       -2.530876   -2.854572   -1.837402
    104          1           0       -2.698180   -0.504993    0.122113
    105          1           0       -4.200503   -1.964826   -3.024867
    106          1           0       -4.684211   -0.383899   -3.501929
    107          1           0       -5.724532   -1.279689   -2.313805
    108          1           0       -4.923493    1.520248   -1.842099
    109          1           0       -3.745215    1.555757   -0.591281
    110          1           0       -5.286714    1.174188    1.004428
    111          1           0       -5.574385   -0.406278    0.225274
    112          1           0       -6.969099    0.983684   -1.370769
    113          1           0       -7.032655    2.121612    0.041189
    114          1           0       -9.103527    0.870377   -0.014792
    115          1           0       -8.765708    0.958168    2.221118
    116          1           0       -7.177158    0.212836    2.220098
    117          1           0       -8.564338   -0.796730    2.122028
    118          1           0       -8.207413   -1.828828    0.176064
    119          1           0       -7.919172   -1.206438   -1.353864
    120          1           0       -9.884712   -1.847890   -1.730750
    121          1           0      -10.364989   -0.261345   -1.153466
    122          1           0      -10.088537   -2.183356    1.127601
    123          1           0      -11.411549   -2.559226    0.053686
    124          1           0      -11.224419    0.429690    0.829887
    125          1           0      -12.687448   -0.068830    2.840035
    126          1           0      -10.947957    0.104507    3.135063
    127          1           0      -11.782226   -1.516071    3.031014
    128          1           0      -13.662216   -1.164727    1.184671
    129          1           0      -13.206708   -1.001532   -0.468924
    130          1           0      -13.256279    1.574969   -0.062548
    131          1           0      -13.758035    1.336100    1.596575
    132          1           0      -15.558924   -0.281545    0.001046
    133          1           0      -15.302762    1.084064   -0.960990
    134          1           0      -15.875915    1.851387    1.711778
    135          1           0      -18.580732    1.464630    1.063870
    136          1           0      -17.575208    0.471726    2.150085
    137          1           0      -17.936323   -0.022088    0.525866
    138          1           0      -17.708268    3.176120   -0.026461
    139          1           0      -16.280371    2.806577   -0.982389
    140          1           0      -16.189444    3.733822    0.527842
 ---------------------------------------------------------------------

 SCF Done:  E(RZINDO/S) =  -473.874873577     A.U. after   20 cycles

 Excitation energies and oscillator strengths:

 Excited State   1:      Singlet-A      1.2692 eV  976.90 nm  f=0.5790  <S**2>=0.000
     175 ->178         0.18744
     176 ->177         0.66486
 This state for optimization and/or second-order correction.
 Total Energy, E(CIS/TDA) =  -473.828232615
 Copying the excited state density for this state as the 1-particle RhoCI density.

 Excited State   2:      Singlet-A      1.9158 eV  647.18 nm  f=0.0460  <S**2>=0.000
     175 ->177         0.54943
     176 ->178        -0.41961

 Excited State   3:      Singlet-A      2.9739 eV  416.90 nm  f=0.0147  <S**2>=0.000
     170 ->177         0.30575
     170 ->178        -0.12007
     170 ->179         0.42286
     170 ->181        -0.22376
     170 ->184        -0.12442
     170 ->185         0.17356
     170 ->187         0.16783

 Excited State   4:      Singlet-A      2.9962 eV  413.81 nm  f=0.0235  <S**2>=0.000
     168 ->177         0.29718
     168 ->178        -0.15440
     168 ->179        -0.28881
     168 ->181        -0.36611
     168 ->184        -0.15046
     168 ->185        -0.24327

 Excited State   5:      Singlet-A      3.0215 eV  410.34 nm  f=0.8499  <S**2>=0.000
     175 ->177         0.33728
     176 ->178         0.45318
     176 ->180         0.34037

 The electronic state is 1-A.
 Alpha  occ. eigenvalues --   -1.85901  -1.80631  -1.77519  -1.71544  -1.70304
 Alpha  occ. eigenvalues --   -1.68385  -1.66417  -1.62023  -1.60473  -1.57721
 Alpha  occ. eigenvalues --   -1.55763  -1.49904  -1.47570  -1.47070  -1.45828
 Alpha  occ. eigenvalues --   -1.44842  -1.42138  -1.39869  -1.38929  -1.37340
 Alpha  occ. eigenvalues --   -1.34696  -1.34006  -1.30403  -1.29619  -1.27921
 Alpha  occ. eigenvalues --   -1.27513  -1.26587  -1.21945  -1.20301  -1.18356
 Alpha  occ. eigenvalues --   -1.16616  -1.15389  -1.14648  -1.13005  -1.12402
 Alpha  occ. eigenvalues --   -1.11969  -1.10205  -1.09242  -1.05175  -1.04013
 Alpha  occ. eigenvalues --   -1.02826  -1.02211  -1.01107  -0.97735  -0.96390
 Alpha  occ. eigenvalues --   -0.96026  -0.95552  -0.93016  -0.92805  -0.91790
 Alpha  occ. eigenvalues --   -0.91252  -0.90870  -0.89113  -0.88639  -0.85855
 Alpha  occ. eigenvalues --   -0.84596  -0.83160  -0.83091  -0.81925  -0.80819
 Alpha  occ. eigenvalues --   -0.79696  -0.78516  -0.77441  -0.77023  -0.76551
 Alpha  occ. eigenvalues --   -0.75993  -0.74857  -0.73410  -0.73220  -0.73065
 Alpha  occ. eigenvalues --   -0.73014  -0.72372  -0.72085  -0.70840  -0.70698
 Alpha  occ. eigenvalues --   -0.70309  -0.69242  -0.68980  -0.68511  -0.67839
 Alpha  occ. eigenvalues --   -0.67560  -0.66917  -0.66263  -0.65792  -0.64824
 Alpha  occ. eigenvalues --   -0.64588  -0.64331  -0.64176  -0.63522  -0.63356
 Alpha  occ. eigenvalues --   -0.62938  -0.62824  -0.62549  -0.62405  -0.62080
 Alpha  occ. eigenvalues --   -0.61805  -0.61240  -0.61200  -0.61013  -0.60525
 Alpha  occ. eigenvalues --   -0.60093  -0.59834  -0.59005  -0.58321  -0.58246
 Alpha  occ. eigenvalues --   -0.57708  -0.57379  -0.57205  -0.56805  -0.56358
 Alpha  occ. eigenvalues --   -0.55822  -0.55700  -0.55522  -0.54896  -0.54472
 Alpha  occ. eigenvalues --   -0.54123  -0.54044  -0.53882  -0.53525  -0.53070
 Alpha  occ. eigenvalues --   -0.52872  -0.52727  -0.52619  -0.52180  -0.51756
 Alpha  occ. eigenvalues --   -0.51707  -0.51199  -0.50936  -0.50927  -0.50418
 Alpha  occ. eigenvalues --   -0.49717  -0.49623  -0.49493  -0.49317  -0.49073
 Alpha  occ. eigenvalues --   -0.48974  -0.48396  -0.48212  -0.48035  -0.47913
 Alpha  occ. eigenvalues --   -0.47525  -0.47424  -0.47343  -0.47068  -0.46868
 Alpha  occ. eigenvalues --   -0.46776  -0.46317  -0.45958  -0.45902  -0.45826
 Alpha  occ. eigenvalues --   -0.45700  -0.45092  -0.44476  -0.44364  -0.44289
 Alpha  occ. eigenvalues --   -0.43799  -0.43747  -0.43113  -0.43088  -0.42744
 Alpha  occ. eigenvalues --   -0.42171  -0.42048  -0.41926  -0.39302  -0.38370
 Alpha  occ. eigenvalues --   -0.38187  -0.37590  -0.35667  -0.34731  -0.34643
 Alpha  occ. eigenvalues --   -0.33664  -0.33062  -0.32845  -0.31982  -0.26999
 Alpha  occ. eigenvalues --   -0.22187
 Alpha virt. eigenvalues --   -0.08805  -0.02345  -0.00543   0.00709   0.01243
 Alpha virt. eigenvalues --    0.02421   0.02556   0.02883   0.04605   0.04941
 Alpha virt. eigenvalues --    0.06227   0.06597   0.07256   0.07370   0.07659

 Mulliken charges:
               1
     1  Mg   0.434560
     2  C   -0.022780
     3  C   -0.075705
     4  C   -0.092027
     5  C   -0.080663
     6  N   -0.292291
     7  C    0.086515
     8  C    0.009649
     9  C   -0.003783
    10  C    0.134996
    11  C   -0.050252
    12  C   -0.020100
    13  C    0.000270
    14  C    0.451872
    15  O   -0.521112
    16  O   -0.272231
    17  N   -0.339332
    18  C    0.127799
    19  C    0.035002
    20  C   -0.049209
    21  C    0.138833
    22  C   -0.037202
    23  C    0.318380
    24  O   -0.498336
    25  C   -0.037095
    26  N   -0.255099
    27  C    0.142570
    28  C   -0.015332
    29  C   -0.004756
    30  C    0.098143
    31  C   -0.058505
    32  C   -0.025802
    33  C   -0.064509
    34  N   -0.302533
    35  C    0.072537
    36  C    0.026209
    37  C   -0.058077
    38  C    0.103058
    39  C   -0.037903
    40  C    0.327698
    41  O   -0.523559
    42  C    0.055499
    43  C    0.476233
    44  O   -0.513470
    45  O   -0.283091
    46  C    0.074696
    47  C    0.105232
    48  C   -0.101307
    49  C    0.011739
    50  C   -0.043695
    51  C   -0.015417
    52  C   -0.025716
    53  C   -0.030124
    54  C   -0.007239
    55  C   -0.051813
    56  C   -0.042459
    57  C   -0.043119
    58  C   -0.033764
    59  C   -0.013137
    60  C   -0.067057
    61  C   -0.029703
    62  C   -0.040255
    63  C   -0.039285
    64  C   -0.004818
    65  C   -0.055427
    66  C   -0.058238
    67  H    0.028777
    68  H    0.038619
    69  H    0.028074
    70  H    0.032452
    71  H    0.037335
    72  H    0.038512
    73  H    0.025931
    74  H    0.022716
    75  H    0.035325
    76  H    0.039246
    77  H    0.042013
    78  H    0.046893
    79  H    0.024071
    80  H    0.045771
    81  H    0.039149
    82  H    0.056340
    83  H    0.028709
    84  H    0.036932
    85  H    0.029524
    86  H    0.039063
    87  H    0.035227
    88  H    0.016922
    89  H    0.028294
    90  H    0.031134
    91  H    0.021487
    92  H    0.015067
    93  H    0.031459
    94  H    0.018829
    95  H    0.021945
    96  H    0.037967
    97  H    0.039563
    98  H    0.063676
    99  H    0.050568
   100  H    0.029265
   101  H    0.055212
   102  H    0.054943
   103  H    0.044170
   104  H    0.016350
   105  H    0.026152
   106  H    0.022384
   107  H    0.037645
   108  H    0.019508
   109  H    0.018790
   110  H    0.020466
   111  H    0.020335
   112  H    0.015409
   113  H    0.012908
   114  H    0.019955
   115  H    0.013521
   116  H    0.017760
   117  H    0.020433
   118  H    0.008581
   119  H    0.009773
   120  H    0.022151
   121  H    0.017808
   122  H    0.025394
   123  H    0.019009
   124  H    0.020787
   125  H    0.015192
   126  H    0.027630
   127  H    0.020001
   128  H    0.012263
   129  H    0.024811
   130  H    0.016877
   131  H    0.030665
   132  H    0.015164
   133  H    0.012754
   134  H    0.014382
   135  H    0.021025
   136  H    0.013169
   137  H    0.017260
   138  H    0.017372
   139  H    0.017830
   140  H    0.013139
 Sum of Mulliken charges =  -0.00000

 Dipole moment (field-independent basis, Debye):
    X=              1.9952    Y=              9.2824    Z=              0.1365  Tot=              9.4954
 N-N= 4.283375571070D+03 E-N= 0.000000000000D+00  KE=-9.240472330585D+03
 Leave Link  601 at Sat Apr 30 13:50:07 2022, MaxMem=  6710886400 cpu:               1.0 elap:               0.1
 (Enter /sw/apps/gaussian-16.0/g16/l9999.exe)
 1\1\GINC-BP1-COMPUTE137\SP\RZINDO CIS\STO-3G\C55H74Mg1N4O6\OF15641\30-
 Apr-2022\0\\#p ZINDO=(nstates=5)\\step_751_chromophore_14 ZINDO\\0,1\M
 g,0,46.722,44.376,43.768\C,0,43.334,43.651,43.121\C,0,47.385,41.046,42
 .8\C,0,49.98,45.102,43.751\C,0,45.844,47.743,43.73\N,0,45.443,42.577,4
 3.049\C,0,44.056,42.517,42.889\C,0,43.585,41.075,42.425\C,0,44.916,40.
 23,42.386\C,0,46.004,41.367,42.763\C,0,44.967,38.911,43.256\C,0,42.725
 ,41.039,41.136\C,0,43.293,41.969,40.006\C,0,43.107,41.538,38.49\O,0,42

 Normal termination of Gaussian 16 at Sat Apr 30 13:50:07 2022.
