 Gaussian 16, Revision A.03,
 Gaussian 16:  ES64L-G16RevA.03 25-Dec-2016

 ------------------------------
 #p blyp/Def2SVP td=(nstates=5)
 ------------------------------

 ---------------------------------------------------
 step_1801_chromophore_10 TDDFT with blyp functional
 ---------------------------------------------------
 Symbolic Z-matrix:
 Charge =  0 Multiplicity = 1

                         Standard orientation:
 ---------------------------------------------------------------------
 Center     Atomic      Atomic             Coordinates (Angstroms)
 Number     Number       Type             X           Y           Z
 ---------------------------------------------------------------------
      1         12           0        6.193958    0.492321    0.144470
      2          6           0        4.097246   -2.227726   -0.039498
      3          6           0        3.730502    2.461176   -1.293284
      4          6           0        8.350479    3.063763    0.209235
      5          6           0        8.683987   -1.545334    1.449036
      6          7           0        4.149693    0.038576   -0.632189
      7          6           0        3.460398   -1.092290   -0.496811
      8          6           0        2.006816   -0.908487   -0.969673
      9          6           0        2.034964    0.533297   -1.622137
     10          6           0        3.384015    1.064455   -1.204730
     11          6           0        1.745333    0.595016   -3.155096
     12          6           0        1.120156   -1.112020    0.243606
     13          6           0       -0.355968   -0.719490    0.160615
     14          6           0       -1.422910   -1.834244    0.418982
     15          8           0       -1.286853   -3.023670    0.804027
     16          8           0       -2.641278   -1.284008   -0.089512
     17          7           0        6.031109    2.500584   -0.444529
     18          6           0        4.899623    3.149050   -0.960189
     19          6           0        5.188331    4.560036   -1.204716
     20          6           0        6.496433    4.764808   -0.789395
     21          6           0        7.013048    3.380127   -0.320850
     22          6           0        4.294262    5.512581   -1.816242
     23          6           0        7.261215    6.044926   -0.576265
     24          8           0        8.495037    6.046087   -0.280591
     25          6           0        6.617922    7.390595   -0.863560
     26          7           0        8.297773    0.741424    0.639087
     27          6           0        8.934779    1.825168    0.624705
     28          6           0       10.428215    1.700780    0.981884
     29          6           0       10.399017    0.372549    1.816891
     30          6           0        9.077369   -0.215876    1.289731
     31          6           0       11.345296    1.625714   -0.330179
     32          6           0       10.531285    0.526887    3.364180
     33          6           0        9.347336    1.024442    4.124473
     34          7           0        6.363106   -1.531890    0.617061
     35          6           0        7.460158   -2.169335    1.040197
     36          6           0        7.103664   -3.540639    1.148343
     37          6           0        5.706650   -3.679705    0.780553
     38          6           0        5.376937   -2.360568    0.430743
     39          6           0        8.037420   -4.628340    1.535560
     40          6           0        4.596364   -4.546243    0.638251
     41          8           0        4.434664   -5.759235    0.873101
     42          6           0        3.464999   -3.681682    0.136916
     43          6           0        3.053218   -4.359136   -1.152286
     44          8           0        3.688173   -4.452102   -2.233540
     45          8           0        1.768687   -4.850338   -1.025831
     46          6           0        1.197375   -5.460916   -2.332906
     47          6           0       -3.649794   -2.317198   -0.248902
     48          6           0       -4.880429   -1.819832   -0.976367
     49          6           0       -6.004232   -2.418348   -1.295516
     50          6           0       -6.419248   -3.819973   -1.040415
     51          6           0       -6.947427   -1.587660   -2.162016
     52          6           0       -8.261789   -1.127980   -1.472890
     53          6           0       -8.146418    0.318861   -0.880106
     54          6           0       -9.276146    1.186413   -1.410875
     55          6           0       -8.949909    2.614650   -1.007208
     56          6           0      -10.670211    0.742265   -0.793954
     57          6           0      -11.767915    0.431558   -1.847055
     58          6           0      -12.952558    1.415538   -1.651681
     59          6           0      -14.115071    0.903006   -0.818331
     60          6           0      -15.288052    0.357576   -1.563912
     61          6           0      -14.660458    1.865949    0.179659
     62          6           0      -13.843281    2.132497    1.472166
     63          6           0      -14.776374    2.326450    2.731245
     64          6           0      -14.812908    1.053901    3.760127
     65          6           0      -16.272891    0.650272    3.995836
     66          6           0      -13.903752    1.119266    4.995412
     67          1           0        2.937629    3.132035   -1.629112
     68          1           0        9.102199    3.848605    0.317519
     69          1           0        9.387050   -2.238785    1.914489
     70          1           0        1.654032   -1.626441   -1.709873
     71          1           0        1.352202    1.203096   -1.098317
     72          1           0        0.917902    1.256438   -3.414102
     73          1           0        1.558269   -0.427502   -3.483051
     74          1           0        2.648595    0.864526   -3.702158
     75          1           0        1.640868   -0.572965    1.035640
     76          1           0        1.032377   -2.176077    0.463865
     77          1           0       -0.530821   -0.338001   -0.844983
     78          1           0       -0.419826    0.060958    0.919162
     79          1           0        3.770649    6.266669   -1.228257
     80          1           0        3.460632    4.993757   -2.288772
     81          1           0        4.765412    6.086134   -2.614736
     82          1           0        7.343049    8.143037   -0.554198
     83          1           0        5.656433    7.489084   -0.360305
     84          1           0        6.403543    7.563856   -1.917489
     85          1           0       10.792777    2.517816    1.605883
     86          1           0       11.319999   -0.152929    1.567502
     87          1           0       12.142773    2.342854   -0.139427
     88          1           0       10.861665    1.947876   -1.253283
     89          1           0       11.803580    0.657651   -0.534123
     90          1           0       11.393364    1.165336    3.554501
     91          1           0       10.807622   -0.439053    3.786907
     92          1           0        8.677035    1.635474    3.520068
     93          1           0        9.676477    1.530459    5.032006
     94          1           0        8.759864    0.179334    4.484064
     95          1           0        8.940038   -4.279592    2.036428
     96          1           0        8.446959   -5.023971    0.606225
     97          1           0        7.587901   -5.534201    1.941324
     98          1           0        2.675584   -3.877017    0.862928
     99          1           0        1.661580   -6.437114   -2.477077
    100          1           0        1.377770   -4.865933   -3.229102
    101          1           0        0.111828   -5.546723   -2.283014
    102          1           0       -3.996709   -2.514088    0.765571
    103          1           0       -3.299233   -3.203673   -0.776797
    104          1           0       -4.677396   -0.820612   -1.361785
    105          1           0       -6.519791   -4.339490   -1.993345
    106          1           0       -7.387305   -3.846586   -0.539198
    107          1           0       -5.757838   -4.481556   -0.481391
    108          1           0       -7.286825   -2.161460   -3.024824
    109          1           0       -6.582768   -0.625747   -2.523620
    110          1           0       -8.644024   -1.771340   -0.680827
    111          1           0       -9.043776   -1.137640   -2.231967
    112          1           0       -7.200821    0.777725   -1.168090
    113          1           0       -8.055536    0.437863    0.199888
    114          1           0       -9.322032    0.984933   -2.481189
    115          1           0       -7.939800    2.782456   -0.632226
    116          1           0       -9.733283    3.095040   -0.420886
    117          1           0       -8.893698    3.172106   -1.941983
    118          1           0      -11.008390    1.419040   -0.009625
    119          1           0      -10.531959   -0.206093   -0.274380
    120          1           0      -12.100054   -0.589569   -1.658511
    121          1           0      -11.462921    0.567326   -2.883728
    122          1           0      -13.329515    1.553212   -2.665405
    123          1           0      -12.573400    2.352040   -1.241268
    124          1           0      -13.752623    0.068358   -0.217793
    125          1           0      -15.296511    0.697569   -2.599739
    126          1           0      -16.264204    0.611417   -1.151172
    127          1           0      -15.120869   -0.718059   -1.623848
    128          1           0      -15.691829    1.682162    0.480604
    129          1           0      -14.761052    2.868078   -0.236549
    130          1           0      -13.122248    2.935719    1.318027
    131          1           0      -13.238368    1.246812    1.668622
    132          1           0      -15.757523    2.748984    2.517960
    133          1           0      -14.189884    3.124805    3.186167
    134          1           0      -14.475572    0.161945    3.232027
    135          1           0      -16.883300    1.538001    4.162091
    136          1           0      -16.436118   -0.052114    4.812390
    137          1           0      -16.588180    0.158024    3.075320
    138          1           0      -14.055754    1.973820    5.654395
    139          1           0      -12.927112    1.129818    4.511352
    140          1           0      -14.097927    0.226213    5.589910
 ---------------------------------------------------------------------

 SCF Done:  E(RB-LYP) =  -3007.36187313     A.U. after   22 cycles

 Excitation energies and oscillator strengths:

 Excited State   1:      Singlet-A      1.7144 eV  723.19 nm  f=0.0000  <S**2>=0.000
     244 -> 247        0.70660
 This state for optimization and/or second-order correction.
 Total Energy, E(TD-HF/TD-DFT) =  -3007.29887002
 Copying the excited state density for this state as the 1-particle RhoCI density.

 Excited State   2:      Singlet-A      1.8313 eV  677.04 nm  f=0.3143  <S**2>=0.000
     245 -> 249       -0.19437
     246 -> 247        0.68093
     246 <- 247       -0.13946

 Excited State   3:      Singlet-A      1.9357 eV  640.50 nm  f=0.0098  <S**2>=0.000
     243 -> 247        0.69334
     245 -> 247       -0.10559

 Excited State   4:      Singlet-A      1.9867 eV  624.08 nm  f=0.0916  <S**2>=0.000
     243 -> 247        0.11770
     245 -> 247        0.65016
     246 -> 249        0.21297

 Excited State   5:      Singlet-A      2.4171 eV  512.95 nm  f=0.0006  <S**2>=0.000
     241 -> 247        0.69784

 The electronic state is 1-A.
 Alpha  occ. eigenvalues --  -46.28109 -18.82619 -18.81561 -18.78877 -18.75553
 Alpha  occ. eigenvalues --  -18.75533 -18.74372 -14.03657 -14.03178 -14.02067
 Alpha  occ. eigenvalues --  -14.00653 -10.05697 -10.03355 -10.00230  -9.98370
 Alpha  occ. eigenvalues --   -9.97654  -9.97450  -9.97349  -9.97083  -9.96625
 Alpha  occ. eigenvalues --   -9.96399  -9.96345  -9.96111  -9.95090  -9.94480
 Alpha  occ. eigenvalues --   -9.94444  -9.94430  -9.94261  -9.94170  -9.93970
 Alpha  occ. eigenvalues --   -9.93830  -9.93760  -9.93577  -9.93541  -9.93502
 Alpha  occ. eigenvalues --   -9.93381  -9.93266  -9.93082  -9.92968  -9.92684
 Alpha  occ. eigenvalues --   -9.92661  -9.92659  -9.92584  -9.92570  -9.92296
 Alpha  occ. eigenvalues --   -9.92229  -9.92100  -9.91989  -9.91807  -9.91645
 Alpha  occ. eigenvalues --   -9.91591  -9.91530  -9.91450  -9.91411  -9.91265
 Alpha  occ. eigenvalues --   -9.91091  -9.91052  -9.90947  -9.90838  -9.90827
 Alpha  occ. eigenvalues --   -9.90826  -9.90647  -9.90492  -9.90427  -9.90254
 Alpha  occ. eigenvalues --   -9.90142  -2.92604  -1.73051  -1.72470  -1.72320
 Alpha  occ. eigenvalues --   -0.96816  -0.95088  -0.89807  -0.89343  -0.89292
 Alpha  occ. eigenvalues --   -0.88426  -0.87711  -0.86616  -0.86298  -0.85693
 Alpha  occ. eigenvalues --   -0.75605  -0.74052  -0.73571  -0.73290  -0.72881
 Alpha  occ. eigenvalues --   -0.72411  -0.72145  -0.71380  -0.70673  -0.70585
 Alpha  occ. eigenvalues --   -0.69571  -0.69051  -0.68010  -0.67535  -0.67071
 Alpha  occ. eigenvalues --   -0.66330  -0.65943  -0.65415  -0.65019  -0.64588
 Alpha  occ. eigenvalues --   -0.64320  -0.63093  -0.63006  -0.61912  -0.60773
 Alpha  occ. eigenvalues --   -0.60586  -0.60387  -0.60357  -0.59466  -0.58842
 Alpha  occ. eigenvalues --   -0.58341  -0.57676  -0.57188  -0.55734  -0.55506
 Alpha  occ. eigenvalues --   -0.54198  -0.53245  -0.53007  -0.52201  -0.51499
 Alpha  occ. eigenvalues --   -0.51254  -0.51081  -0.50649  -0.50451  -0.49961
 Alpha  occ. eigenvalues --   -0.49137  -0.49018  -0.48557  -0.47699  -0.47148
 Alpha  occ. eigenvalues --   -0.46877  -0.46513  -0.46019  -0.45346  -0.44927
 Alpha  occ. eigenvalues --   -0.44489  -0.43410  -0.43298  -0.43193  -0.42341
 Alpha  occ. eigenvalues --   -0.42311  -0.42131  -0.41537  -0.41266  -0.41090
 Alpha  occ. eigenvalues --   -0.40898  -0.40590  -0.40446  -0.40224  -0.39981
 Alpha  occ. eigenvalues --   -0.39808  -0.39669  -0.39601  -0.39393  -0.39077
 Alpha  occ. eigenvalues --   -0.39024  -0.38893  -0.38587  -0.38271  -0.38153
 Alpha  occ. eigenvalues --   -0.37910  -0.37784  -0.37516  -0.37403  -0.37219
 Alpha  occ. eigenvalues --   -0.37045  -0.36964  -0.36778  -0.36424  -0.36308
 Alpha  occ. eigenvalues --   -0.36272  -0.36062  -0.35839  -0.35793  -0.35720
 Alpha  occ. eigenvalues --   -0.35560  -0.35475  -0.35138  -0.34936  -0.34838
 Alpha  occ. eigenvalues --   -0.34768  -0.34467  -0.34369  -0.34258  -0.34175
 Alpha  occ. eigenvalues --   -0.33996  -0.33717  -0.33333  -0.33260  -0.33232
 Alpha  occ. eigenvalues --   -0.32951  -0.32690  -0.32564  -0.32494  -0.32280
 Alpha  occ. eigenvalues --   -0.32211  -0.31877  -0.31715  -0.31692  -0.31497
 Alpha  occ. eigenvalues --   -0.31092  -0.31059  -0.30812  -0.30638  -0.30359
 Alpha  occ. eigenvalues --   -0.30154  -0.30057  -0.29922  -0.29824  -0.29686
 Alpha  occ. eigenvalues --   -0.29626  -0.29577  -0.29434  -0.29303  -0.29130
 Alpha  occ. eigenvalues --   -0.28765  -0.28300  -0.28044  -0.27847  -0.27739
 Alpha  occ. eigenvalues --   -0.27444  -0.27361  -0.26962  -0.26575  -0.26562
 Alpha  occ. eigenvalues --   -0.26346  -0.26298  -0.25886  -0.25643  -0.25061
 Alpha  occ. eigenvalues --   -0.24929  -0.24309  -0.24299  -0.23991  -0.23984
 Alpha  occ. eigenvalues --   -0.23692  -0.23247  -0.22419  -0.21382  -0.20573
 Alpha  occ. eigenvalues --   -0.20500  -0.19993  -0.18648  -0.17872  -0.17170
 Alpha  occ. eigenvalues --   -0.16105
 Alpha virt. eigenvalues --   -0.11663  -0.06708  -0.06625  -0.05124  -0.04882
 Alpha virt. eigenvalues --   -0.02353  -0.02084  -0.01530  -0.00908  -0.00319
 Alpha virt. eigenvalues --    0.01103   0.01500   0.01995   0.02646   0.02752

 Mulliken charges:
               1
     1  Mg   0.693790
     2  C    0.038222
     3  C   -0.069252
     4  C   -0.025063
     5  C   -0.078575
     6  N   -0.205811
     7  C   -0.105134
     8  C    0.021842
     9  C    0.006712
    10  C    0.017285
    11  C    0.150670
    12  C    0.070223
    13  C    0.111200
    14  C    0.146200
    15  O   -0.196402
    16  O   -0.303768
    17  N   -0.264396
    18  C    0.124006
    19  C   -0.090916
    20  C    0.052183
    21  C    0.090771
    22  C    0.151940
    23  C   -0.063044
    24  O   -0.204164
    25  C    0.124981
    26  N   -0.149898
    27  C   -0.049997
    28  C    0.003737
    29  C    0.039065
    30  C    0.052691
    31  C    0.119331
    32  C    0.074202
    33  C    0.079352
    34  N   -0.191860
    35  C    0.101936
    36  C   -0.172522
    37  C    0.127978
    38  C    0.073083
    39  C    0.183643
    40  C   -0.116127
    41  O   -0.160208
    42  C    0.088402
    43  C    0.113673
    44  O   -0.223570
    45  O   -0.281980
    46  C    0.214078
    47  C    0.324839
    48  C   -0.155499
    49  C   -0.068569
    50  C    0.150548
    51  C    0.143966
    52  C    0.055340
    53  C    0.065425
    54  C   -0.077814
    55  C    0.139637
    56  C    0.096330
    57  C    0.062630
    58  C    0.122402
    59  C   -0.038221
    60  C    0.127267
    61  C    0.058119
    62  C    0.029219
    63  C    0.097056
    64  C   -0.073164
    65  C    0.077935
    66  C    0.109304
    67  H   -0.065554
    68  H   -0.049869
    69  H   -0.066781
    70  H   -0.029095
    71  H   -0.027334
    72  H    0.002452
    73  H   -0.014009
    74  H   -0.006484
    75  H   -0.029365
    76  H    0.010066
    77  H    0.007601
    78  H    0.012423
    79  H    0.003560
    80  H   -0.026145
    81  H   -0.002109
    82  H   -0.001103
    83  H   -0.002617
    84  H    0.008831
    85  H   -0.025291
    86  H   -0.040058
    87  H   -0.003611
    88  H    0.002739
    89  H   -0.001662
    90  H   -0.024818
    91  H   -0.024650
    92  H    0.004715
    93  H   -0.010748
    94  H   -0.013166
    95  H   -0.022671
    96  H   -0.006984
    97  H    0.005083
    98  H    0.013676
    99  H    0.028396
   100  H    0.015956
   101  H    0.015523
   102  H   -0.000747
   103  H    0.012896
   104  H   -0.034832
   105  H   -0.006419
   106  H   -0.004248
   107  H   -0.014287
   108  H   -0.041591
   109  H   -0.031597
   110  H   -0.023072
   111  H   -0.031076
   112  H   -0.045340
   113  H   -0.036673
   114  H   -0.036140
   115  H   -0.020215
   116  H   -0.013691
   117  H   -0.034314
   118  H   -0.025498
   119  H   -0.043469
   120  H   -0.028577
   121  H   -0.025667
   122  H   -0.048539
   123  H   -0.025977
   124  H   -0.047275
   125  H   -0.032583
   126  H   -0.015099
   127  H   -0.024053
   128  H   -0.040315
   129  H   -0.044708
   130  H   -0.023734
   131  H   -0.027537
   132  H   -0.020334
   133  H   -0.044678
   134  H   -0.035520
   135  H   -0.013912
   136  H   -0.025103
   137  H   -0.015106
   138  H   -0.010407
   139  H   -0.008605
   140  H   -0.014115
 Sum of Mulliken charges =  -0.00000

 Dipole moment (field-independent basis, Debye):
    X=             -2.9065    Y=              4.6636    Z=             -1.2388  Tot=              5.6331
 Quadrupole moment (field-independent basis, Debye-Ang):
   XX=           -391.2284   YY=           -436.4213   ZZ=           -399.7895
   XY=             12.1268   XZ=             20.3456   YZ=              1.9988

 Normal termination of Gaussian 16 at Fri Apr 29 01:02:17 2022.
