 Gaussian 16, Revision A.03,
 Gaussian 16:  ES64L-G16RevA.03 25-Dec-2016

 -----------------------------------
 #p cam-b3lyp/Def2SVP td=(nstates=5)
 -----------------------------------

 --------------------------------------------------------
 step_1801_chromophore_10 TDDFT with cam-b3lyp functional
 --------------------------------------------------------
 Symbolic Z-matrix:
 Charge =  0 Multiplicity = 1

                         Standard orientation:
 ---------------------------------------------------------------------
 Center     Atomic      Atomic             Coordinates (Angstroms)
 Number     Number       Type             X           Y           Z
 ---------------------------------------------------------------------
      1         12           0        6.193958    0.492321    0.144470
      2          6           0        4.097246   -2.227726   -0.039498
      3          6           0        3.730502    2.461176   -1.293284
      4          6           0        8.350479    3.063763    0.209235
      5          6           0        8.683987   -1.545334    1.449036
      6          7           0        4.149693    0.038576   -0.632189
      7          6           0        3.460398   -1.092290   -0.496811
      8          6           0        2.006816   -0.908487   -0.969673
      9          6           0        2.034964    0.533297   -1.622137
     10          6           0        3.384015    1.064455   -1.204730
     11          6           0        1.745333    0.595016   -3.155096
     12          6           0        1.120156   -1.112020    0.243606
     13          6           0       -0.355968   -0.719490    0.160615
     14          6           0       -1.422910   -1.834244    0.418982
     15          8           0       -1.286853   -3.023670    0.804027
     16          8           0       -2.641278   -1.284008   -0.089512
     17          7           0        6.031109    2.500584   -0.444529
     18          6           0        4.899623    3.149050   -0.960189
     19          6           0        5.188331    4.560036   -1.204716
     20          6           0        6.496433    4.764808   -0.789395
     21          6           0        7.013048    3.380127   -0.320850
     22          6           0        4.294262    5.512581   -1.816242
     23          6           0        7.261215    6.044926   -0.576265
     24          8           0        8.495037    6.046087   -0.280591
     25          6           0        6.617922    7.390595   -0.863560
     26          7           0        8.297773    0.741424    0.639087
     27          6           0        8.934779    1.825168    0.624705
     28          6           0       10.428215    1.700780    0.981884
     29          6           0       10.399017    0.372549    1.816891
     30          6           0        9.077369   -0.215876    1.289731
     31          6           0       11.345296    1.625714   -0.330179
     32          6           0       10.531285    0.526887    3.364180
     33          6           0        9.347336    1.024442    4.124473
     34          7           0        6.363106   -1.531890    0.617061
     35          6           0        7.460158   -2.169335    1.040197
     36          6           0        7.103664   -3.540639    1.148343
     37          6           0        5.706650   -3.679705    0.780553
     38          6           0        5.376937   -2.360568    0.430743
     39          6           0        8.037420   -4.628340    1.535560
     40          6           0        4.596364   -4.546243    0.638251
     41          8           0        4.434664   -5.759235    0.873101
     42          6           0        3.464999   -3.681682    0.136916
     43          6           0        3.053218   -4.359136   -1.152286
     44          8           0        3.688173   -4.452102   -2.233540
     45          8           0        1.768687   -4.850338   -1.025831
     46          6           0        1.197375   -5.460916   -2.332906
     47          6           0       -3.649794   -2.317198   -0.248902
     48          6           0       -4.880429   -1.819832   -0.976367
     49          6           0       -6.004232   -2.418348   -1.295516
     50          6           0       -6.419248   -3.819973   -1.040415
     51          6           0       -6.947427   -1.587660   -2.162016
     52          6           0       -8.261789   -1.127980   -1.472890
     53          6           0       -8.146418    0.318861   -0.880106
     54          6           0       -9.276146    1.186413   -1.410875
     55          6           0       -8.949909    2.614650   -1.007208
     56          6           0      -10.670211    0.742265   -0.793954
     57          6           0      -11.767915    0.431558   -1.847055
     58          6           0      -12.952558    1.415538   -1.651681
     59          6           0      -14.115071    0.903006   -0.818331
     60          6           0      -15.288052    0.357576   -1.563912
     61          6           0      -14.660458    1.865949    0.179659
     62          6           0      -13.843281    2.132497    1.472166
     63          6           0      -14.776374    2.326450    2.731245
     64          6           0      -14.812908    1.053901    3.760127
     65          6           0      -16.272891    0.650272    3.995836
     66          6           0      -13.903752    1.119266    4.995412
     67          1           0        2.937629    3.132035   -1.629112
     68          1           0        9.102199    3.848605    0.317519
     69          1           0        9.387050   -2.238785    1.914489
     70          1           0        1.654032   -1.626441   -1.709873
     71          1           0        1.352202    1.203096   -1.098317
     72          1           0        0.917902    1.256438   -3.414102
     73          1           0        1.558269   -0.427502   -3.483051
     74          1           0        2.648595    0.864526   -3.702158
     75          1           0        1.640868   -0.572965    1.035640
     76          1           0        1.032377   -2.176077    0.463865
     77          1           0       -0.530821   -0.338001   -0.844983
     78          1           0       -0.419826    0.060958    0.919162
     79          1           0        3.770649    6.266669   -1.228257
     80          1           0        3.460632    4.993757   -2.288772
     81          1           0        4.765412    6.086134   -2.614736
     82          1           0        7.343049    8.143037   -0.554198
     83          1           0        5.656433    7.489084   -0.360305
     84          1           0        6.403543    7.563856   -1.917489
     85          1           0       10.792777    2.517816    1.605883
     86          1           0       11.319999   -0.152929    1.567502
     87          1           0       12.142773    2.342854   -0.139427
     88          1           0       10.861665    1.947876   -1.253283
     89          1           0       11.803580    0.657651   -0.534123
     90          1           0       11.393364    1.165336    3.554501
     91          1           0       10.807622   -0.439053    3.786907
     92          1           0        8.677035    1.635474    3.520068
     93          1           0        9.676477    1.530459    5.032006
     94          1           0        8.759864    0.179334    4.484064
     95          1           0        8.940038   -4.279592    2.036428
     96          1           0        8.446959   -5.023971    0.606225
     97          1           0        7.587901   -5.534201    1.941324
     98          1           0        2.675584   -3.877017    0.862928
     99          1           0        1.661580   -6.437114   -2.477077
    100          1           0        1.377770   -4.865933   -3.229102
    101          1           0        0.111828   -5.546723   -2.283014
    102          1           0       -3.996709   -2.514088    0.765571
    103          1           0       -3.299233   -3.203673   -0.776797
    104          1           0       -4.677396   -0.820612   -1.361785
    105          1           0       -6.519791   -4.339490   -1.993345
    106          1           0       -7.387305   -3.846586   -0.539198
    107          1           0       -5.757838   -4.481556   -0.481391
    108          1           0       -7.286825   -2.161460   -3.024824
    109          1           0       -6.582768   -0.625747   -2.523620
    110          1           0       -8.644024   -1.771340   -0.680827
    111          1           0       -9.043776   -1.137640   -2.231967
    112          1           0       -7.200821    0.777725   -1.168090
    113          1           0       -8.055536    0.437863    0.199888
    114          1           0       -9.322032    0.984933   -2.481189
    115          1           0       -7.939800    2.782456   -0.632226
    116          1           0       -9.733283    3.095040   -0.420886
    117          1           0       -8.893698    3.172106   -1.941983
    118          1           0      -11.008390    1.419040   -0.009625
    119          1           0      -10.531959   -0.206093   -0.274380
    120          1           0      -12.100054   -0.589569   -1.658511
    121          1           0      -11.462921    0.567326   -2.883728
    122          1           0      -13.329515    1.553212   -2.665405
    123          1           0      -12.573400    2.352040   -1.241268
    124          1           0      -13.752623    0.068358   -0.217793
    125          1           0      -15.296511    0.697569   -2.599739
    126          1           0      -16.264204    0.611417   -1.151172
    127          1           0      -15.120869   -0.718059   -1.623848
    128          1           0      -15.691829    1.682162    0.480604
    129          1           0      -14.761052    2.868078   -0.236549
    130          1           0      -13.122248    2.935719    1.318027
    131          1           0      -13.238368    1.246812    1.668622
    132          1           0      -15.757523    2.748984    2.517960
    133          1           0      -14.189884    3.124805    3.186167
    134          1           0      -14.475572    0.161945    3.232027
    135          1           0      -16.883300    1.538001    4.162091
    136          1           0      -16.436118   -0.052114    4.812390
    137          1           0      -16.588180    0.158024    3.075320
    138          1           0      -14.055754    1.973820    5.654395
    139          1           0      -12.927112    1.129818    4.511352
    140          1           0      -14.097927    0.226213    5.589910
 ---------------------------------------------------------------------

 SCF Done:  E(RCAM-B3LYP) =  -3007.15070775     A.U. after   17 cycles

 Excitation energies and oscillator strengths:

 Excited State   1:      Singlet-A      1.7940 eV  691.10 nm  f=0.3897  <S**2>=0.000
     245 -> 248       -0.17897
     246 -> 247        0.68410
     245 <- 248       -0.10343
 This state for optimization and/or second-order correction.
 Total Energy, E(TD-HF/TD-DFT) =  -3007.08477874
 Copying the excited state density for this state as the 1-particle RhoCI density.

 Excited State   2:      Singlet-A      2.2135 eV  560.13 nm  f=0.1357  <S**2>=0.000
     245 -> 247        0.65323
     246 -> 248        0.25846

 Excited State   3:      Singlet-A      3.3938 eV  365.32 nm  f=0.0003  <S**2>=0.000
     239 -> 247        0.13184
     239 -> 249        0.12274
     240 -> 247        0.51568
     240 -> 249        0.37016
     240 -> 250       -0.14594

 Excited State   4:      Singlet-A      3.4234 eV  362.17 nm  f=0.0153  <S**2>=0.000
     241 -> 247       -0.13644
     243 -> 247        0.19362
     243 -> 250       -0.11771
     244 -> 247        0.62788

 Excited State   5:      Singlet-A      3.4865 eV  355.61 nm  f=0.0049  <S**2>=0.000
     243 -> 247        0.53443
     243 -> 249       -0.21907
     243 -> 250       -0.27668
     244 -> 247       -0.23939

 The electronic state is 1-A.
 Alpha  occ. eigenvalues --  -46.89667 -19.25434 -19.24351 -19.21903 -19.19303
 Alpha  occ. eigenvalues --  -19.18432 -19.17126 -14.42727 -14.41816 -14.40756
 Alpha  occ. eigenvalues --  -14.38770 -10.41235 -10.38704 -10.36031 -10.33298
 Alpha  occ. eigenvalues --  -10.32331 -10.32071 -10.31571 -10.31482 -10.31322
 Alpha  occ. eigenvalues --  -10.30712 -10.30686 -10.30563 -10.29694 -10.28646
 Alpha  occ. eigenvalues --  -10.28615 -10.28535 -10.28409 -10.28309 -10.28244
 Alpha  occ. eigenvalues --  -10.28138 -10.27841 -10.27836 -10.27757 -10.27707
 Alpha  occ. eigenvalues --  -10.27573 -10.27076 -10.26940 -10.26843 -10.26795
 Alpha  occ. eigenvalues --  -10.26706 -10.26519 -10.26266 -10.26201 -10.26160
 Alpha  occ. eigenvalues --  -10.26123 -10.26000 -10.25696 -10.25508 -10.25351
 Alpha  occ. eigenvalues --  -10.25347 -10.25219 -10.24927 -10.24888 -10.24879
 Alpha  occ. eigenvalues --  -10.24807 -10.24644 -10.24632 -10.24479 -10.24470
 Alpha  occ. eigenvalues --  -10.24433 -10.24222 -10.24089 -10.23974 -10.23808
 Alpha  occ. eigenvalues --  -10.23773  -3.18063  -1.92989  -1.92499  -1.92373
 Alpha  occ. eigenvalues --   -1.15155  -1.13377  -1.08099  -1.07602  -1.07291
 Alpha  occ. eigenvalues --   -1.06095  -1.05101  -1.04265  -1.04166  -1.03487
 Alpha  occ. eigenvalues --   -0.92519  -0.90944  -0.90411  -0.90148  -0.90074
 Alpha  occ. eigenvalues --   -0.89037  -0.88843  -0.88216  -0.87262  -0.86922
 Alpha  occ. eigenvalues --   -0.85948  -0.85388  -0.84264  -0.83582  -0.83212
 Alpha  occ. eigenvalues --   -0.82464  -0.82145  -0.81517  -0.81019  -0.80352
 Alpha  occ. eigenvalues --   -0.80044  -0.79343  -0.78583  -0.77295  -0.76043
 Alpha  occ. eigenvalues --   -0.75892  -0.75779  -0.75656  -0.74744  -0.74081
 Alpha  occ. eigenvalues --   -0.73399  -0.72595  -0.72134  -0.70556  -0.70082
 Alpha  occ. eigenvalues --   -0.68756  -0.67807  -0.67558  -0.66553  -0.65811
 Alpha  occ. eigenvalues --   -0.65444  -0.64997  -0.64711  -0.64358  -0.63985
 Alpha  occ. eigenvalues --   -0.63063  -0.62822  -0.62450  -0.61288  -0.61085
 Alpha  occ. eigenvalues --   -0.60472  -0.60033  -0.59336  -0.58700  -0.58336
 Alpha  occ. eigenvalues --   -0.57758  -0.56742  -0.56709  -0.56396  -0.55428
 Alpha  occ. eigenvalues --   -0.55077  -0.54989  -0.54628  -0.54288  -0.53965
 Alpha  occ. eigenvalues --   -0.53656  -0.53506  -0.53259  -0.52904  -0.52816
 Alpha  occ. eigenvalues --   -0.52650  -0.52357  -0.52131  -0.52007  -0.51753
 Alpha  occ. eigenvalues --   -0.51651  -0.51439  -0.51004  -0.50712  -0.50559
 Alpha  occ. eigenvalues --   -0.50337  -0.50072  -0.49986  -0.49806  -0.49512
 Alpha  occ. eigenvalues --   -0.49353  -0.49143  -0.49055  -0.48974  -0.48600
 Alpha  occ. eigenvalues --   -0.48235  -0.48144  -0.48107  -0.48029  -0.47811
 Alpha  occ. eigenvalues --   -0.47732  -0.47605  -0.47471  -0.47215  -0.46886
 Alpha  occ. eigenvalues --   -0.46710  -0.46594  -0.46232  -0.46155  -0.45776
 Alpha  occ. eigenvalues --   -0.45736  -0.45484  -0.45129  -0.45097  -0.44754
 Alpha  occ. eigenvalues --   -0.44532  -0.44500  -0.44418  -0.44079  -0.43936
 Alpha  occ. eigenvalues --   -0.43818  -0.43589  -0.43298  -0.43193  -0.43021
 Alpha  occ. eigenvalues --   -0.42540  -0.42399  -0.42344  -0.42145  -0.41580
 Alpha  occ. eigenvalues --   -0.41536  -0.41468  -0.41334  -0.41315  -0.40983
 Alpha  occ. eigenvalues --   -0.40765  -0.40738  -0.40599  -0.40483  -0.40372
 Alpha  occ. eigenvalues --   -0.40258  -0.39267  -0.39228  -0.38797  -0.38697
 Alpha  occ. eigenvalues --   -0.38339  -0.38216  -0.37908  -0.37725  -0.37351
 Alpha  occ. eigenvalues --   -0.37008  -0.36962  -0.36910  -0.36757  -0.35644
 Alpha  occ. eigenvalues --   -0.35476  -0.35435  -0.35313  -0.34824  -0.34549
 Alpha  occ. eigenvalues --   -0.34468  -0.33700  -0.32832  -0.32116  -0.31523
 Alpha  occ. eigenvalues --   -0.30564  -0.30221  -0.29839  -0.28726  -0.23872
 Alpha  occ. eigenvalues --   -0.21544
 Alpha virt. eigenvalues --   -0.08735  -0.01497  -0.00403   0.01978   0.02892
 Alpha virt. eigenvalues --    0.02966   0.04933   0.05717   0.06041   0.06592
 Alpha virt. eigenvalues --    0.07972   0.08058   0.08732   0.08780   0.09095

 Mulliken charges:
               1
     1  Mg   0.826106
     2  C    0.016314
     3  C   -0.085231
     4  C   -0.050093
     5  C   -0.076632
     6  N   -0.274032
     7  C   -0.073219
     8  C   -0.018228
     9  C   -0.056175
    10  C    0.043227
    11  C    0.090741
    12  C    0.023178
    13  C    0.041777
    14  C    0.226695
    15  O   -0.237034
    16  O   -0.369336
    17  N   -0.355229
    18  C    0.137951
    19  C   -0.096316
    20  C   -0.008175
    21  C    0.122562
    22  C    0.087839
    23  C    0.012722
    24  O   -0.240222
    25  C    0.045017
    26  N   -0.223483
    27  C   -0.028677
    28  C   -0.048757
    29  C   -0.011641
    30  C    0.053273
    31  C    0.063271
    32  C    0.027040
    33  C    0.015398
    34  N   -0.286059
    35  C    0.101181
    36  C   -0.172104
    37  C    0.045667
    38  C    0.106429
    39  C    0.127633
    40  C   -0.015150
    41  O   -0.203133
    42  C    0.011579
    43  C    0.204662
    44  O   -0.263038
    45  O   -0.347237
    46  C    0.177802
    47  C    0.292711
    48  C   -0.172569
    49  C   -0.099967
    50  C    0.090117
    51  C    0.085239
    52  C    0.000536
    53  C    0.015601
    54  C   -0.130514
    55  C    0.076401
    56  C    0.043819
    57  C    0.010466
    58  C    0.067555
    59  C   -0.097684
    60  C    0.067872
    61  C    0.007077
    62  C   -0.015486
    63  C    0.036789
    64  C   -0.132953
    65  C    0.022667
    66  C    0.055282
    67  H   -0.030019
    68  H   -0.010144
    69  H   -0.031983
    70  H    0.003955
    71  H    0.007628
    72  H    0.026489
    73  H    0.012776
    74  H    0.020817
    75  H    0.002810
    76  H    0.041005
    77  H    0.039116
    78  H    0.045091
    79  H    0.034194
    80  H    0.005008
    81  H    0.027372
    82  H    0.036363
    83  H    0.025332
    84  H    0.037517
    85  H    0.010151
    86  H   -0.003494
    87  H    0.019790
    88  H    0.028146
    89  H    0.023228
    90  H    0.001856
    91  H    0.003301
    92  H    0.023345
    93  H    0.013631
    94  H    0.011639
    95  H   -0.000310
    96  H    0.018750
    97  H    0.031675
    98  H    0.057430
    99  H    0.051707
   100  H    0.038706
   101  H    0.038296
   102  H    0.026994
   103  H    0.038584
   104  H   -0.000606
   105  H    0.018344
   106  H    0.019496
   107  H    0.012191
   108  H   -0.010375
   109  H   -0.001187
   110  H    0.003016
   111  H   -0.002817
   112  H   -0.017713
   113  H   -0.006444
   114  H   -0.005525
   115  H    0.005637
   116  H    0.009710
   117  H   -0.008498
   118  H   -0.001074
   119  H   -0.013832
   120  H   -0.000821
   121  H    0.002415
   122  H   -0.017923
   123  H    0.000460
   124  H   -0.016155
   125  H   -0.007808
   126  H    0.010621
   127  H    0.000666
   128  H   -0.011642
   129  H   -0.015523
   130  H    0.002139
   131  H   -0.003756
   132  H    0.007599
   133  H   -0.013612
   134  H   -0.005316
   135  H    0.008217
   136  H    0.000063
   137  H    0.007431
   138  H    0.012310
   139  H    0.013010
   140  H    0.008729
 Sum of Mulliken charges =  -0.00000

 Dipole moment (field-independent basis, Debye):
    X=             -3.1648    Y=              6.4322    Z=             -1.7117  Tot=              7.3701
 Quadrupole moment (field-independent basis, Debye-Ang):
   XX=           -392.7367   YY=           -430.7843   ZZ=           -399.3222
   XY=             21.5819   XZ=             19.2647   YZ=              1.0890

 Normal termination of Gaussian 16 at Fri Apr 29 00:09:49 2022.
