 Gaussian 16, Revision A.03,
 Gaussian 16:  ES64L-G16RevA.03 25-Dec-2016

 ---------------------------------
 #p PBE1PBE/Def2SVP td=(nstates=5)
 ---------------------------------

 ------------------------------------------------------
 step_1801_chromophore_10 TDDFT with PBE1PBE functional
 ------------------------------------------------------
 Symbolic Z-matrix:
 Charge =  0 Multiplicity = 1

                         Standard orientation:
 ---------------------------------------------------------------------
 Center     Atomic      Atomic             Coordinates (Angstroms)
 Number     Number       Type             X           Y           Z
 ---------------------------------------------------------------------
      1         12           0        6.193958    0.492321    0.144470
      2          6           0        4.097246   -2.227726   -0.039498
      3          6           0        3.730502    2.461176   -1.293284
      4          6           0        8.350479    3.063763    0.209235
      5          6           0        8.683987   -1.545334    1.449036
      6          7           0        4.149693    0.038576   -0.632189
      7          6           0        3.460398   -1.092290   -0.496811
      8          6           0        2.006816   -0.908487   -0.969673
      9          6           0        2.034964    0.533297   -1.622137
     10          6           0        3.384015    1.064455   -1.204730
     11          6           0        1.745333    0.595016   -3.155096
     12          6           0        1.120156   -1.112020    0.243606
     13          6           0       -0.355968   -0.719490    0.160615
     14          6           0       -1.422910   -1.834244    0.418982
     15          8           0       -1.286853   -3.023670    0.804027
     16          8           0       -2.641278   -1.284008   -0.089512
     17          7           0        6.031109    2.500584   -0.444529
     18          6           0        4.899623    3.149050   -0.960189
     19          6           0        5.188331    4.560036   -1.204716
     20          6           0        6.496433    4.764808   -0.789395
     21          6           0        7.013048    3.380127   -0.320850
     22          6           0        4.294262    5.512581   -1.816242
     23          6           0        7.261215    6.044926   -0.576265
     24          8           0        8.495037    6.046087   -0.280591
     25          6           0        6.617922    7.390595   -0.863560
     26          7           0        8.297773    0.741424    0.639087
     27          6           0        8.934779    1.825168    0.624705
     28          6           0       10.428215    1.700780    0.981884
     29          6           0       10.399017    0.372549    1.816891
     30          6           0        9.077369   -0.215876    1.289731
     31          6           0       11.345296    1.625714   -0.330179
     32          6           0       10.531285    0.526887    3.364180
     33          6           0        9.347336    1.024442    4.124473
     34          7           0        6.363106   -1.531890    0.617061
     35          6           0        7.460158   -2.169335    1.040197
     36          6           0        7.103664   -3.540639    1.148343
     37          6           0        5.706650   -3.679705    0.780553
     38          6           0        5.376937   -2.360568    0.430743
     39          6           0        8.037420   -4.628340    1.535560
     40          6           0        4.596364   -4.546243    0.638251
     41          8           0        4.434664   -5.759235    0.873101
     42          6           0        3.464999   -3.681682    0.136916
     43          6           0        3.053218   -4.359136   -1.152286
     44          8           0        3.688173   -4.452102   -2.233540
     45          8           0        1.768687   -4.850338   -1.025831
     46          6           0        1.197375   -5.460916   -2.332906
     47          6           0       -3.649794   -2.317198   -0.248902
     48          6           0       -4.880429   -1.819832   -0.976367
     49          6           0       -6.004232   -2.418348   -1.295516
     50          6           0       -6.419248   -3.819973   -1.040415
     51          6           0       -6.947427   -1.587660   -2.162016
     52          6           0       -8.261789   -1.127980   -1.472890
     53          6           0       -8.146418    0.318861   -0.880106
     54          6           0       -9.276146    1.186413   -1.410875
     55          6           0       -8.949909    2.614650   -1.007208
     56          6           0      -10.670211    0.742265   -0.793954
     57          6           0      -11.767915    0.431558   -1.847055
     58          6           0      -12.952558    1.415538   -1.651681
     59          6           0      -14.115071    0.903006   -0.818331
     60          6           0      -15.288052    0.357576   -1.563912
     61          6           0      -14.660458    1.865949    0.179659
     62          6           0      -13.843281    2.132497    1.472166
     63          6           0      -14.776374    2.326450    2.731245
     64          6           0      -14.812908    1.053901    3.760127
     65          6           0      -16.272891    0.650272    3.995836
     66          6           0      -13.903752    1.119266    4.995412
     67          1           0        2.937629    3.132035   -1.629112
     68          1           0        9.102199    3.848605    0.317519
     69          1           0        9.387050   -2.238785    1.914489
     70          1           0        1.654032   -1.626441   -1.709873
     71          1           0        1.352202    1.203096   -1.098317
     72          1           0        0.917902    1.256438   -3.414102
     73          1           0        1.558269   -0.427502   -3.483051
     74          1           0        2.648595    0.864526   -3.702158
     75          1           0        1.640868   -0.572965    1.035640
     76          1           0        1.032377   -2.176077    0.463865
     77          1           0       -0.530821   -0.338001   -0.844983
     78          1           0       -0.419826    0.060958    0.919162
     79          1           0        3.770649    6.266669   -1.228257
     80          1           0        3.460632    4.993757   -2.288772
     81          1           0        4.765412    6.086134   -2.614736
     82          1           0        7.343049    8.143037   -0.554198
     83          1           0        5.656433    7.489084   -0.360305
     84          1           0        6.403543    7.563856   -1.917489
     85          1           0       10.792777    2.517816    1.605883
     86          1           0       11.319999   -0.152929    1.567502
     87          1           0       12.142773    2.342854   -0.139427
     88          1           0       10.861665    1.947876   -1.253283
     89          1           0       11.803580    0.657651   -0.534123
     90          1           0       11.393364    1.165336    3.554501
     91          1           0       10.807622   -0.439053    3.786907
     92          1           0        8.677035    1.635474    3.520068
     93          1           0        9.676477    1.530459    5.032006
     94          1           0        8.759864    0.179334    4.484064
     95          1           0        8.940038   -4.279592    2.036428
     96          1           0        8.446959   -5.023971    0.606225
     97          1           0        7.587901   -5.534201    1.941324
     98          1           0        2.675584   -3.877017    0.862928
     99          1           0        1.661580   -6.437114   -2.477077
    100          1           0        1.377770   -4.865933   -3.229102
    101          1           0        0.111828   -5.546723   -2.283014
    102          1           0       -3.996709   -2.514088    0.765571
    103          1           0       -3.299233   -3.203673   -0.776797
    104          1           0       -4.677396   -0.820612   -1.361785
    105          1           0       -6.519791   -4.339490   -1.993345
    106          1           0       -7.387305   -3.846586   -0.539198
    107          1           0       -5.757838   -4.481556   -0.481391
    108          1           0       -7.286825   -2.161460   -3.024824
    109          1           0       -6.582768   -0.625747   -2.523620
    110          1           0       -8.644024   -1.771340   -0.680827
    111          1           0       -9.043776   -1.137640   -2.231967
    112          1           0       -7.200821    0.777725   -1.168090
    113          1           0       -8.055536    0.437863    0.199888
    114          1           0       -9.322032    0.984933   -2.481189
    115          1           0       -7.939800    2.782456   -0.632226
    116          1           0       -9.733283    3.095040   -0.420886
    117          1           0       -8.893698    3.172106   -1.941983
    118          1           0      -11.008390    1.419040   -0.009625
    119          1           0      -10.531959   -0.206093   -0.274380
    120          1           0      -12.100054   -0.589569   -1.658511
    121          1           0      -11.462921    0.567326   -2.883728
    122          1           0      -13.329515    1.553212   -2.665405
    123          1           0      -12.573400    2.352040   -1.241268
    124          1           0      -13.752623    0.068358   -0.217793
    125          1           0      -15.296511    0.697569   -2.599739
    126          1           0      -16.264204    0.611417   -1.151172
    127          1           0      -15.120869   -0.718059   -1.623848
    128          1           0      -15.691829    1.682162    0.480604
    129          1           0      -14.761052    2.868078   -0.236549
    130          1           0      -13.122248    2.935719    1.318027
    131          1           0      -13.238368    1.246812    1.668622
    132          1           0      -15.757523    2.748984    2.517960
    133          1           0      -14.189884    3.124805    3.186167
    134          1           0      -14.475572    0.161945    3.232027
    135          1           0      -16.883300    1.538001    4.162091
    136          1           0      -16.436118   -0.052114    4.812390
    137          1           0      -16.588180    0.158024    3.075320
    138          1           0      -14.055754    1.973820    5.654395
    139          1           0      -12.927112    1.129818    4.511352
    140          1           0      -14.097927    0.226213    5.589910
 ---------------------------------------------------------------------

 SCF Done:  E(RPBE1PBE) =  -3005.33964603     A.U. after   15 cycles

 Excitation energies and oscillator strengths:

 Excited State   1:      Singlet-A      1.8985 eV  653.06 nm  f=0.3810  <S**2>=0.000
     245 -> 248       -0.17802
     246 -> 247        0.68950
 This state for optimization and/or second-order correction.
 Total Energy, E(TD-HF/TD-DFT) =  -3005.26987727
 Copying the excited state density for this state as the 1-particle RhoCI density.

 Excited State   2:      Singlet-A      2.2055 eV  562.16 nm  f=0.1309  <S**2>=0.000
     245 -> 247        0.66364
     246 -> 248        0.23494

 Excited State   3:      Singlet-A      2.8626 eV  433.12 nm  f=0.0003  <S**2>=0.000
     243 -> 247        0.55284
     243 -> 249       -0.12197
     243 -> 250       -0.12050
     244 -> 247        0.39179

 Excited State   4:      Singlet-A      2.9804 eV  416.00 nm  f=0.0008  <S**2>=0.000
     240 -> 247        0.20636
     241 -> 247        0.60854
     241 -> 249        0.21483
     244 -> 247       -0.11307

 Excited State   5:      Singlet-A      3.0033 eV  412.83 nm  f=0.0132  <S**2>=0.000
     241 -> 247        0.15942
     243 -> 247       -0.38383
     244 -> 247        0.55845

 The electronic state is 1-A.
 Alpha  occ. eigenvalues --  -46.93069 -19.26188 -19.25108 -19.22234 -19.19226
 Alpha  occ. eigenvalues --  -19.18803 -19.17662 -14.42144 -14.41379 -14.40279
 Alpha  occ. eigenvalues --  -14.38545 -10.38352 -10.35866 -10.32873 -10.30673
 Alpha  occ. eigenvalues --  -10.29802 -10.29473 -10.28987 -10.28785 -10.28694
 Alpha  occ. eigenvalues --  -10.28617 -10.28470 -10.28222 -10.26875 -10.26758
 Alpha  occ. eigenvalues --  -10.26317 -10.26118 -10.26046 -10.25967 -10.25744
 Alpha  occ. eigenvalues --  -10.25704 -10.25685 -10.25656 -10.25504 -10.25496
 Alpha  occ. eigenvalues --  -10.25196 -10.24976 -10.24739 -10.24343 -10.24220
 Alpha  occ. eigenvalues --  -10.24150 -10.23888 -10.23881 -10.23831 -10.23760
 Alpha  occ. eigenvalues --  -10.23669 -10.23535 -10.23283 -10.23217 -10.22952
 Alpha  occ. eigenvalues --  -10.22870 -10.22805 -10.22611 -10.22480 -10.22356
 Alpha  occ. eigenvalues --  -10.22305 -10.22238 -10.22077 -10.22064 -10.22058
 Alpha  occ. eigenvalues --  -10.22017 -10.21988 -10.21626 -10.21455 -10.21315
 Alpha  occ. eigenvalues --  -10.21190  -3.15051  -1.87918  -1.87405  -1.87284
 Alpha  occ. eigenvalues --   -1.09982  -1.08221  -1.02497  -1.02495  -1.02256
 Alpha  occ. eigenvalues --   -1.00817  -1.00029  -0.99181  -0.98673  -0.98021
 Alpha  occ. eigenvalues --   -0.87063  -0.85076  -0.84544  -0.84324  -0.84109
 Alpha  occ. eigenvalues --   -0.83348  -0.82977  -0.82432  -0.81374  -0.81335
 Alpha  occ. eigenvalues --   -0.80347  -0.79685  -0.78428  -0.77859  -0.77457
 Alpha  occ. eigenvalues --   -0.76655  -0.76335  -0.75650  -0.75208  -0.74615
 Alpha  occ. eigenvalues --   -0.74422  -0.73327  -0.72897  -0.71652  -0.70440
 Alpha  occ. eigenvalues --   -0.70125  -0.69947  -0.69856  -0.68904  -0.68242
 Alpha  occ. eigenvalues --   -0.67726  -0.67093  -0.66526  -0.64838  -0.64517
 Alpha  occ. eigenvalues --   -0.63288  -0.62212  -0.61795  -0.60874  -0.60031
 Alpha  occ. eigenvalues --   -0.59781  -0.59569  -0.59279  -0.58876  -0.58121
 Alpha  occ. eigenvalues --   -0.57314  -0.57186  -0.56640  -0.55953  -0.55455
 Alpha  occ. eigenvalues --   -0.54905  -0.54550  -0.54001  -0.53334  -0.53003
 Alpha  occ. eigenvalues --   -0.52224  -0.51226  -0.51195  -0.50816  -0.50032
 Alpha  occ. eigenvalues --   -0.49582  -0.49502  -0.49273  -0.48955  -0.48377
 Alpha  occ. eigenvalues --   -0.48160  -0.47989  -0.47746  -0.47359  -0.47284
 Alpha  occ. eigenvalues --   -0.46927  -0.46836  -0.46720  -0.46557  -0.46442
 Alpha  occ. eigenvalues --   -0.46183  -0.45902  -0.45538  -0.45346  -0.45211
 Alpha  occ. eigenvalues --   -0.44928  -0.44553  -0.44494  -0.44149  -0.44028
 Alpha  occ. eigenvalues --   -0.43954  -0.43719  -0.43622  -0.43477  -0.43234
 Alpha  occ. eigenvalues --   -0.42887  -0.42801  -0.42756  -0.42646  -0.42415
 Alpha  occ. eigenvalues --   -0.42331  -0.42219  -0.42077  -0.41904  -0.41620
 Alpha  occ. eigenvalues --   -0.41362  -0.41257  -0.40964  -0.40786  -0.40679
 Alpha  occ. eigenvalues --   -0.40383  -0.40252  -0.39862  -0.39833  -0.39629
 Alpha  occ. eigenvalues --   -0.39312  -0.39201  -0.39049  -0.38830  -0.38654
 Alpha  occ. eigenvalues --   -0.38628  -0.38378  -0.38049  -0.37983  -0.37760
 Alpha  occ. eigenvalues --   -0.37409  -0.37274  -0.37119  -0.36980  -0.36435
 Alpha  occ. eigenvalues --   -0.36286  -0.36238  -0.36118  -0.36024  -0.35887
 Alpha  occ. eigenvalues --   -0.35731  -0.35587  -0.35465  -0.35425  -0.35172
 Alpha  occ. eigenvalues --   -0.35130  -0.34170  -0.33986  -0.33654  -0.33578
 Alpha  occ. eigenvalues --   -0.33156  -0.33038  -0.32794  -0.32745  -0.32120
 Alpha  occ. eigenvalues --   -0.32028  -0.31925  -0.31860  -0.31838  -0.30473
 Alpha  occ. eigenvalues --   -0.30457  -0.30333  -0.30242  -0.29824  -0.29746
 Alpha  occ. eigenvalues --   -0.29343  -0.29252  -0.27778  -0.27399  -0.26244
 Alpha  occ. eigenvalues --   -0.25952  -0.25496  -0.24886  -0.24674  -0.20802
 Alpha  occ. eigenvalues --   -0.19095
 Alpha virt. eigenvalues --   -0.11245  -0.05008  -0.04510  -0.02468  -0.01760
 Alpha virt. eigenvalues --    0.00094   0.00899   0.01152   0.02190   0.02294
 Alpha virt. eigenvalues --    0.03936   0.04628   0.04788   0.05584   0.05689

 Mulliken charges:
               1
     1  Mg   0.972221
     2  C    0.012187
     3  C   -0.076314
     4  C   -0.037114
     5  C   -0.068104
     6  N   -0.379714
     7  C    0.001269
     8  C   -0.088994
     9  C   -0.132947
    10  C    0.079424
    11  C    0.034139
    12  C   -0.024690
    13  C   -0.032192
    14  C    0.280950
    15  O   -0.267577
    16  O   -0.397966
    17  N   -0.469718
    18  C    0.153605
    19  C   -0.131640
    20  C   -0.054513
    21  C    0.156907
    22  C    0.034400
    23  C    0.056745
    24  O   -0.277197
    25  C   -0.025727
    26  N   -0.328709
    27  C    0.003300
    28  C   -0.121606
    29  C   -0.081232
    30  C    0.081272
    31  C    0.009352
    32  C   -0.031930
    33  C   -0.060827
    34  N   -0.429904
    35  C    0.138593
    36  C   -0.200071
    37  C    0.006182
    38  C    0.157812
    39  C    0.077250
    40  C    0.076226
    41  O   -0.247655
    42  C   -0.095292
    43  C    0.295730
    44  O   -0.295588
    45  O   -0.376838
    46  C    0.120589
    47  C    0.256859
    48  C   -0.179195
    49  C   -0.153110
    50  C    0.031956
    51  C    0.017516
    52  C   -0.058942
    53  C   -0.036131
    54  C   -0.221205
    55  C    0.018135
    56  C   -0.006167
    57  C   -0.052252
    58  C    0.009771
    59  C   -0.188334
    60  C    0.011414
    61  C   -0.044649
    62  C   -0.076955
    63  C   -0.017887
    64  C   -0.222944
    65  C   -0.039322
    66  C   -0.008739
    67  H    0.001779
    68  H    0.023029
    69  H    0.001197
    70  H    0.041786
    71  H    0.045422
    72  H    0.052224
    73  H    0.039200
    74  H    0.048655
    75  H    0.036804
    76  H    0.077527
    77  H    0.071790
    78  H    0.076952
    79  H    0.058931
    80  H    0.031162
    81  H    0.053889
    82  H    0.062124
    83  H    0.051592
    84  H    0.062942
    85  H    0.045159
    86  H    0.033794
    87  H    0.047199
    88  H    0.055803
    89  H    0.048668
    90  H    0.035145
    91  H    0.035837
    92  H    0.055224
    93  H    0.042318
    94  H    0.039927
    95  H    0.028186
    96  H    0.050001
    97  H    0.060108
    98  H    0.092505
    99  H    0.073744
   100  H    0.060276
   101  H    0.059889
   102  H    0.055354
   103  H    0.064177
   104  H    0.029139
   105  H    0.045734
   106  H    0.046686
   107  H    0.038942
   108  H    0.023556
   109  H    0.030726
   110  H    0.034824
   111  H    0.030655
   112  H    0.015081
   113  H    0.026474
   114  H    0.031255
   115  H    0.032240
   116  H    0.036019
   117  H    0.020614
   118  H    0.032047
   119  H    0.019905
   120  H    0.031566
   121  H    0.033158
   122  H    0.015508
   123  H    0.034243
   124  H    0.023527
   125  H    0.019563
   126  H    0.036824
   127  H    0.028226
   128  H    0.020684
   129  H    0.019120
   130  H    0.032329
   131  H    0.029069
   132  H    0.037173
   133  H    0.020770
   134  H    0.032952
   135  H    0.036071
   136  H    0.027670
   137  H    0.036036
   138  H    0.039574
   139  H    0.041549
   140  H    0.036255
 Sum of Mulliken charges =  -0.00000

 Dipole moment (field-independent basis, Debye):
    X=             -2.9974    Y=              5.6471    Z=             -1.4981  Tot=              6.5664
 Quadrupole moment (field-independent basis, Debye-Ang):
   XX=           -384.9948   YY=           -429.0612   ZZ=           -396.5847
   XY=             16.8207   XZ=             21.8403   YZ=              1.0753

 Normal termination of Gaussian 16 at Fri Apr 29 00:23:58 2022.
