 Gaussian 16, Revision A.03,
 Gaussian 16:  ES64L-G16RevA.03 25-Dec-2016

 --------------------------------
 #p wB97XD/Def2SVP td=(nstates=5)
 --------------------------------

 -----------------------------------------------------
 step_1801_chromophore_10 TDDFT with wB97XD functional
 -----------------------------------------------------
 Symbolic Z-matrix:
 Charge =  0 Multiplicity = 1

                         Standard orientation:
 ---------------------------------------------------------------------
 Center     Atomic      Atomic             Coordinates (Angstroms)
 Number     Number       Type             X           Y           Z
 ---------------------------------------------------------------------
      1         12           0        6.193958    0.492321    0.144470
      2          6           0        4.097246   -2.227726   -0.039498
      3          6           0        3.730502    2.461176   -1.293284
      4          6           0        8.350479    3.063763    0.209235
      5          6           0        8.683987   -1.545334    1.449036
      6          7           0        4.149693    0.038576   -0.632189
      7          6           0        3.460398   -1.092290   -0.496811
      8          6           0        2.006816   -0.908487   -0.969673
      9          6           0        2.034964    0.533297   -1.622137
     10          6           0        3.384015    1.064455   -1.204730
     11          6           0        1.745333    0.595016   -3.155096
     12          6           0        1.120156   -1.112020    0.243606
     13          6           0       -0.355968   -0.719490    0.160615
     14          6           0       -1.422910   -1.834244    0.418982
     15          8           0       -1.286853   -3.023670    0.804027
     16          8           0       -2.641278   -1.284008   -0.089512
     17          7           0        6.031109    2.500584   -0.444529
     18          6           0        4.899623    3.149050   -0.960189
     19          6           0        5.188331    4.560036   -1.204716
     20          6           0        6.496433    4.764808   -0.789395
     21          6           0        7.013048    3.380127   -0.320850
     22          6           0        4.294262    5.512581   -1.816242
     23          6           0        7.261215    6.044926   -0.576265
     24          8           0        8.495037    6.046087   -0.280591
     25          6           0        6.617922    7.390595   -0.863560
     26          7           0        8.297773    0.741424    0.639087
     27          6           0        8.934779    1.825168    0.624705
     28          6           0       10.428215    1.700780    0.981884
     29          6           0       10.399017    0.372549    1.816891
     30          6           0        9.077369   -0.215876    1.289731
     31          6           0       11.345296    1.625714   -0.330179
     32          6           0       10.531285    0.526887    3.364180
     33          6           0        9.347336    1.024442    4.124473
     34          7           0        6.363106   -1.531890    0.617061
     35          6           0        7.460158   -2.169335    1.040197
     36          6           0        7.103664   -3.540639    1.148343
     37          6           0        5.706650   -3.679705    0.780553
     38          6           0        5.376937   -2.360568    0.430743
     39          6           0        8.037420   -4.628340    1.535560
     40          6           0        4.596364   -4.546243    0.638251
     41          8           0        4.434664   -5.759235    0.873101
     42          6           0        3.464999   -3.681682    0.136916
     43          6           0        3.053218   -4.359136   -1.152286
     44          8           0        3.688173   -4.452102   -2.233540
     45          8           0        1.768687   -4.850338   -1.025831
     46          6           0        1.197375   -5.460916   -2.332906
     47          6           0       -3.649794   -2.317198   -0.248902
     48          6           0       -4.880429   -1.819832   -0.976367
     49          6           0       -6.004232   -2.418348   -1.295516
     50          6           0       -6.419248   -3.819973   -1.040415
     51          6           0       -6.947427   -1.587660   -2.162016
     52          6           0       -8.261789   -1.127980   -1.472890
     53          6           0       -8.146418    0.318861   -0.880106
     54          6           0       -9.276146    1.186413   -1.410875
     55          6           0       -8.949909    2.614650   -1.007208
     56          6           0      -10.670211    0.742265   -0.793954
     57          6           0      -11.767915    0.431558   -1.847055
     58          6           0      -12.952558    1.415538   -1.651681
     59          6           0      -14.115071    0.903006   -0.818331
     60          6           0      -15.288052    0.357576   -1.563912
     61          6           0      -14.660458    1.865949    0.179659
     62          6           0      -13.843281    2.132497    1.472166
     63          6           0      -14.776374    2.326450    2.731245
     64          6           0      -14.812908    1.053901    3.760127
     65          6           0      -16.272891    0.650272    3.995836
     66          6           0      -13.903752    1.119266    4.995412
     67          1           0        2.937629    3.132035   -1.629112
     68          1           0        9.102199    3.848605    0.317519
     69          1           0        9.387050   -2.238785    1.914489
     70          1           0        1.654032   -1.626441   -1.709873
     71          1           0        1.352202    1.203096   -1.098317
     72          1           0        0.917902    1.256438   -3.414102
     73          1           0        1.558269   -0.427502   -3.483051
     74          1           0        2.648595    0.864526   -3.702158
     75          1           0        1.640868   -0.572965    1.035640
     76          1           0        1.032377   -2.176077    0.463865
     77          1           0       -0.530821   -0.338001   -0.844983
     78          1           0       -0.419826    0.060958    0.919162
     79          1           0        3.770649    6.266669   -1.228257
     80          1           0        3.460632    4.993757   -2.288772
     81          1           0        4.765412    6.086134   -2.614736
     82          1           0        7.343049    8.143037   -0.554198
     83          1           0        5.656433    7.489084   -0.360305
     84          1           0        6.403543    7.563856   -1.917489
     85          1           0       10.792777    2.517816    1.605883
     86          1           0       11.319999   -0.152929    1.567502
     87          1           0       12.142773    2.342854   -0.139427
     88          1           0       10.861665    1.947876   -1.253283
     89          1           0       11.803580    0.657651   -0.534123
     90          1           0       11.393364    1.165336    3.554501
     91          1           0       10.807622   -0.439053    3.786907
     92          1           0        8.677035    1.635474    3.520068
     93          1           0        9.676477    1.530459    5.032006
     94          1           0        8.759864    0.179334    4.484064
     95          1           0        8.940038   -4.279592    2.036428
     96          1           0        8.446959   -5.023971    0.606225
     97          1           0        7.587901   -5.534201    1.941324
     98          1           0        2.675584   -3.877017    0.862928
     99          1           0        1.661580   -6.437114   -2.477077
    100          1           0        1.377770   -4.865933   -3.229102
    101          1           0        0.111828   -5.546723   -2.283014
    102          1           0       -3.996709   -2.514088    0.765571
    103          1           0       -3.299233   -3.203673   -0.776797
    104          1           0       -4.677396   -0.820612   -1.361785
    105          1           0       -6.519791   -4.339490   -1.993345
    106          1           0       -7.387305   -3.846586   -0.539198
    107          1           0       -5.757838   -4.481556   -0.481391
    108          1           0       -7.286825   -2.161460   -3.024824
    109          1           0       -6.582768   -0.625747   -2.523620
    110          1           0       -8.644024   -1.771340   -0.680827
    111          1           0       -9.043776   -1.137640   -2.231967
    112          1           0       -7.200821    0.777725   -1.168090
    113          1           0       -8.055536    0.437863    0.199888
    114          1           0       -9.322032    0.984933   -2.481189
    115          1           0       -7.939800    2.782456   -0.632226
    116          1           0       -9.733283    3.095040   -0.420886
    117          1           0       -8.893698    3.172106   -1.941983
    118          1           0      -11.008390    1.419040   -0.009625
    119          1           0      -10.531959   -0.206093   -0.274380
    120          1           0      -12.100054   -0.589569   -1.658511
    121          1           0      -11.462921    0.567326   -2.883728
    122          1           0      -13.329515    1.553212   -2.665405
    123          1           0      -12.573400    2.352040   -1.241268
    124          1           0      -13.752623    0.068358   -0.217793
    125          1           0      -15.296511    0.697569   -2.599739
    126          1           0      -16.264204    0.611417   -1.151172
    127          1           0      -15.120869   -0.718059   -1.623848
    128          1           0      -15.691829    1.682162    0.480604
    129          1           0      -14.761052    2.868078   -0.236549
    130          1           0      -13.122248    2.935719    1.318027
    131          1           0      -13.238368    1.246812    1.668622
    132          1           0      -15.757523    2.748984    2.517960
    133          1           0      -14.189884    3.124805    3.186167
    134          1           0      -14.475572    0.161945    3.232027
    135          1           0      -16.883300    1.538001    4.162091
    136          1           0      -16.436118   -0.052114    4.812390
    137          1           0      -16.588180    0.158024    3.075320
    138          1           0      -14.055754    1.973820    5.654395
    139          1           0      -12.927112    1.129818    4.511352
    140          1           0      -14.097927    0.226213    5.589910
 ---------------------------------------------------------------------

 SCF Done:  E(RwB97XD) =  -3007.84684474     A.U. after   17 cycles

 Excitation energies and oscillator strengths:

 Excited State   1:      Singlet-A      1.7601 eV  704.41 nm  f=0.3878  <S**2>=0.000
     245 -> 248       -0.18276
     246 -> 247        0.68213
     245 <- 248       -0.11098
 This state for optimization and/or second-order correction.
 Total Energy, E(TD-HF/TD-DFT) =  -3007.78216210
 Copying the excited state density for this state as the 1-particle RhoCI density.

 Excited State   2:      Singlet-A      2.1671 eV  572.11 nm  f=0.1307  <S**2>=0.000
     245 -> 247        0.65028
     246 -> 248        0.26244

 Excited State   3:      Singlet-A      3.3914 eV  365.58 nm  f=0.0001  <S**2>=0.000
     240 -> 247        0.51840
     240 -> 249        0.39860
     240 -> 250       -0.14973

 Excited State   4:      Singlet-A      3.5024 eV  354.00 nm  f=0.0113  <S**2>=0.000
     241 -> 247       -0.14647
     243 -> 247        0.27331
     243 -> 249       -0.13916
     243 -> 250       -0.18595
     244 -> 247        0.56246
     244 -> 249       -0.10733

 Excited State   5:      Singlet-A      3.5527 eV  348.98 nm  f=0.0113  <S**2>=0.000
     241 -> 247        0.12492
     243 -> 247        0.46577
     243 -> 249       -0.21513
     243 -> 250       -0.27176
     244 -> 247       -0.34204

 The electronic state is 1-A.
 Alpha  occ. eigenvalues --  -46.95991 -19.30713 -19.29556 -19.26865 -19.24424
 Alpha  occ. eigenvalues --  -19.23384 -19.22136 -14.47336 -14.46355 -14.45372
 Alpha  occ. eigenvalues --  -14.43295 -10.45097 -10.42562 -10.40086 -10.37256
 Alpha  occ. eigenvalues --  -10.36456 -10.36216 -10.35476 -10.35455 -10.35243
 Alpha  occ. eigenvalues --  -10.34739 -10.34672 -10.34524 -10.33900 -10.32687
 Alpha  occ. eigenvalues --  -10.32594 -10.32554 -10.32459 -10.32361 -10.32340
 Alpha  occ. eigenvalues --  -10.32189 -10.31949 -10.31839 -10.31790 -10.31753
 Alpha  occ. eigenvalues --  -10.31461 -10.31100 -10.30915 -10.30725 -10.30718
 Alpha  occ. eigenvalues --  -10.30704 -10.30482 -10.30224 -10.30135 -10.30092
 Alpha  occ. eigenvalues --  -10.29989 -10.29949 -10.29663 -10.29493 -10.29293
 Alpha  occ. eigenvalues --  -10.29282 -10.29174 -10.28845 -10.28719 -10.28696
 Alpha  occ. eigenvalues --  -10.28654 -10.28591 -10.28426 -10.28422 -10.28392
 Alpha  occ. eigenvalues --  -10.28375 -10.28051 -10.27950 -10.27887 -10.27686
 Alpha  occ. eigenvalues --  -10.27621  -3.21840  -1.95455  -1.94940  -1.94819
 Alpha  occ. eigenvalues --   -1.17346  -1.15524  -1.10376  -1.09824  -1.09448
 Alpha  occ. eigenvalues --   -1.08086  -1.07096  -1.06449  -1.06228  -1.05537
 Alpha  occ. eigenvalues --   -0.94478  -0.92747  -0.92198  -0.92115  -0.91953
 Alpha  occ. eigenvalues --   -0.90874  -0.90635  -0.90185  -0.89010  -0.88815
 Alpha  occ. eigenvalues --   -0.87871  -0.87278  -0.86099  -0.85424  -0.85107
 Alpha  occ. eigenvalues --   -0.84361  -0.84083  -0.83398  -0.82871  -0.82237
 Alpha  occ. eigenvalues --   -0.81999  -0.81356  -0.80475  -0.79192  -0.77948
 Alpha  occ. eigenvalues --   -0.77752  -0.77571  -0.77557  -0.76572  -0.75907
 Alpha  occ. eigenvalues --   -0.75311  -0.74557  -0.74098  -0.72493  -0.71991
 Alpha  occ. eigenvalues --   -0.70756  -0.69815  -0.69438  -0.68487  -0.67664
 Alpha  occ. eigenvalues --   -0.67361  -0.66975  -0.66709  -0.66291  -0.65798
 Alpha  occ. eigenvalues --   -0.64866  -0.64785  -0.64273  -0.63285  -0.63136
 Alpha  occ. eigenvalues --   -0.62414  -0.61984  -0.61300  -0.60693  -0.60325
 Alpha  occ. eigenvalues --   -0.59681  -0.58742  -0.58643  -0.58262  -0.57389
 Alpha  occ. eigenvalues --   -0.56991  -0.56897  -0.56572  -0.56245  -0.55827
 Alpha  occ. eigenvalues --   -0.55573  -0.55440  -0.55151  -0.54848  -0.54692
 Alpha  occ. eigenvalues --   -0.54604  -0.54251  -0.54021  -0.53911  -0.53680
 Alpha  occ. eigenvalues --   -0.53546  -0.53293  -0.52874  -0.52614  -0.52441
 Alpha  occ. eigenvalues --   -0.52253  -0.52037  -0.51878  -0.51799  -0.51372
 Alpha  occ. eigenvalues --   -0.51295  -0.51076  -0.50950  -0.50919  -0.50523
 Alpha  occ. eigenvalues --   -0.50120  -0.50053  -0.49999  -0.49984  -0.49774
 Alpha  occ. eigenvalues --   -0.49606  -0.49539  -0.49344  -0.49123  -0.48838
 Alpha  occ. eigenvalues --   -0.48590  -0.48492  -0.48149  -0.48022  -0.47645
 Alpha  occ. eigenvalues --   -0.47610  -0.47406  -0.47036  -0.47018  -0.46660
 Alpha  occ. eigenvalues --   -0.46445  -0.46393  -0.46323  -0.45996  -0.45811
 Alpha  occ. eigenvalues --   -0.45766  -0.45513  -0.45164  -0.45108  -0.44898
 Alpha  occ. eigenvalues --   -0.44497  -0.44286  -0.44222  -0.44011  -0.43666
 Alpha  occ. eigenvalues --   -0.43393  -0.43358  -0.43260  -0.43183  -0.42879
 Alpha  occ. eigenvalues --   -0.42620  -0.42597  -0.42514  -0.42445  -0.42240
 Alpha  occ. eigenvalues --   -0.42185  -0.41165  -0.41061  -0.40629  -0.40604
 Alpha  occ. eigenvalues --   -0.40196  -0.40077  -0.39800  -0.39646  -0.39174
 Alpha  occ. eigenvalues --   -0.39077  -0.38944  -0.38818  -0.38657  -0.37480
 Alpha  occ. eigenvalues --   -0.37461  -0.37295  -0.37261  -0.36662  -0.36528
 Alpha  occ. eigenvalues --   -0.36295  -0.35926  -0.34760  -0.34309  -0.33527
 Alpha  occ. eigenvalues --   -0.32795  -0.32248  -0.31750  -0.30846  -0.25814
 Alpha  occ. eigenvalues --   -0.23368
 Alpha virt. eigenvalues --   -0.07058   0.00407   0.01630   0.04095   0.05171
 Alpha virt. eigenvalues --    0.06000   0.07670   0.07873   0.08581   0.08897
 Alpha virt. eigenvalues --    0.10506   0.11419   0.11573   0.12290   0.12420

 Mulliken charges:
               1
     1  Mg   0.963665
     2  C    0.007798
     3  C   -0.096036
     4  C   -0.060007
     5  C   -0.080785
     6  N   -0.344003
     7  C   -0.033811
     8  C   -0.063193
     9  C   -0.109438
    10  C    0.068694
    11  C    0.043451
    12  C   -0.007549
    13  C   -0.017927
    14  C    0.275814
    15  O   -0.265736
    16  O   -0.398516
    17  N   -0.439835
    18  C    0.153708
    19  C   -0.115496
    20  C   -0.047425
    21  C    0.149958
    22  C    0.040623
    23  C    0.054103
    24  O   -0.268419
    25  C   -0.014216
    26  N   -0.295328
    27  C   -0.006348
    28  C   -0.100106
    29  C   -0.054947
    30  C    0.064840
    31  C    0.016865
    32  C   -0.020537
    33  C   -0.040609
    34  N   -0.383126
    35  C    0.120262
    36  C   -0.193346
    37  C    0.004554
    38  C    0.138014
    39  C    0.085171
    40  C    0.060915
    41  O   -0.240396
    42  C   -0.058453
    43  C    0.271392
    44  O   -0.291144
    45  O   -0.377002
    46  C    0.137345
    47  C    0.268864
    48  C   -0.187920
    49  C   -0.138796
    50  C    0.042537
    51  C    0.041716
    52  C   -0.045070
    53  C   -0.019608
    54  C   -0.185550
    55  C    0.028653
    56  C    0.008360
    57  C   -0.035692
    58  C    0.028008
    59  C   -0.157188
    60  C    0.022509
    61  C   -0.026768
    62  C   -0.056906
    63  C   -0.006271
    64  C   -0.195099
    65  C   -0.025128
    66  C    0.005821
    67  H   -0.004735
    68  H    0.017752
    69  H   -0.006091
    70  H    0.030387
    71  H    0.034067
    72  H    0.048312
    73  H    0.034380
    74  H    0.042982
    75  H    0.028165
    76  H    0.062712
    77  H    0.063606
    78  H    0.071956
    79  H    0.057489
    80  H    0.028214
    81  H    0.050007
    82  H    0.062490
    83  H    0.046066
    84  H    0.059016
    85  H    0.037023
    86  H    0.024397
    87  H    0.041767
    88  H    0.049828
    89  H    0.044267
    90  H    0.026603
    91  H    0.028827
    92  H    0.042890
    93  H    0.037223
    94  H    0.033616
    95  H    0.020895
    96  H    0.042011
    97  H    0.055768
    98  H    0.087582
    99  H    0.069929
   100  H    0.055327
   101  H    0.056700
   102  H    0.049554
   103  H    0.058990
   104  H    0.025221
   105  H    0.040114
   106  H    0.040769
   107  H    0.035207
   108  H    0.016365
   109  H    0.021022
   110  H    0.025520
   111  H    0.020013
   112  H    0.001860
   113  H    0.018337
   114  H    0.016812
   115  H    0.026588
   116  H    0.030456
   117  H    0.014433
   118  H    0.017469
   119  H    0.009779
   120  H    0.023056
   121  H    0.025805
   122  H    0.006463
   123  H    0.021707
   124  H    0.007436
   125  H    0.012785
   126  H    0.031739
   127  H    0.022801
   128  H    0.008193
   129  H    0.009306
   130  H    0.025270
   131  H    0.014669
   132  H    0.029876
   133  H    0.012277
   134  H    0.020223
   135  H    0.028844
   136  H    0.022502
   137  H    0.028768
   138  H    0.033940
   139  H    0.034265
   140  H    0.030226
 Sum of Mulliken charges =  -0.00000

 Dipole moment (field-independent basis, Debye):
    X=             -3.2300    Y=              6.6916    Z=             -1.7891  Tot=              7.6427
 Quadrupole moment (field-independent basis, Debye-Ang):
   XX=           -388.1465   YY=           -426.1127   ZZ=           -396.1488
   XY=             23.2015   XZ=             19.7447   YZ=              0.7863

 Normal termination of Gaussian 16 at Fri Apr 29 00:49:15 2022.
