 Gaussian 16, Revision A.03,
 Gaussian 16:  ES64L-G16RevA.03 25-Dec-2016

 --------------------
 #p ZINDO=(nstates=5)
 --------------------

 ------------------------------
 step_1801_chromophore_10 ZINDO
 ------------------------------
 Symbolic Z-matrix:
 Charge =  0 Multiplicity = 1

                         Standard orientation:
 ---------------------------------------------------------------------
 Center     Atomic      Atomic             Coordinates (Angstroms)
 Number     Number       Type             X           Y           Z
 ---------------------------------------------------------------------
      1         12           0        6.193958    0.492321    0.144470
      2          6           0        4.097246   -2.227726   -0.039498
      3          6           0        3.730502    2.461176   -1.293284
      4          6           0        8.350479    3.063763    0.209235
      5          6           0        8.683987   -1.545334    1.449036
      6          7           0        4.149693    0.038576   -0.632189
      7          6           0        3.460398   -1.092290   -0.496811
      8          6           0        2.006816   -0.908487   -0.969673
      9          6           0        2.034964    0.533297   -1.622137
     10          6           0        3.384015    1.064455   -1.204730
     11          6           0        1.745333    0.595016   -3.155096
     12          6           0        1.120156   -1.112020    0.243606
     13          6           0       -0.355968   -0.719490    0.160615
     14          6           0       -1.422910   -1.834244    0.418982
     15          8           0       -1.286853   -3.023670    0.804027
     16          8           0       -2.641278   -1.284008   -0.089512
     17          7           0        6.031109    2.500584   -0.444529
     18          6           0        4.899623    3.149050   -0.960189
     19          6           0        5.188331    4.560036   -1.204716
     20          6           0        6.496433    4.764808   -0.789395
     21          6           0        7.013048    3.380127   -0.320850
     22          6           0        4.294262    5.512581   -1.816242
     23          6           0        7.261215    6.044926   -0.576265
     24          8           0        8.495037    6.046087   -0.280591
     25          6           0        6.617922    7.390595   -0.863560
     26          7           0        8.297773    0.741424    0.639087
     27          6           0        8.934779    1.825168    0.624705
     28          6           0       10.428215    1.700780    0.981884
     29          6           0       10.399017    0.372549    1.816891
     30          6           0        9.077369   -0.215876    1.289731
     31          6           0       11.345296    1.625714   -0.330179
     32          6           0       10.531285    0.526887    3.364180
     33          6           0        9.347336    1.024442    4.124473
     34          7           0        6.363106   -1.531890    0.617061
     35          6           0        7.460158   -2.169335    1.040197
     36          6           0        7.103664   -3.540639    1.148343
     37          6           0        5.706650   -3.679705    0.780553
     38          6           0        5.376937   -2.360568    0.430743
     39          6           0        8.037420   -4.628340    1.535560
     40          6           0        4.596364   -4.546243    0.638251
     41          8           0        4.434664   -5.759235    0.873101
     42          6           0        3.464999   -3.681682    0.136916
     43          6           0        3.053218   -4.359136   -1.152286
     44          8           0        3.688173   -4.452102   -2.233540
     45          8           0        1.768687   -4.850338   -1.025831
     46          6           0        1.197375   -5.460916   -2.332906
     47          6           0       -3.649794   -2.317198   -0.248902
     48          6           0       -4.880429   -1.819832   -0.976367
     49          6           0       -6.004232   -2.418348   -1.295516
     50          6           0       -6.419248   -3.819973   -1.040415
     51          6           0       -6.947427   -1.587660   -2.162016
     52          6           0       -8.261789   -1.127980   -1.472890
     53          6           0       -8.146418    0.318861   -0.880106
     54          6           0       -9.276146    1.186413   -1.410875
     55          6           0       -8.949909    2.614650   -1.007208
     56          6           0      -10.670211    0.742265   -0.793954
     57          6           0      -11.767915    0.431558   -1.847055
     58          6           0      -12.952558    1.415538   -1.651681
     59          6           0      -14.115071    0.903006   -0.818331
     60          6           0      -15.288052    0.357576   -1.563912
     61          6           0      -14.660458    1.865949    0.179659
     62          6           0      -13.843281    2.132497    1.472166
     63          6           0      -14.776374    2.326450    2.731245
     64          6           0      -14.812908    1.053901    3.760127
     65          6           0      -16.272891    0.650272    3.995836
     66          6           0      -13.903752    1.119266    4.995412
     67          1           0        2.937629    3.132035   -1.629112
     68          1           0        9.102199    3.848605    0.317519
     69          1           0        9.387050   -2.238785    1.914489
     70          1           0        1.654032   -1.626441   -1.709873
     71          1           0        1.352202    1.203096   -1.098317
     72          1           0        0.917902    1.256438   -3.414102
     73          1           0        1.558269   -0.427502   -3.483051
     74          1           0        2.648595    0.864526   -3.702158
     75          1           0        1.640868   -0.572965    1.035640
     76          1           0        1.032377   -2.176077    0.463865
     77          1           0       -0.530821   -0.338001   -0.844983
     78          1           0       -0.419826    0.060958    0.919162
     79          1           0        3.770649    6.266669   -1.228257
     80          1           0        3.460632    4.993757   -2.288772
     81          1           0        4.765412    6.086134   -2.614736
     82          1           0        7.343049    8.143037   -0.554198
     83          1           0        5.656433    7.489084   -0.360305
     84          1           0        6.403543    7.563856   -1.917489
     85          1           0       10.792777    2.517816    1.605883
     86          1           0       11.319999   -0.152929    1.567502
     87          1           0       12.142773    2.342854   -0.139427
     88          1           0       10.861665    1.947876   -1.253283
     89          1           0       11.803580    0.657651   -0.534123
     90          1           0       11.393364    1.165336    3.554501
     91          1           0       10.807622   -0.439053    3.786907
     92          1           0        8.677035    1.635474    3.520068
     93          1           0        9.676477    1.530459    5.032006
     94          1           0        8.759864    0.179334    4.484064
     95          1           0        8.940038   -4.279592    2.036428
     96          1           0        8.446959   -5.023971    0.606225
     97          1           0        7.587901   -5.534201    1.941324
     98          1           0        2.675584   -3.877017    0.862928
     99          1           0        1.661580   -6.437114   -2.477077
    100          1           0        1.377770   -4.865933   -3.229102
    101          1           0        0.111828   -5.546723   -2.283014
    102          1           0       -3.996709   -2.514088    0.765571
    103          1           0       -3.299233   -3.203673   -0.776797
    104          1           0       -4.677396   -0.820612   -1.361785
    105          1           0       -6.519791   -4.339490   -1.993345
    106          1           0       -7.387305   -3.846586   -0.539198
    107          1           0       -5.757838   -4.481556   -0.481391
    108          1           0       -7.286825   -2.161460   -3.024824
    109          1           0       -6.582768   -0.625747   -2.523620
    110          1           0       -8.644024   -1.771340   -0.680827
    111          1           0       -9.043776   -1.137640   -2.231967
    112          1           0       -7.200821    0.777725   -1.168090
    113          1           0       -8.055536    0.437863    0.199888
    114          1           0       -9.322032    0.984933   -2.481189
    115          1           0       -7.939800    2.782456   -0.632226
    116          1           0       -9.733283    3.095040   -0.420886
    117          1           0       -8.893698    3.172106   -1.941983
    118          1           0      -11.008390    1.419040   -0.009625
    119          1           0      -10.531959   -0.206093   -0.274380
    120          1           0      -12.100054   -0.589569   -1.658511
    121          1           0      -11.462921    0.567326   -2.883728
    122          1           0      -13.329515    1.553212   -2.665405
    123          1           0      -12.573400    2.352040   -1.241268
    124          1           0      -13.752623    0.068358   -0.217793
    125          1           0      -15.296511    0.697569   -2.599739
    126          1           0      -16.264204    0.611417   -1.151172
    127          1           0      -15.120869   -0.718059   -1.623848
    128          1           0      -15.691829    1.682162    0.480604
    129          1           0      -14.761052    2.868078   -0.236549
    130          1           0      -13.122248    2.935719    1.318027
    131          1           0      -13.238368    1.246812    1.668622
    132          1           0      -15.757523    2.748984    2.517960
    133          1           0      -14.189884    3.124805    3.186167
    134          1           0      -14.475572    0.161945    3.232027
    135          1           0      -16.883300    1.538001    4.162091
    136          1           0      -16.436118   -0.052114    4.812390
    137          1           0      -16.588180    0.158024    3.075320
    138          1           0      -14.055754    1.973820    5.654395
    139          1           0      -12.927112    1.129818    4.511352
    140          1           0      -14.097927    0.226213    5.589910
 ---------------------------------------------------------------------

 SCF Done:  E(RZINDO/S) =  -474.271679413     A.U. after   20 cycles

 Excitation energies and oscillator strengths:

 Excited State   1:      Singlet-A      1.3569 eV  913.74 nm  f=0.5678  <S**2>=0.000
     175 ->178         0.14309
     176 ->177         0.67194
 This state for optimization and/or second-order correction.
 Total Energy, E(CIS/TDA) =  -474.221814569
 Copying the excited state density for this state as the 1-particle RhoCI density.

 Excited State   2:      Singlet-A      1.9369 eV  640.13 nm  f=0.0758  <S**2>=0.000
     175 ->177         0.57079
     176 ->178        -0.35077
     176 ->179        -0.14714

 Excited State   3:      Singlet-A      2.8348 eV  437.37 nm  f=0.0004  <S**2>=0.000
     167 ->177        -0.31379
     167 ->178        -0.17322
     167 ->179         0.40303
     167 ->181        -0.13931
     167 ->185         0.16060
     168 ->177         0.18215
     168 ->179        -0.21697

 Excited State   4:      Singlet-A      2.9879 eV  414.96 nm  f=0.0472  <S**2>=0.000
     171 ->177         0.30799
     171 ->178        -0.21909
     171 ->179         0.11294
     171 ->181         0.44011
     171 ->185         0.16389
     171 ->189         0.18607
     171 ->205        -0.10882
     176 ->178         0.14132

 Excited State   5:      Singlet-A      3.0285 eV  409.40 nm  f=0.7975  <S**2>=0.000
     171 ->181        -0.11938
     175 ->177         0.31554
     176 ->178         0.53822
     176 ->181        -0.19306

 The electronic state is 1-A.
 Alpha  occ. eigenvalues --   -1.86636  -1.82672  -1.80692  -1.73035  -1.70391
 Alpha  occ. eigenvalues --   -1.68888  -1.67103  -1.62027  -1.57226  -1.56924
 Alpha  occ. eigenvalues --   -1.54267  -1.52066  -1.49320  -1.47108  -1.45725
 Alpha  occ. eigenvalues --   -1.43268  -1.42154  -1.40139  -1.38934  -1.38165
 Alpha  occ. eigenvalues --   -1.35660  -1.33315  -1.33070  -1.32042  -1.30227
 Alpha  occ. eigenvalues --   -1.29554  -1.23835  -1.22714  -1.21936  -1.18658
 Alpha  occ. eigenvalues --   -1.17943  -1.16672  -1.15537  -1.14823  -1.13148
 Alpha  occ. eigenvalues --   -1.12168  -1.11757  -1.10584  -1.05634  -1.03904
 Alpha  occ. eigenvalues --   -1.03303  -1.01513  -0.99580  -0.98348  -0.96435
 Alpha  occ. eigenvalues --   -0.95780  -0.94226  -0.93691  -0.93271  -0.92056
 Alpha  occ. eigenvalues --   -0.90613  -0.90410  -0.89251  -0.87278  -0.87000
 Alpha  occ. eigenvalues --   -0.85989  -0.83943  -0.83495  -0.82460  -0.81487
 Alpha  occ. eigenvalues --   -0.80516  -0.79009  -0.77534  -0.76557  -0.76542
 Alpha  occ. eigenvalues --   -0.75370  -0.75205  -0.74911  -0.73798  -0.73642
 Alpha  occ. eigenvalues --   -0.73250  -0.72604  -0.72261  -0.71436  -0.70752
 Alpha  occ. eigenvalues --   -0.70248  -0.69742  -0.69222  -0.68815  -0.68635
 Alpha  occ. eigenvalues --   -0.67495  -0.67002  -0.66644  -0.65953  -0.65778
 Alpha  occ. eigenvalues --   -0.65443  -0.65114  -0.64448  -0.64026  -0.63033
 Alpha  occ. eigenvalues --   -0.62376  -0.62308  -0.62216  -0.62062  -0.61920
 Alpha  occ. eigenvalues --   -0.61604  -0.61166  -0.61107  -0.60534  -0.60057
 Alpha  occ. eigenvalues --   -0.59695  -0.59413  -0.59384  -0.59011  -0.58420
 Alpha  occ. eigenvalues --   -0.58269  -0.57807  -0.57419  -0.56949  -0.56333
 Alpha  occ. eigenvalues --   -0.56144  -0.55679  -0.55398  -0.55072  -0.54895
 Alpha  occ. eigenvalues --   -0.54231  -0.54056  -0.53377  -0.53039  -0.52803
 Alpha  occ. eigenvalues --   -0.52478  -0.52191  -0.52173  -0.52038  -0.51377
 Alpha  occ. eigenvalues --   -0.50754  -0.50696  -0.50543  -0.50376  -0.50222
 Alpha  occ. eigenvalues --   -0.49984  -0.49813  -0.49107  -0.49024  -0.48806
 Alpha  occ. eigenvalues --   -0.48787  -0.48361  -0.48229  -0.48128  -0.47817
 Alpha  occ. eigenvalues --   -0.47249  -0.47010  -0.46973  -0.46429  -0.46369
 Alpha  occ. eigenvalues --   -0.46055  -0.45880  -0.45696  -0.45559  -0.45291
 Alpha  occ. eigenvalues --   -0.45206  -0.44908  -0.44113  -0.43522  -0.43416
 Alpha  occ. eigenvalues --   -0.43224  -0.43021  -0.42846  -0.42817  -0.42431
 Alpha  occ. eigenvalues --   -0.41641  -0.41452  -0.40187  -0.40150  -0.39132
 Alpha  occ. eigenvalues --   -0.37296  -0.36944  -0.36394  -0.35592  -0.34757
 Alpha  occ. eigenvalues --   -0.33434  -0.32803  -0.32480  -0.30742  -0.26754
 Alpha  occ. eigenvalues --   -0.22258
 Alpha virt. eigenvalues --   -0.08595  -0.02138  -0.01169   0.00041   0.01023
 Alpha virt. eigenvalues --    0.02466   0.02885   0.03384   0.04591   0.05251
 Alpha virt. eigenvalues --    0.05877   0.06179   0.06712   0.07303   0.07513

 Mulliken charges:
               1
     1  Mg   0.427283
     2  C   -0.027802
     3  C   -0.082335
     4  C   -0.115068
     5  C   -0.057268
     6  N   -0.280746
     7  C    0.109206
     8  C    0.006551
     9  C    0.005272
    10  C    0.153347
    11  C   -0.048456
    12  C   -0.031003
    13  C    0.003852
    14  C    0.455054
    15  O   -0.494372
    16  O   -0.279288
    17  N   -0.319178
    18  C    0.123476
    19  C    0.052292
    20  C   -0.035863
    21  C    0.161102
    22  C   -0.035972
    23  C    0.326549
    24  O   -0.526148
    25  C   -0.028790
    26  N   -0.255514
    27  C    0.203949
    28  C    0.002584
    29  C    0.000683
    30  C    0.072872
    31  C   -0.050844
    32  C   -0.020407
    33  C   -0.049792
    34  N   -0.296694
    35  C    0.063924
    36  C    0.015354
    37  C   -0.080413
    38  C    0.117363
    39  C   -0.048029
    40  C    0.341445
    41  O   -0.554162
    42  C    0.046198
    43  C    0.489046
    44  O   -0.542446
    45  O   -0.268017
    46  C    0.072328
    47  C    0.101587
    48  C   -0.082134
    49  C    0.001072
    50  C   -0.036127
    51  C   -0.025961
    52  C   -0.037587
    53  C   -0.037115
    54  C   -0.009493
    55  C   -0.060221
    56  C   -0.042006
    57  C   -0.039526
    58  C   -0.032339
    59  C    0.003926
    60  C   -0.054360
    61  C   -0.034590
    62  C   -0.042960
    63  C   -0.045506
    64  C   -0.015335
    65  C   -0.056739
    66  C   -0.051946
    67  H    0.022919
    68  H    0.041057
    69  H    0.028647
    70  H    0.036066
    71  H    0.024893
    72  H    0.027375
    73  H    0.026192
    74  H    0.025776
    75  H    0.023700
    76  H    0.037323
    77  H    0.042754
    78  H    0.046395
    79  H    0.038046
    80  H    0.016077
    81  H    0.029863
    82  H    0.041221
    83  H    0.031417
    84  H    0.040981
    85  H    0.032678
    86  H    0.024299
    87  H    0.017908
    88  H    0.027991
    89  H    0.028119
    90  H    0.013915
    91  H    0.016253
    92  H    0.024502
    93  H    0.016650
    94  H    0.016081
    95  H    0.022636
    96  H    0.023856
    97  H    0.037648
    98  H    0.067829
    99  H    0.050221
   100  H    0.042843
   101  H    0.032751
   102  H    0.047533
   103  H    0.058911
   104  H    0.023298
   105  H    0.025288
   106  H    0.026741
   107  H    0.022599
   108  H    0.016345
   109  H    0.026746
   110  H    0.020138
   111  H    0.015946
   112  H    0.007994
   113  H    0.021437
   114  H    0.028718
   115  H    0.023795
   116  H    0.025490
   117  H    0.003026
   118  H    0.026722
   119  H    0.008494
   120  H    0.021974
   121  H    0.023510
   122  H    0.011732
   123  H    0.023533
   124  H    0.012954
   125  H    0.011655
   126  H    0.025100
   127  H    0.012588
   128  H    0.017142
   129  H    0.005689
   130  H    0.021411
   131  H    0.012898
   132  H    0.033435
   133  H    0.008529
   134  H    0.013962
   135  H    0.016394
   136  H    0.017537
   137  H    0.013918
   138  H    0.023557
   139  H    0.021988
   140  H    0.020627
 Sum of Mulliken charges =  -0.00000

 Dipole moment (field-independent basis, Debye):
    X=             -5.5543    Y=             12.2552    Z=             -2.4417  Tot=             13.6749
 N-N= 4.194704620612D+03 E-N= 0.000000000000D+00  KE=-9.063578301576D+03
 Leave Link  601 at Fri Apr 29 01:02:24 2022, MaxMem=  6710886400 cpu:               0.8 elap:               0.1
 (Enter /sw/apps/gaussian-16.0/g16/l9999.exe)
 1\1\GINC-BP1-COMPUTE070\SP\RZINDO CIS\STO-3G\C55H74Mg1N4O6\OF15641\29-
 Apr-2022\0\\#p ZINDO=(nstates=5)\\step_1801_chromophore_10 ZINDO\\0,1\
 Mg,0,41.837,7.571,29.236\C,0,43.508,9.174,31.779\C,0,39.642,6.225,31.5
 56\C,0,40.355,5.911,26.723\C,0,44.143,8.824,26.963\N,0,41.72,7.693,31.
 463\C,0,42.417,8.488,32.272\C,0,41.865,8.429,33.708\C,0,40.81,7.252,33
 .625\C,0,40.713,6.992,32.142\C,0,41.119,5.995,34.498\C,0,41.345,9.815,
 34.037\C,0,40.482,10.009,35.285\C,0,40.988,11.013,36.373\O,0,41.964,11

 Normal termination of Gaussian 16 at Fri Apr 29 01:02:24 2022.
