 Gaussian 16, Revision A.03,
 Gaussian 16:  ES64L-G16RevA.03 25-Dec-2016

 ------------------------------
 #p blyp/Def2SVP td=(nstates=5)
 ------------------------------

 --------------------------------------------------
 step_1801_chromophore_3 TDDFT with blyp functional
 --------------------------------------------------
 Symbolic Z-matrix:
 Charge =  0 Multiplicity = 1

                         Standard orientation:
 ---------------------------------------------------------------------
 Center     Atomic      Atomic             Coordinates (Angstroms)
 Number     Number       Type             X           Y           Z
 ---------------------------------------------------------------------
      1         12           0        5.046797    1.005664    0.094378
      2          6           0        4.302838   -2.524011   -0.323201
      3          6           0        1.773156    1.601206   -0.319163
      4          6           0        5.830871    4.247272    0.474392
      5          6           0        8.476649    0.232694   -0.034161
      6          7           0        3.166601   -0.344289   -0.163128
      7          6           0        3.137772   -1.741320   -0.325001
      8          6           0        1.647756   -2.181938   -0.157884
      9          6           0        0.878398   -0.846798   -0.501718
     10          6           0        2.015366    0.204097   -0.401148
     11          6           0        0.043033   -0.736086   -1.808076
     12          6           0        1.349073   -2.709358    1.231204
     13          6           0        0.280538   -3.807981    1.391329
     14          6           0       -0.891203   -3.939986    0.332326
     15          8           0       -0.829149   -4.626922   -0.662375
     16          8           0       -1.969463   -3.130024    0.644123
     17          7           0        3.890752    2.756298    0.214189
     18          6           0        2.512308    2.787380    0.016539
     19          6           0        2.133954    4.110316    0.262113
     20          6           0        3.254519    4.866444    0.460686
     21          6           0        4.412022    3.974711    0.418139
     22          6           0        0.767397    4.597306    0.058865
     23          6           0        3.483666    6.395006    0.635452
     24          8           0        4.556512    6.888998    0.742490
     25          6           0        2.298398    7.313776    0.637155
     26          7           0        6.884448    2.002753    0.031311
     27          6           0        6.920664    3.377472    0.236144
     28          6           0        8.309220    3.938622   -0.005067
     29          6           0        9.180803    2.568761    0.153156
     30          6           0        8.084451    1.537402   -0.075280
     31          6           0        8.625930    4.675590   -1.349641
     32          6           0        9.878964    2.591357    1.570244
     33          6           0       11.342002    2.031937    1.528897
     34          7           0        6.200302   -0.783824   -0.135096
     35          6           0        7.591014   -0.895217   -0.125702
     36          6           0        7.929898   -2.290125   -0.253756
     37          6           0        6.661906   -3.006039   -0.167056
     38          6           0        5.633523   -2.024146   -0.141507
     39          6           0        9.275051   -2.877358   -0.443722
     40          6           0        6.033686   -4.300183   -0.236594
     41          8           0        6.452723   -5.446470   -0.315272
     42          6           0        4.457014   -3.996230   -0.331945
     43          6           0        3.776342   -4.572020   -1.496760
     44          8           0        3.553546   -4.094402   -2.567734
     45          8           0        3.267591   -5.734019   -1.093492
     46          6           0        2.354014   -6.321622   -2.117990
     47          6           0       -3.180703   -2.905680   -0.170450
     48          6           0       -4.404038   -3.024355    0.728720
     49          6           0       -5.369099   -3.953991    0.698951
     50          6           0       -5.216031   -5.261753   -0.055888
     51          6           0       -6.571742   -3.783385    1.645739
     52          6           0       -7.480002   -2.584869    1.284999
     53          6           0       -7.507084   -1.399297    2.309760
     54          6           0       -9.036129   -1.076438    2.699554
     55          6           0       -9.123006   -0.670012    4.103088
     56          6           0       -9.706761   -0.084792    1.755666
     57          6           0      -11.109267   -0.542884    1.443702
     58          6           0      -11.336389   -0.864818   -0.062020
     59          6           0      -12.303102    0.145187   -0.802234
     60          6           0      -13.209338   -0.521394   -1.839125
     61          6           0      -11.595754    1.322034   -1.464552
     62          6           0      -12.356760    2.650952   -1.296111
     63          6           0      -11.548152    3.818714   -2.092943
     64          6           0      -10.926630    4.955735   -1.244110
     65          6           0      -11.954430    6.030379   -0.992953
     66          6           0       -9.601007    5.416830   -1.904093
     67          1           0        0.692550    1.753985   -0.356292
     68          1           0        6.171683    5.277347    0.597940
     69          1           0        9.522015   -0.080305   -0.069320
     70          1           0        1.507720   -3.049439   -0.803864
     71          1           0        0.141610   -0.547825    0.245225
     72          1           0       -0.109137   -1.784955   -2.063116
     73          1           0        0.485808   -0.109400   -2.582633
     74          1           0       -0.898798   -0.301996   -1.474153
     75          1           0        1.134864   -1.825086    1.831635
     76          1           0        2.344275   -3.018276    1.551504
     77          1           0       -0.130784   -3.865391    2.399301
     78          1           0        0.770383   -4.780112    1.332454
     79          1           0        0.327071    4.883661    1.013357
     80          1           0        0.067734    3.885691   -0.379610
     81          1           0        0.616446    5.345951   -0.718617
     82          1           0        1.545667    6.889437    1.301277
     83          1           0        1.935903    7.373442   -0.388858
     84          1           0        2.610214    8.330201    0.876266
     85          1           0        8.544857    4.688182    0.750135
     86          1           0        9.923147    2.465661   -0.638309
     87          1           0        7.779761    4.785610   -2.027734
     88          1           0        9.478904    4.299205   -1.914639
     89          1           0        8.852840    5.679103   -0.990113
     90          1           0        9.251366    1.941167    2.179974
     91          1           0        9.819695    3.570755    2.044858
     92          1           0       11.985417    2.651991    2.152743
     93          1           0       11.912966    1.975116    0.601043
     94          1           0       11.350957    1.046248    1.993043
     95          1           0        9.959641   -2.197391    0.063892
     96          1           0        9.424444   -3.048085   -1.510381
     97          1           0        9.310828   -3.867217    0.011085
     98          1           0        3.990502   -4.393935    0.569880
     99          1           0        1.460785   -5.724203   -2.296722
    100          1           0        2.036141   -7.271972   -1.687621
    101          1           0        2.890211   -6.426945   -3.061076
    102          1           0       -3.178789   -3.544831   -1.054246
    103          1           0       -3.198307   -1.880231   -0.537341
    104          1           0       -4.483193   -2.136101    1.356110
    105          1           0       -5.976624   -5.261589   -0.837061
    106          1           0       -5.408966   -6.100581    0.611988
    107          1           0       -4.204599   -5.366446   -0.447505
    108          1           0       -6.223454   -3.676727    2.672543
    109          1           0       -7.202291   -4.666758    1.739036
    110          1           0       -8.482904   -2.972959    1.107971
    111          1           0       -7.150592   -2.243707    0.303128
    112          1           0       -7.082483   -0.533549    1.803085
    113          1           0       -6.858899   -1.544692    3.173451
    114          1           0       -9.526546   -2.049566    2.676864
    115          1           0       -8.168472   -0.238352    4.405080
    116          1           0       -9.395012   -1.480613    4.779691
    117          1           0       -9.870011    0.097160    4.308579
    118          1           0       -9.049410   -0.019853    0.889206
    119          1           0       -9.732536    0.886107    2.252322
    120          1           0      -11.820175    0.213472    1.776544
    121          1           0      -11.442999   -1.402874    2.023752
    122          1           0      -11.817552   -1.842250   -0.109324
    123          1           0      -10.411313   -1.088150   -0.593002
    124          1           0      -13.081863    0.466271   -0.109470
    125          1           0      -13.566175    0.250863   -2.519661
    126          1           0      -14.128453   -0.949769   -1.438197
    127          1           0      -12.683400   -1.298545   -2.394324
    128          1           0      -11.614877    1.145387   -2.540550
    129          1           0      -10.545707    1.522093   -1.252554
    130          1           0      -12.364009    2.761020   -0.211516
    131          1           0      -13.330626    2.607960   -1.784347
    132          1           0      -12.188720    4.279787   -2.844851
    133          1           0      -10.769728    3.343224   -2.689029
    134          1           0      -10.732526    4.505804   -0.271117
    135          1           0      -11.584601    6.763366   -0.277116
    136          1           0      -12.791273    5.627819   -0.422724
    137          1           0      -12.268527    6.571161   -1.885766
    138          1           0       -9.449851    6.496581   -1.917614
    139          1           0       -9.350939    5.117248   -2.921540
    140          1           0       -8.735069    5.068211   -1.340239
 ---------------------------------------------------------------------

 SCF Done:  E(RB-LYP) =  -3007.36962862     A.U. after   20 cycles

 Excitation energies and oscillator strengths:

 Excited State   1:      Singlet-A      1.7942 eV  691.02 nm  f=0.2592  <S**2>=0.000
     244 -> 247        0.19760
     245 -> 248        0.17829
     246 -> 247        0.66492
     246 <- 247       -0.15027
 This state for optimization and/or second-order correction.
 Total Energy, E(TD-HF/TD-DFT) =  -3007.30369180
 Copying the excited state density for this state as the 1-particle RhoCI density.

 Excited State   2:      Singlet-A      1.8410 eV  673.45 nm  f=0.0265  <S**2>=0.000
     244 -> 247        0.65819
     245 -> 247        0.15421
     246 -> 247       -0.19731

 Excited State   3:      Singlet-A      1.9589 eV  632.91 nm  f=0.0216  <S**2>=0.000
     243 -> 247        0.63308
     245 -> 247       -0.28367

 Excited State   4:      Singlet-A      2.0191 eV  614.06 nm  f=0.0897  <S**2>=0.000
     243 -> 247        0.31169
     244 -> 247       -0.13024
     245 -> 247        0.57028
     246 -> 248       -0.21457

 Excited State   5:      Singlet-A      2.3378 eV  530.35 nm  f=0.0085  <S**2>=0.000
     242 -> 247        0.68971

 The electronic state is 1-A.
 Alpha  occ. eigenvalues --  -46.27440 -18.81874 -18.80928 -18.77811 -18.75913
 Alpha  occ. eigenvalues --  -18.75486 -18.75335 -14.03003 -14.02896 -14.00713
 Alpha  occ. eigenvalues --  -14.00451 -10.05258 -10.02204  -9.99789  -9.99348
 Alpha  occ. eigenvalues --   -9.98712  -9.96554  -9.96509  -9.96388  -9.96283
 Alpha  occ. eigenvalues --   -9.95792  -9.95717  -9.95439  -9.95164  -9.94408
 Alpha  occ. eigenvalues --   -9.94385  -9.94060  -9.94001  -9.93914  -9.93627
 Alpha  occ. eigenvalues --   -9.93587  -9.93454  -9.93446  -9.93294  -9.93166
 Alpha  occ. eigenvalues --   -9.93049  -9.92910  -9.92722  -9.92621  -9.92595
 Alpha  occ. eigenvalues --   -9.92490  -9.92483  -9.92292  -9.92205  -9.92179
 Alpha  occ. eigenvalues --   -9.92136  -9.92122  -9.92081  -9.91990  -9.91925
 Alpha  occ. eigenvalues --   -9.91905  -9.91866  -9.91859  -9.91674  -9.91608
 Alpha  occ. eigenvalues --   -9.91531  -9.91481  -9.91270  -9.91135  -9.91087
 Alpha  occ. eigenvalues --   -9.90993  -9.90980  -9.90870  -9.90795  -9.90773
 Alpha  occ. eigenvalues --   -9.90479  -2.91892  -1.72346  -1.71779  -1.71584
 Alpha  occ. eigenvalues --   -0.98395  -0.97464  -0.93883  -0.90725  -0.90470
 Alpha  occ. eigenvalues --   -0.89535  -0.87106  -0.86380  -0.85747  -0.84268
 Alpha  occ. eigenvalues --   -0.75333  -0.74051  -0.73347  -0.72924  -0.72437
 Alpha  occ. eigenvalues --   -0.72001  -0.71090  -0.71075  -0.70706  -0.70301
 Alpha  occ. eigenvalues --   -0.69391  -0.69020  -0.68242  -0.67208  -0.66996
 Alpha  occ. eigenvalues --   -0.66471  -0.65690  -0.65460  -0.65005  -0.64660
 Alpha  occ. eigenvalues --   -0.64365  -0.62644  -0.62343  -0.61309  -0.60777
 Alpha  occ. eigenvalues --   -0.60729  -0.60375  -0.59766  -0.59723  -0.58704
 Alpha  occ. eigenvalues --   -0.58591  -0.57682  -0.56295  -0.55842  -0.54416
 Alpha  occ. eigenvalues --   -0.53873  -0.53644  -0.52681  -0.52113  -0.51767
 Alpha  occ. eigenvalues --   -0.51687  -0.51185  -0.50776  -0.50093  -0.49988
 Alpha  occ. eigenvalues --   -0.49842  -0.49802  -0.49128  -0.47346  -0.46891
 Alpha  occ. eigenvalues --   -0.46463  -0.45872  -0.45574  -0.44990  -0.44252
 Alpha  occ. eigenvalues --   -0.44044  -0.43509  -0.43058  -0.42578  -0.42296
 Alpha  occ. eigenvalues --   -0.41761  -0.41712  -0.41332  -0.41141  -0.40739
 Alpha  occ. eigenvalues --   -0.40664  -0.40552  -0.40378  -0.40045  -0.39893
 Alpha  occ. eigenvalues --   -0.39865  -0.39728  -0.39630  -0.39493  -0.39190
 Alpha  occ. eigenvalues --   -0.38885  -0.38832  -0.38526  -0.38432  -0.38360
 Alpha  occ. eigenvalues --   -0.38289  -0.37864  -0.37795  -0.37522  -0.37263
 Alpha  occ. eigenvalues --   -0.37245  -0.36934  -0.36794  -0.36638  -0.36499
 Alpha  occ. eigenvalues --   -0.36412  -0.36109  -0.35962  -0.35784  -0.35730
 Alpha  occ. eigenvalues --   -0.35515  -0.35294  -0.35238  -0.34996  -0.34639
 Alpha  occ. eigenvalues --   -0.34497  -0.34350  -0.34153  -0.33990  -0.33815
 Alpha  occ. eigenvalues --   -0.33772  -0.33646  -0.33638  -0.33245  -0.33161
 Alpha  occ. eigenvalues --   -0.33081  -0.32958  -0.32533  -0.32485  -0.32399
 Alpha  occ. eigenvalues --   -0.32353  -0.31978  -0.31806  -0.31556  -0.31291
 Alpha  occ. eigenvalues --   -0.31153  -0.30934  -0.30770  -0.30579  -0.30332
 Alpha  occ. eigenvalues --   -0.30215  -0.30128  -0.30104  -0.30089  -0.29974
 Alpha  occ. eigenvalues --   -0.29827  -0.29349  -0.29299  -0.28923  -0.28802
 Alpha  occ. eigenvalues --   -0.28711  -0.28547  -0.28494  -0.28218  -0.27955
 Alpha  occ. eigenvalues --   -0.27777  -0.27367  -0.26797  -0.26781  -0.26600
 Alpha  occ. eigenvalues --   -0.26088  -0.25958  -0.25952  -0.25365  -0.25159
 Alpha  occ. eigenvalues --   -0.24572  -0.24540  -0.24403  -0.24127  -0.23759
 Alpha  occ. eigenvalues --   -0.22834  -0.22710  -0.21884  -0.21314  -0.21243
 Alpha  occ. eigenvalues --   -0.20732  -0.19706  -0.18862  -0.18374  -0.17233
 Alpha  occ. eigenvalues --   -0.15860
 Alpha virt. eigenvalues --   -0.11697  -0.06540  -0.05842  -0.03936  -0.03448
 Alpha virt. eigenvalues --   -0.03125  -0.02089  -0.01019  -0.00588   0.00166
 Alpha virt. eigenvalues --    0.01092   0.01236   0.02310   0.02589   0.03041

 Mulliken charges:
               1
     1  Mg   0.668602
     2  C    0.051716
     3  C   -0.027579
     4  C   -0.022667
     5  C   -0.085093
     6  N   -0.174679
     7  C   -0.073565
     8  C   -0.026571
     9  C   -0.021892
    10  C   -0.014270
    11  C    0.136463
    12  C    0.153989
    13  C    0.155231
    14  C    0.078738
    15  O   -0.177973
    16  O   -0.291961
    17  N   -0.297997
    18  C    0.123489
    19  C   -0.088605
    20  C    0.024428
    21  C    0.076254
    22  C    0.145196
    23  C   -0.092429
    24  O   -0.120189
    25  C    0.150832
    26  N   -0.196693
    27  C    0.036867
    28  C   -0.022408
    29  C   -0.016880
    30  C    0.075007
    31  C    0.130057
    32  C    0.111523
    33  C    0.049560
    34  N   -0.266300
    35  C    0.098922
    36  C   -0.181453
    37  C    0.068566
    38  C    0.039966
    39  C    0.177681
    40  C   -0.044594
    41  O   -0.124621
    42  C    0.025139
    43  C    0.093407
    44  O   -0.164973
    45  O   -0.254578
    46  C    0.215309
    47  C    0.309553
    48  C   -0.104393
    49  C   -0.132265
    50  C    0.147386
    51  C    0.133745
    52  C    0.053458
    53  C    0.093204
    54  C   -0.111517
    55  C    0.126077
    56  C    0.155464
    57  C    0.086763
    58  C    0.115474
    59  C   -0.034711
    60  C    0.090693
    61  C    0.076164
    62  C    0.056133
    63  C    0.077736
    64  C   -0.038422
    65  C    0.110956
    66  C    0.095943
    67  H   -0.074056
    68  H   -0.042766
    69  H   -0.063790
    70  H   -0.009109
    71  H   -0.019570
    72  H    0.009050
    73  H    0.004616
    74  H   -0.015595
    75  H   -0.029032
    76  H   -0.026882
    77  H   -0.008436
    78  H   -0.006679
    79  H    0.002299
    80  H   -0.033562
    81  H   -0.001360
    82  H    0.002205
    83  H    0.004272
    84  H   -0.012485
    85  H   -0.019472
    86  H   -0.028621
    87  H   -0.006280
    88  H   -0.003602
    89  H   -0.011534
    90  H   -0.018471
    91  H   -0.010963
    92  H   -0.017375
    93  H   -0.002945
    94  H   -0.004123
    95  H   -0.000495
    96  H    0.015839
    97  H    0.002546
    98  H    0.003854
    99  H    0.022698
   100  H    0.007953
   101  H    0.016358
   102  H   -0.004376
   103  H   -0.008161
   104  H   -0.034503
   105  H    0.000442
   106  H    0.001138
   107  H    0.006861
   108  H   -0.015520
   109  H   -0.046644
   110  H   -0.022928
   111  H   -0.026952
   112  H   -0.034990
   113  H   -0.028309
   114  H   -0.034286
   115  H   -0.023324
   116  H   -0.022504
   117  H   -0.034055
   118  H   -0.030033
   119  H   -0.037645
   120  H   -0.041985
   121  H   -0.031685
   122  H   -0.057284
   123  H   -0.035203
   124  H   -0.039845
   125  H   -0.026441
   126  H   -0.023104
   127  H   -0.016681
   128  H   -0.041349
   129  H   -0.029322
   130  H   -0.016700
   131  H   -0.022191
   132  H   -0.041502
   133  H   -0.038416
   134  H   -0.040848
   135  H   -0.029363
   136  H   -0.022034
   137  H   -0.010535
   138  H   -0.030917
   139  H   -0.015200
   140  H   -0.024504
 Sum of Mulliken charges =  -0.00000

 Dipole moment (field-independent basis, Debye):
    X=             -5.0111    Y=              2.8259    Z=              2.1679  Tot=              6.1479
 Quadrupole moment (field-independent basis, Debye-Ang):
   XX=           -376.6461   YY=           -434.3626   ZZ=           -408.1815
   XY=             30.6207   XZ=              2.1489   YZ=            -11.4956

 Normal termination of Gaussian 16 at Fri Apr 29 02:40:32 2022.
