 Gaussian 16, Revision A.03,
 Gaussian 16:  ES64L-G16RevA.03 25-Dec-2016

 -----------------------------------
 #p cam-b3lyp/Def2SVP td=(nstates=5)
 -----------------------------------

 -------------------------------------------------------
 step_1801_chromophore_3 TDDFT with cam-b3lyp functional
 -------------------------------------------------------
 Symbolic Z-matrix:
 Charge =  0 Multiplicity = 1

                         Standard orientation:
 ---------------------------------------------------------------------
 Center     Atomic      Atomic             Coordinates (Angstroms)
 Number     Number       Type             X           Y           Z
 ---------------------------------------------------------------------
      1         12           0        5.046797    1.005664    0.094378
      2          6           0        4.302838   -2.524011   -0.323201
      3          6           0        1.773156    1.601206   -0.319163
      4          6           0        5.830871    4.247272    0.474392
      5          6           0        8.476649    0.232694   -0.034161
      6          7           0        3.166601   -0.344289   -0.163128
      7          6           0        3.137772   -1.741320   -0.325001
      8          6           0        1.647756   -2.181938   -0.157884
      9          6           0        0.878398   -0.846798   -0.501718
     10          6           0        2.015366    0.204097   -0.401148
     11          6           0        0.043033   -0.736086   -1.808076
     12          6           0        1.349073   -2.709358    1.231204
     13          6           0        0.280538   -3.807981    1.391329
     14          6           0       -0.891203   -3.939986    0.332326
     15          8           0       -0.829149   -4.626922   -0.662375
     16          8           0       -1.969463   -3.130024    0.644123
     17          7           0        3.890752    2.756298    0.214189
     18          6           0        2.512308    2.787380    0.016539
     19          6           0        2.133954    4.110316    0.262113
     20          6           0        3.254519    4.866444    0.460686
     21          6           0        4.412022    3.974711    0.418139
     22          6           0        0.767397    4.597306    0.058865
     23          6           0        3.483666    6.395006    0.635452
     24          8           0        4.556512    6.888998    0.742490
     25          6           0        2.298398    7.313776    0.637155
     26          7           0        6.884448    2.002753    0.031311
     27          6           0        6.920664    3.377472    0.236144
     28          6           0        8.309220    3.938622   -0.005067
     29          6           0        9.180803    2.568761    0.153156
     30          6           0        8.084451    1.537402   -0.075280
     31          6           0        8.625930    4.675590   -1.349641
     32          6           0        9.878964    2.591357    1.570244
     33          6           0       11.342002    2.031937    1.528897
     34          7           0        6.200302   -0.783824   -0.135096
     35          6           0        7.591014   -0.895217   -0.125702
     36          6           0        7.929898   -2.290125   -0.253756
     37          6           0        6.661906   -3.006039   -0.167056
     38          6           0        5.633523   -2.024146   -0.141507
     39          6           0        9.275051   -2.877358   -0.443722
     40          6           0        6.033686   -4.300183   -0.236594
     41          8           0        6.452723   -5.446470   -0.315272
     42          6           0        4.457014   -3.996230   -0.331945
     43          6           0        3.776342   -4.572020   -1.496760
     44          8           0        3.553546   -4.094402   -2.567734
     45          8           0        3.267591   -5.734019   -1.093492
     46          6           0        2.354014   -6.321622   -2.117990
     47          6           0       -3.180703   -2.905680   -0.170450
     48          6           0       -4.404038   -3.024355    0.728720
     49          6           0       -5.369099   -3.953991    0.698951
     50          6           0       -5.216031   -5.261753   -0.055888
     51          6           0       -6.571742   -3.783385    1.645739
     52          6           0       -7.480002   -2.584869    1.284999
     53          6           0       -7.507084   -1.399297    2.309760
     54          6           0       -9.036129   -1.076438    2.699554
     55          6           0       -9.123006   -0.670012    4.103088
     56          6           0       -9.706761   -0.084792    1.755666
     57          6           0      -11.109267   -0.542884    1.443702
     58          6           0      -11.336389   -0.864818   -0.062020
     59          6           0      -12.303102    0.145187   -0.802234
     60          6           0      -13.209338   -0.521394   -1.839125
     61          6           0      -11.595754    1.322034   -1.464552
     62          6           0      -12.356760    2.650952   -1.296111
     63          6           0      -11.548152    3.818714   -2.092943
     64          6           0      -10.926630    4.955735   -1.244110
     65          6           0      -11.954430    6.030379   -0.992953
     66          6           0       -9.601007    5.416830   -1.904093
     67          1           0        0.692550    1.753985   -0.356292
     68          1           0        6.171683    5.277347    0.597940
     69          1           0        9.522015   -0.080305   -0.069320
     70          1           0        1.507720   -3.049439   -0.803864
     71          1           0        0.141610   -0.547825    0.245225
     72          1           0       -0.109137   -1.784955   -2.063116
     73          1           0        0.485808   -0.109400   -2.582633
     74          1           0       -0.898798   -0.301996   -1.474153
     75          1           0        1.134864   -1.825086    1.831635
     76          1           0        2.344275   -3.018276    1.551504
     77          1           0       -0.130784   -3.865391    2.399301
     78          1           0        0.770383   -4.780112    1.332454
     79          1           0        0.327071    4.883661    1.013357
     80          1           0        0.067734    3.885691   -0.379610
     81          1           0        0.616446    5.345951   -0.718617
     82          1           0        1.545667    6.889437    1.301277
     83          1           0        1.935903    7.373442   -0.388858
     84          1           0        2.610214    8.330201    0.876266
     85          1           0        8.544857    4.688182    0.750135
     86          1           0        9.923147    2.465661   -0.638309
     87          1           0        7.779761    4.785610   -2.027734
     88          1           0        9.478904    4.299205   -1.914639
     89          1           0        8.852840    5.679103   -0.990113
     90          1           0        9.251366    1.941167    2.179974
     91          1           0        9.819695    3.570755    2.044858
     92          1           0       11.985417    2.651991    2.152743
     93          1           0       11.912966    1.975116    0.601043
     94          1           0       11.350957    1.046248    1.993043
     95          1           0        9.959641   -2.197391    0.063892
     96          1           0        9.424444   -3.048085   -1.510381
     97          1           0        9.310828   -3.867217    0.011085
     98          1           0        3.990502   -4.393935    0.569880
     99          1           0        1.460785   -5.724203   -2.296722
    100          1           0        2.036141   -7.271972   -1.687621
    101          1           0        2.890211   -6.426945   -3.061076
    102          1           0       -3.178789   -3.544831   -1.054246
    103          1           0       -3.198307   -1.880231   -0.537341
    104          1           0       -4.483193   -2.136101    1.356110
    105          1           0       -5.976624   -5.261589   -0.837061
    106          1           0       -5.408966   -6.100581    0.611988
    107          1           0       -4.204599   -5.366446   -0.447505
    108          1           0       -6.223454   -3.676727    2.672543
    109          1           0       -7.202291   -4.666758    1.739036
    110          1           0       -8.482904   -2.972959    1.107971
    111          1           0       -7.150592   -2.243707    0.303128
    112          1           0       -7.082483   -0.533549    1.803085
    113          1           0       -6.858899   -1.544692    3.173451
    114          1           0       -9.526546   -2.049566    2.676864
    115          1           0       -8.168472   -0.238352    4.405080
    116          1           0       -9.395012   -1.480613    4.779691
    117          1           0       -9.870011    0.097160    4.308579
    118          1           0       -9.049410   -0.019853    0.889206
    119          1           0       -9.732536    0.886107    2.252322
    120          1           0      -11.820175    0.213472    1.776544
    121          1           0      -11.442999   -1.402874    2.023752
    122          1           0      -11.817552   -1.842250   -0.109324
    123          1           0      -10.411313   -1.088150   -0.593002
    124          1           0      -13.081863    0.466271   -0.109470
    125          1           0      -13.566175    0.250863   -2.519661
    126          1           0      -14.128453   -0.949769   -1.438197
    127          1           0      -12.683400   -1.298545   -2.394324
    128          1           0      -11.614877    1.145387   -2.540550
    129          1           0      -10.545707    1.522093   -1.252554
    130          1           0      -12.364009    2.761020   -0.211516
    131          1           0      -13.330626    2.607960   -1.784347
    132          1           0      -12.188720    4.279787   -2.844851
    133          1           0      -10.769728    3.343224   -2.689029
    134          1           0      -10.732526    4.505804   -0.271117
    135          1           0      -11.584601    6.763366   -0.277116
    136          1           0      -12.791273    5.627819   -0.422724
    137          1           0      -12.268527    6.571161   -1.885766
    138          1           0       -9.449851    6.496581   -1.917614
    139          1           0       -9.350939    5.117248   -2.921540
    140          1           0       -8.735069    5.068211   -1.340239
 ---------------------------------------------------------------------

 SCF Done:  E(RCAM-B3LYP) =  -3007.16647673     A.U. after   17 cycles

 Excitation energies and oscillator strengths:

 Excited State   1:      Singlet-A      1.6964 eV  730.87 nm  f=0.3774  <S**2>=0.000
     245 -> 248       -0.16794
     246 -> 247        0.68688
     245 <- 248       -0.10565
 This state for optimization and/or second-order correction.
 Total Energy, E(TD-HF/TD-DFT) =  -3007.10413527
 Copying the excited state density for this state as the 1-particle RhoCI density.

 Excited State   2:      Singlet-A      2.1849 eV  567.45 nm  f=0.1541  <S**2>=0.000
     245 -> 247        0.64884
     246 -> 248        0.26092

 Excited State   3:      Singlet-A      3.1445 eV  394.29 nm  f=0.0059  <S**2>=0.000
     242 -> 247       -0.10171
     243 -> 247        0.11329
     244 -> 247        0.67744

 Excited State   4:      Singlet-A      3.4443 eV  359.97 nm  f=0.0223  <S**2>=0.000
     239 -> 247       -0.21409
     242 -> 247       -0.41168
     243 -> 247        0.41442
     244 -> 247       -0.11986
     246 -> 248        0.28022

 Excited State   5:      Singlet-A      3.4831 eV  355.96 nm  f=0.0038  <S**2>=0.000
     242 -> 247        0.41991
     242 -> 249       -0.17639
     243 -> 247        0.42138
     243 -> 249       -0.22384
     243 -> 250        0.10732

 The electronic state is 1-A.
 Alpha  occ. eigenvalues --  -46.89046 -19.24689 -19.23819 -19.20802 -19.19373
 Alpha  occ. eigenvalues --  -19.18532 -19.18302 -14.42104 -14.41559 -14.39315
 Alpha  occ. eigenvalues --  -14.38695 -10.40635 -10.37458 -10.35149 -10.34585
 Alpha  occ. eigenvalues --  -10.32884 -10.31197 -10.31061 -10.30965 -10.30475
 Alpha  occ. eigenvalues --  -10.30465 -10.30286 -10.29487 -10.29081 -10.28476
 Alpha  occ. eigenvalues --  -10.28412 -10.28148 -10.28145 -10.28049 -10.27985
 Alpha  occ. eigenvalues --  -10.27895 -10.27832 -10.27500 -10.27450 -10.27389
 Alpha  occ. eigenvalues --  -10.27017 -10.26861 -10.26849 -10.26769 -10.26546
 Alpha  occ. eigenvalues --  -10.26526 -10.26351 -10.26201 -10.26039 -10.26016
 Alpha  occ. eigenvalues --  -10.25992 -10.25932 -10.25819 -10.25716 -10.25612
 Alpha  occ. eigenvalues --  -10.25599 -10.25549 -10.25489 -10.25409 -10.25388
 Alpha  occ. eigenvalues --  -10.25223 -10.25176 -10.24903 -10.24892 -10.24807
 Alpha  occ. eigenvalues --  -10.24701 -10.24621 -10.24526 -10.24388 -10.24376
 Alpha  occ. eigenvalues --  -10.24028  -3.17397  -1.92329  -1.91854  -1.91675
 Alpha  occ. eigenvalues --   -1.17000  -1.15921  -1.12629  -1.08938  -1.08305
 Alpha  occ. eigenvalues --   -1.07449  -1.04781  -1.04246  -1.03599  -1.01554
 Alpha  occ. eigenvalues --   -0.92415  -0.90922  -0.90155  -0.89732  -0.89172
 Alpha  occ. eigenvalues --   -0.88969  -0.87679  -0.87601  -0.87312  -0.86980
 Alpha  occ. eigenvalues --   -0.85677  -0.85333  -0.84566  -0.83339  -0.83073
 Alpha  occ. eigenvalues --   -0.82631  -0.81805  -0.81453  -0.80914  -0.80511
 Alpha  occ. eigenvalues --   -0.80229  -0.78358  -0.78234  -0.76669  -0.76145
 Alpha  occ. eigenvalues --   -0.76131  -0.75764  -0.75063  -0.75008  -0.73926
 Alpha  occ. eigenvalues --   -0.73615  -0.72613  -0.71223  -0.70670  -0.68887
 Alpha  occ. eigenvalues --   -0.68455  -0.68297  -0.67040  -0.66553  -0.65955
 Alpha  occ. eigenvalues --   -0.65790  -0.65473  -0.64889  -0.64026  -0.63970
 Alpha  occ. eigenvalues --   -0.63835  -0.63562  -0.63063  -0.61062  -0.60405
 Alpha  occ. eigenvalues --   -0.60275  -0.59502  -0.59198  -0.58368  -0.57674
 Alpha  occ. eigenvalues --   -0.57483  -0.56826  -0.56499  -0.55797  -0.55599
 Alpha  occ. eigenvalues --   -0.54764  -0.54544  -0.54436  -0.54058  -0.53662
 Alpha  occ. eigenvalues --   -0.53527  -0.53475  -0.53262  -0.53112  -0.52806
 Alpha  occ. eigenvalues --   -0.52615  -0.52391  -0.52238  -0.52154  -0.51851
 Alpha  occ. eigenvalues --   -0.51446  -0.51244  -0.51134  -0.50792  -0.50718
 Alpha  occ. eigenvalues --   -0.50586  -0.50531  -0.50170  -0.50024  -0.49775
 Alpha  occ. eigenvalues --   -0.49337  -0.49311  -0.49168  -0.48850  -0.48808
 Alpha  occ. eigenvalues --   -0.48623  -0.48383  -0.48296  -0.48031  -0.47885
 Alpha  occ. eigenvalues --   -0.47770  -0.47661  -0.47201  -0.47174  -0.46613
 Alpha  occ. eigenvalues --   -0.46473  -0.46104  -0.46055  -0.45916  -0.45654
 Alpha  occ. eigenvalues --   -0.45538  -0.45528  -0.45227  -0.44957  -0.44837
 Alpha  occ. eigenvalues --   -0.44715  -0.44612  -0.44312  -0.44198  -0.43991
 Alpha  occ. eigenvalues --   -0.43887  -0.43551  -0.43425  -0.43370  -0.42823
 Alpha  occ. eigenvalues --   -0.42725  -0.42569  -0.42292  -0.42181  -0.41769
 Alpha  occ. eigenvalues --   -0.41505  -0.41343  -0.41293  -0.41233  -0.41204
 Alpha  occ. eigenvalues --   -0.41142  -0.41011  -0.40407  -0.40164  -0.39957
 Alpha  occ. eigenvalues --   -0.39881  -0.39729  -0.39714  -0.39254  -0.39123
 Alpha  occ. eigenvalues --   -0.38686  -0.38174  -0.37636  -0.37552  -0.37367
 Alpha  occ. eigenvalues --   -0.36862  -0.36837  -0.36771  -0.36632  -0.36230
 Alpha  occ. eigenvalues --   -0.36119  -0.35177  -0.34971  -0.34679  -0.34483
 Alpha  occ. eigenvalues --   -0.33947  -0.33596  -0.32646  -0.31522  -0.31127
 Alpha  occ. eigenvalues --   -0.31014  -0.30326  -0.30055  -0.28543  -0.23997
 Alpha  occ. eigenvalues --   -0.21235
 Alpha virt. eigenvalues --   -0.08980  -0.01327   0.00694   0.02989   0.03307
 Alpha virt. eigenvalues --    0.04154   0.04703   0.05558   0.06563   0.06741
 Alpha virt. eigenvalues --    0.07842   0.08324   0.08735   0.09104   0.09282

 Mulliken charges:
               1
     1  Mg   0.800756
     2  C    0.024609
     3  C   -0.041396
     4  C   -0.047207
     5  C   -0.089136
     6  N   -0.238345
     7  C   -0.031370
     8  C   -0.076072
     9  C   -0.075117
    10  C    0.010210
    11  C    0.083353
    12  C    0.104399
    13  C    0.089420
    14  C    0.155304
    15  O   -0.219134
    16  O   -0.358854
    17  N   -0.388999
    18  C    0.134838
    19  C   -0.094473
    20  C   -0.042440
    21  C    0.106085
    22  C    0.080491
    23  C   -0.007967
    24  O   -0.160049
    25  C    0.067732
    26  N   -0.275861
    27  C    0.062634
    28  C   -0.077486
    29  C   -0.072003
    30  C    0.093859
    31  C    0.074386
    32  C    0.058643
    33  C   -0.014645
    34  N   -0.352805
    35  C    0.100489
    36  C   -0.177582
    37  C   -0.012156
    38  C    0.076303
    39  C    0.125884
    40  C    0.056698
    41  O   -0.165729
    42  C   -0.057410
    43  C    0.181048
    44  O   -0.202591
    45  O   -0.316495
    46  C    0.175257
    47  C    0.279372
    48  C   -0.123282
    49  C   -0.156822
    50  C    0.086075
    51  C    0.076251
    52  C   -0.000169
    53  C    0.040032
    54  C   -0.164243
    55  C    0.065036
    56  C    0.097265
    57  C    0.031282
    58  C    0.060203
    59  C   -0.095227
    60  C    0.035588
    61  C    0.021751
    62  C    0.006362
    63  C    0.024585
    64  C   -0.099775
    65  C    0.051859
    66  C    0.032042
    67  H   -0.040191
    68  H   -0.002105
    69  H   -0.029978
    70  H    0.021542
    71  H    0.015856
    72  H    0.031992
    73  H    0.030972
    74  H    0.005595
    75  H    0.001093
    76  H    0.004635
    77  H    0.026148
    78  H    0.024781
    79  H    0.030752
    80  H   -0.001694
    81  H    0.026978
    82  H    0.027909
    83  H    0.031979
    84  H    0.024085
    85  H    0.014218
    86  H    0.005258
    87  H    0.019303
    88  H    0.020719
    89  H    0.011470
    90  H    0.011549
    91  H    0.015798
    92  H    0.007103
    93  H    0.019627
    94  H    0.018482
    95  H    0.019760
    96  H    0.041157
    97  H    0.028944
    98  H    0.045679
    99  H    0.044659
   100  H    0.032822
   101  H    0.041492
   102  H    0.026999
   103  H    0.016443
   104  H   -0.002824
   105  H    0.023783
   106  H    0.025114
   107  H    0.029676
   108  H    0.014635
   109  H   -0.013509
   110  H    0.003449
   111  H    0.002267
   112  H   -0.006962
   113  H   -0.000237
   114  H   -0.002743
   115  H    0.000776
   116  H    0.003117
   117  H   -0.008262
   118  H   -0.003072
   119  H   -0.007287
   120  H   -0.012688
   121  H   -0.002462
   122  H   -0.024589
   123  H   -0.008023
   124  H   -0.007133
   125  H   -0.002407
   126  H    0.002315
   127  H    0.007040
   128  H   -0.011986
   129  H   -0.002090
   130  H    0.007511
   131  H    0.004607
   132  H   -0.012570
   133  H   -0.009362
   134  H   -0.009159
   135  H   -0.003683
   136  H    0.002487
   137  H    0.012598
   138  H   -0.005141
   139  H    0.009367
   140  H    0.000360
 Sum of Mulliken charges =  -0.00000

 Dipole moment (field-independent basis, Debye):
    X=             -5.8073    Y=              3.6877    Z=              2.2614  Tot=              7.2414
 Quadrupole moment (field-independent basis, Debye-Ang):
   XX=           -381.8870   YY=           -429.8184   ZZ=           -408.1141
   XY=             33.3714   XZ=              2.8025   YZ=            -11.6023

 Normal termination of Gaussian 16 at Fri Apr 29 01:44:29 2022.
