 Gaussian 16, Revision A.03,
 Gaussian 16:  ES64L-G16RevA.03 25-Dec-2016

 ---------------------------------
 #p PBE1PBE/Def2SVP td=(nstates=5)
 ---------------------------------

 -----------------------------------------------------
 step_1801_chromophore_3 TDDFT with PBE1PBE functional
 -----------------------------------------------------
 Symbolic Z-matrix:
 Charge =  0 Multiplicity = 1

                         Standard orientation:
 ---------------------------------------------------------------------
 Center     Atomic      Atomic             Coordinates (Angstroms)
 Number     Number       Type             X           Y           Z
 ---------------------------------------------------------------------
      1         12           0        5.046797    1.005664    0.094378
      2          6           0        4.302838   -2.524011   -0.323201
      3          6           0        1.773156    1.601206   -0.319163
      4          6           0        5.830871    4.247272    0.474392
      5          6           0        8.476649    0.232694   -0.034161
      6          7           0        3.166601   -0.344289   -0.163128
      7          6           0        3.137772   -1.741320   -0.325001
      8          6           0        1.647756   -2.181938   -0.157884
      9          6           0        0.878398   -0.846798   -0.501718
     10          6           0        2.015366    0.204097   -0.401148
     11          6           0        0.043033   -0.736086   -1.808076
     12          6           0        1.349073   -2.709358    1.231204
     13          6           0        0.280538   -3.807981    1.391329
     14          6           0       -0.891203   -3.939986    0.332326
     15          8           0       -0.829149   -4.626922   -0.662375
     16          8           0       -1.969463   -3.130024    0.644123
     17          7           0        3.890752    2.756298    0.214189
     18          6           0        2.512308    2.787380    0.016539
     19          6           0        2.133954    4.110316    0.262113
     20          6           0        3.254519    4.866444    0.460686
     21          6           0        4.412022    3.974711    0.418139
     22          6           0        0.767397    4.597306    0.058865
     23          6           0        3.483666    6.395006    0.635452
     24          8           0        4.556512    6.888998    0.742490
     25          6           0        2.298398    7.313776    0.637155
     26          7           0        6.884448    2.002753    0.031311
     27          6           0        6.920664    3.377472    0.236144
     28          6           0        8.309220    3.938622   -0.005067
     29          6           0        9.180803    2.568761    0.153156
     30          6           0        8.084451    1.537402   -0.075280
     31          6           0        8.625930    4.675590   -1.349641
     32          6           0        9.878964    2.591357    1.570244
     33          6           0       11.342002    2.031937    1.528897
     34          7           0        6.200302   -0.783824   -0.135096
     35          6           0        7.591014   -0.895217   -0.125702
     36          6           0        7.929898   -2.290125   -0.253756
     37          6           0        6.661906   -3.006039   -0.167056
     38          6           0        5.633523   -2.024146   -0.141507
     39          6           0        9.275051   -2.877358   -0.443722
     40          6           0        6.033686   -4.300183   -0.236594
     41          8           0        6.452723   -5.446470   -0.315272
     42          6           0        4.457014   -3.996230   -0.331945
     43          6           0        3.776342   -4.572020   -1.496760
     44          8           0        3.553546   -4.094402   -2.567734
     45          8           0        3.267591   -5.734019   -1.093492
     46          6           0        2.354014   -6.321622   -2.117990
     47          6           0       -3.180703   -2.905680   -0.170450
     48          6           0       -4.404038   -3.024355    0.728720
     49          6           0       -5.369099   -3.953991    0.698951
     50          6           0       -5.216031   -5.261753   -0.055888
     51          6           0       -6.571742   -3.783385    1.645739
     52          6           0       -7.480002   -2.584869    1.284999
     53          6           0       -7.507084   -1.399297    2.309760
     54          6           0       -9.036129   -1.076438    2.699554
     55          6           0       -9.123006   -0.670012    4.103088
     56          6           0       -9.706761   -0.084792    1.755666
     57          6           0      -11.109267   -0.542884    1.443702
     58          6           0      -11.336389   -0.864818   -0.062020
     59          6           0      -12.303102    0.145187   -0.802234
     60          6           0      -13.209338   -0.521394   -1.839125
     61          6           0      -11.595754    1.322034   -1.464552
     62          6           0      -12.356760    2.650952   -1.296111
     63          6           0      -11.548152    3.818714   -2.092943
     64          6           0      -10.926630    4.955735   -1.244110
     65          6           0      -11.954430    6.030379   -0.992953
     66          6           0       -9.601007    5.416830   -1.904093
     67          1           0        0.692550    1.753985   -0.356292
     68          1           0        6.171683    5.277347    0.597940
     69          1           0        9.522015   -0.080305   -0.069320
     70          1           0        1.507720   -3.049439   -0.803864
     71          1           0        0.141610   -0.547825    0.245225
     72          1           0       -0.109137   -1.784955   -2.063116
     73          1           0        0.485808   -0.109400   -2.582633
     74          1           0       -0.898798   -0.301996   -1.474153
     75          1           0        1.134864   -1.825086    1.831635
     76          1           0        2.344275   -3.018276    1.551504
     77          1           0       -0.130784   -3.865391    2.399301
     78          1           0        0.770383   -4.780112    1.332454
     79          1           0        0.327071    4.883661    1.013357
     80          1           0        0.067734    3.885691   -0.379610
     81          1           0        0.616446    5.345951   -0.718617
     82          1           0        1.545667    6.889437    1.301277
     83          1           0        1.935903    7.373442   -0.388858
     84          1           0        2.610214    8.330201    0.876266
     85          1           0        8.544857    4.688182    0.750135
     86          1           0        9.923147    2.465661   -0.638309
     87          1           0        7.779761    4.785610   -2.027734
     88          1           0        9.478904    4.299205   -1.914639
     89          1           0        8.852840    5.679103   -0.990113
     90          1           0        9.251366    1.941167    2.179974
     91          1           0        9.819695    3.570755    2.044858
     92          1           0       11.985417    2.651991    2.152743
     93          1           0       11.912966    1.975116    0.601043
     94          1           0       11.350957    1.046248    1.993043
     95          1           0        9.959641   -2.197391    0.063892
     96          1           0        9.424444   -3.048085   -1.510381
     97          1           0        9.310828   -3.867217    0.011085
     98          1           0        3.990502   -4.393935    0.569880
     99          1           0        1.460785   -5.724203   -2.296722
    100          1           0        2.036141   -7.271972   -1.687621
    101          1           0        2.890211   -6.426945   -3.061076
    102          1           0       -3.178789   -3.544831   -1.054246
    103          1           0       -3.198307   -1.880231   -0.537341
    104          1           0       -4.483193   -2.136101    1.356110
    105          1           0       -5.976624   -5.261589   -0.837061
    106          1           0       -5.408966   -6.100581    0.611988
    107          1           0       -4.204599   -5.366446   -0.447505
    108          1           0       -6.223454   -3.676727    2.672543
    109          1           0       -7.202291   -4.666758    1.739036
    110          1           0       -8.482904   -2.972959    1.107971
    111          1           0       -7.150592   -2.243707    0.303128
    112          1           0       -7.082483   -0.533549    1.803085
    113          1           0       -6.858899   -1.544692    3.173451
    114          1           0       -9.526546   -2.049566    2.676864
    115          1           0       -8.168472   -0.238352    4.405080
    116          1           0       -9.395012   -1.480613    4.779691
    117          1           0       -9.870011    0.097160    4.308579
    118          1           0       -9.049410   -0.019853    0.889206
    119          1           0       -9.732536    0.886107    2.252322
    120          1           0      -11.820175    0.213472    1.776544
    121          1           0      -11.442999   -1.402874    2.023752
    122          1           0      -11.817552   -1.842250   -0.109324
    123          1           0      -10.411313   -1.088150   -0.593002
    124          1           0      -13.081863    0.466271   -0.109470
    125          1           0      -13.566175    0.250863   -2.519661
    126          1           0      -14.128453   -0.949769   -1.438197
    127          1           0      -12.683400   -1.298545   -2.394324
    128          1           0      -11.614877    1.145387   -2.540550
    129          1           0      -10.545707    1.522093   -1.252554
    130          1           0      -12.364009    2.761020   -0.211516
    131          1           0      -13.330626    2.607960   -1.784347
    132          1           0      -12.188720    4.279787   -2.844851
    133          1           0      -10.769728    3.343224   -2.689029
    134          1           0      -10.732526    4.505804   -0.271117
    135          1           0      -11.584601    6.763366   -0.277116
    136          1           0      -12.791273    5.627819   -0.422724
    137          1           0      -12.268527    6.571161   -1.885766
    138          1           0       -9.449851    6.496581   -1.917614
    139          1           0       -9.350939    5.117248   -2.921540
    140          1           0       -8.735069    5.068211   -1.340239
 ---------------------------------------------------------------------

 SCF Done:  E(RPBE1PBE) =  -3005.35503129     A.U. after   15 cycles

 Excitation energies and oscillator strengths:

 Excited State   1:      Singlet-A      1.8446 eV  672.14 nm  f=0.3573  <S**2>=0.000
     245 -> 248        0.16516
     246 -> 247        0.69513
     246 <- 247       -0.11552
 This state for optimization and/or second-order correction.
 Total Energy, E(TD-HF/TD-DFT) =  -3005.28724293
 Copying the excited state density for this state as the 1-particle RhoCI density.

 Excited State   2:      Singlet-A      2.1971 eV  564.31 nm  f=0.1468  <S**2>=0.000
     245 -> 247        0.65835
     246 -> 248       -0.23863

 Excited State   3:      Singlet-A      2.7807 eV  445.88 nm  f=0.0069  <S**2>=0.000
     243 -> 247        0.14737
     244 -> 247        0.67907

 Excited State   4:      Singlet-A      2.9391 eV  421.84 nm  f=0.0019  <S**2>=0.000
     243 -> 247        0.65924
     243 -> 249       -0.12353
     244 -> 247       -0.14651

 Excited State   5:      Singlet-A      3.0681 eV  404.11 nm  f=0.0002  <S**2>=0.000
     241 -> 247        0.39564
     242 -> 247        0.56104

 The electronic state is 1-A.
 Alpha  occ. eigenvalues --  -46.92413 -19.25379 -19.24497 -19.21041 -19.19394
 Alpha  occ. eigenvalues --  -19.18782 -19.18691 -14.41440 -14.41152 -14.38865
 Alpha  occ. eigenvalues --  -14.38496 -10.37669 -10.34452 -10.32111 -10.31847
 Alpha  occ. eigenvalues --  -10.30247 -10.28867 -10.28710 -10.28673 -10.27913
 Alpha  occ. eigenvalues --  -10.27906 -10.27546 -10.27304 -10.27058 -10.26388
 Alpha  occ. eigenvalues --  -10.25943 -10.25898 -10.25868 -10.25751 -10.25717
 Alpha  occ. eigenvalues --  -10.25497 -10.25263 -10.25261 -10.25217 -10.25051
 Alpha  occ. eigenvalues --  -10.24964 -10.24529 -10.24308 -10.24265 -10.24247
 Alpha  occ. eigenvalues --  -10.23996 -10.23765 -10.23755 -10.23722 -10.23613
 Alpha  occ. eigenvalues --  -10.23591 -10.23404 -10.23397 -10.23206 -10.23180
 Alpha  occ. eigenvalues --  -10.23104 -10.23036 -10.22962 -10.22949 -10.22915
 Alpha  occ. eigenvalues --  -10.22900 -10.22778 -10.22734 -10.22458 -10.22425
 Alpha  occ. eigenvalues --  -10.22223 -10.22046 -10.21989 -10.21757 -10.21724
 Alpha  occ. eigenvalues --  -10.21378  -3.14351  -1.87224  -1.86726  -1.86550
 Alpha  occ. eigenvalues --   -1.11811  -1.10702  -1.07224  -1.03828  -1.03167
 Alpha  occ. eigenvalues --   -1.02312  -0.99436  -0.98777  -0.98122  -0.96398
 Alpha  occ. eigenvalues --   -0.86834  -0.85029  -0.84278  -0.83921  -0.83258
 Alpha  occ. eigenvalues --   -0.83138  -0.81907  -0.81759  -0.81623  -0.81223
 Alpha  occ. eigenvalues --   -0.80135  -0.79521  -0.78734  -0.77558  -0.77408
 Alpha  occ. eigenvalues --   -0.76817  -0.75944  -0.75622  -0.75206  -0.74654
 Alpha  occ. eigenvalues --   -0.74538  -0.72617  -0.72410  -0.71049  -0.70310
 Alpha  occ. eigenvalues --   -0.70202  -0.70096  -0.69404  -0.69159  -0.68062
 Alpha  occ. eigenvalues --   -0.67908  -0.67131  -0.65595  -0.65025  -0.63282
 Alpha  occ. eigenvalues --   -0.62808  -0.62607  -0.61286  -0.60947  -0.60302
 Alpha  occ. eigenvalues --   -0.60151  -0.59819  -0.59452  -0.58561  -0.58176
 Alpha  occ. eigenvalues --   -0.58066  -0.57928  -0.57229  -0.55670  -0.54754
 Alpha  occ. eigenvalues --   -0.54683  -0.54083  -0.53648  -0.52966  -0.52283
 Alpha  occ. eigenvalues --   -0.52047  -0.51245  -0.50982  -0.50329  -0.50098
 Alpha  occ. eigenvalues --   -0.49410  -0.48961  -0.48853  -0.48532  -0.48290
 Alpha  occ. eigenvalues --   -0.47943  -0.47768  -0.47692  -0.47606  -0.47438
 Alpha  occ. eigenvalues --   -0.47251  -0.46835  -0.46796  -0.46635  -0.46387
 Alpha  occ. eigenvalues --   -0.45956  -0.45811  -0.45660  -0.45358  -0.45272
 Alpha  occ. eigenvalues --   -0.45232  -0.45101  -0.44716  -0.44518  -0.44330
 Alpha  occ. eigenvalues --   -0.43932  -0.43855  -0.43803  -0.43531  -0.43380
 Alpha  occ. eigenvalues --   -0.43185  -0.42883  -0.42819  -0.42731  -0.42464
 Alpha  occ. eigenvalues --   -0.42348  -0.42220  -0.41884  -0.41807  -0.41230
 Alpha  occ. eigenvalues --   -0.41148  -0.40804  -0.40691  -0.40647  -0.40431
 Alpha  occ. eigenvalues --   -0.40260  -0.40061  -0.39917  -0.39841  -0.39613
 Alpha  occ. eigenvalues --   -0.39497  -0.39287  -0.39056  -0.38968  -0.38769
 Alpha  occ. eigenvalues --   -0.38674  -0.38337  -0.38088  -0.38038  -0.37680
 Alpha  occ. eigenvalues --   -0.37492  -0.37268  -0.37131  -0.36982  -0.36569
 Alpha  occ. eigenvalues --   -0.36315  -0.36176  -0.36103  -0.36072  -0.36016
 Alpha  occ. eigenvalues --   -0.35940  -0.35865  -0.35155  -0.34944  -0.34830
 Alpha  occ. eigenvalues --   -0.34751  -0.34611  -0.34471  -0.34082  -0.33933
 Alpha  occ. eigenvalues --   -0.33448  -0.32920  -0.32640  -0.32320  -0.32102
 Alpha  occ. eigenvalues --   -0.31904  -0.31757  -0.31653  -0.31570  -0.31164
 Alpha  occ. eigenvalues --   -0.31049  -0.30255  -0.29916  -0.29575  -0.29430
 Alpha  occ. eigenvalues --   -0.29217  -0.28551  -0.28118  -0.27025  -0.26300
 Alpha  occ. eigenvalues --   -0.25821  -0.25720  -0.25227  -0.24385  -0.20924
 Alpha  occ. eigenvalues --   -0.18847
 Alpha virt. eigenvalues --   -0.11377  -0.04875  -0.03543  -0.01319  -0.00370
 Alpha virt. eigenvalues --    0.00030   0.00363   0.01942   0.02096   0.02976
 Alpha virt. eigenvalues --    0.03831   0.04238   0.05291   0.05533   0.06038

 Mulliken charges:
               1
     1  Mg   0.946038
     2  C   -0.007326
     3  C   -0.046035
     4  C   -0.038997
     5  C   -0.076258
     6  N   -0.339512
     7  C    0.050187
     8  C   -0.153443
     9  C   -0.147688
    10  C    0.058094
    11  C    0.025543
    12  C    0.055982
    13  C    0.013664
    14  C    0.222198
    15  O   -0.253574
    16  O   -0.389293
    17  N   -0.504027
    18  C    0.164811
    19  C   -0.140811
    20  C   -0.099425
    21  C    0.150953
    22  C    0.030269
    23  C    0.050690
    24  O   -0.200410
    25  C   -0.008192
    26  N   -0.384948
    27  C    0.089545
    28  C   -0.153640
    29  C   -0.146607
    30  C    0.134228
    31  C    0.020504
    32  C    0.002654
    33  C   -0.087063
    34  N   -0.474668
    35  C    0.126832
    36  C   -0.193775
    37  C   -0.057292
    38  C    0.135091
    39  C    0.070418
    40  C    0.145589
    41  O   -0.211774
    42  C   -0.168578
    43  C    0.275448
    44  O   -0.238353
    45  O   -0.349803
    46  C    0.116753
    47  C    0.237399
    48  C   -0.131360
    49  C   -0.205679
    50  C    0.019430
    51  C    0.021504
    52  C   -0.062077
    53  C   -0.013947
    54  C   -0.252179
    55  C    0.008913
    56  C    0.040365
    57  C   -0.027827
    58  C    0.006692
    59  C   -0.182300
    60  C   -0.025320
    61  C   -0.034551
    62  C   -0.056882
    63  C   -0.026073
    64  C   -0.196556
    65  C   -0.009764
    66  C   -0.026618
    67  H   -0.007108
    68  H    0.029660
    69  H    0.003466
    70  H    0.065061
    71  H    0.052014
    72  H    0.059918
    73  H    0.057794
    74  H    0.032601
    75  H    0.034265
    76  H    0.040446
    77  H    0.057240
    78  H    0.057027
    79  H    0.057387
    80  H    0.024506
    81  H    0.052348
    82  H    0.054632
    83  H    0.059212
    84  H    0.051109
    85  H    0.049322
    86  H    0.041670
    87  H    0.047186
    88  H    0.046815
    89  H    0.038424
    90  H    0.045141
    91  H    0.047626
    92  H    0.035987
    93  H    0.045531
    94  H    0.045659
    95  H    0.046960
    96  H    0.070450
    97  H    0.058102
    98  H    0.084139
    99  H    0.067969
   100  H    0.054971
   101  H    0.063834
   102  H    0.051168
   103  H    0.044035
   104  H    0.027790
   105  H    0.052488
   106  H    0.052782
   107  H    0.056591
   108  H    0.046922
   109  H    0.018436
   110  H    0.035392
   111  H    0.035457
   112  H    0.025972
   113  H    0.029880
   114  H    0.035385
   115  H    0.028582
   116  H    0.030793
   117  H    0.019657
   118  H    0.029246
   119  H    0.025575
   120  H    0.019300
   121  H    0.028487
   122  H    0.009519
   123  H    0.023001
   124  H    0.030213
   125  H    0.025943
   126  H    0.030354
   127  H    0.035184
   128  H    0.022677
   129  H    0.030897
   130  H    0.039577
   131  H    0.036769
   132  H    0.019981
   133  H    0.022184
   134  H    0.029315
   135  H    0.025160
   136  H    0.031281
   137  H    0.039441
   138  H    0.022417
   139  H    0.035345
   140  H    0.028269
 Sum of Mulliken charges =  -0.00000

 Dipole moment (field-independent basis, Debye):
    X=             -5.4270    Y=              3.3673    Z=              2.2388  Tot=              6.7678
 Quadrupole moment (field-independent basis, Debye-Ang):
   XX=           -372.0944   YY=           -427.5774   ZZ=           -405.7011
   XY=             32.9501   XZ=              2.6284   YZ=            -11.6639

 Normal termination of Gaussian 16 at Fri Apr 29 02:01:35 2022.
