 Gaussian 16, Revision A.03,
 Gaussian 16:  ES64L-G16RevA.03 25-Dec-2016

 --------------------------------
 #p wB97XD/Def2SVP td=(nstates=5)
 --------------------------------

 ----------------------------------------------------
 step_1801_chromophore_3 TDDFT with wB97XD functional
 ----------------------------------------------------
 Symbolic Z-matrix:
 Charge =  0 Multiplicity = 1

                         Standard orientation:
 ---------------------------------------------------------------------
 Center     Atomic      Atomic             Coordinates (Angstroms)
 Number     Number       Type             X           Y           Z
 ---------------------------------------------------------------------
      1         12           0        5.046797    1.005664    0.094378
      2          6           0        4.302838   -2.524011   -0.323201
      3          6           0        1.773156    1.601206   -0.319163
      4          6           0        5.830871    4.247272    0.474392
      5          6           0        8.476649    0.232694   -0.034161
      6          7           0        3.166601   -0.344289   -0.163128
      7          6           0        3.137772   -1.741320   -0.325001
      8          6           0        1.647756   -2.181938   -0.157884
      9          6           0        0.878398   -0.846798   -0.501718
     10          6           0        2.015366    0.204097   -0.401148
     11          6           0        0.043033   -0.736086   -1.808076
     12          6           0        1.349073   -2.709358    1.231204
     13          6           0        0.280538   -3.807981    1.391329
     14          6           0       -0.891203   -3.939986    0.332326
     15          8           0       -0.829149   -4.626922   -0.662375
     16          8           0       -1.969463   -3.130024    0.644123
     17          7           0        3.890752    2.756298    0.214189
     18          6           0        2.512308    2.787380    0.016539
     19          6           0        2.133954    4.110316    0.262113
     20          6           0        3.254519    4.866444    0.460686
     21          6           0        4.412022    3.974711    0.418139
     22          6           0        0.767397    4.597306    0.058865
     23          6           0        3.483666    6.395006    0.635452
     24          8           0        4.556512    6.888998    0.742490
     25          6           0        2.298398    7.313776    0.637155
     26          7           0        6.884448    2.002753    0.031311
     27          6           0        6.920664    3.377472    0.236144
     28          6           0        8.309220    3.938622   -0.005067
     29          6           0        9.180803    2.568761    0.153156
     30          6           0        8.084451    1.537402   -0.075280
     31          6           0        8.625930    4.675590   -1.349641
     32          6           0        9.878964    2.591357    1.570244
     33          6           0       11.342002    2.031937    1.528897
     34          7           0        6.200302   -0.783824   -0.135096
     35          6           0        7.591014   -0.895217   -0.125702
     36          6           0        7.929898   -2.290125   -0.253756
     37          6           0        6.661906   -3.006039   -0.167056
     38          6           0        5.633523   -2.024146   -0.141507
     39          6           0        9.275051   -2.877358   -0.443722
     40          6           0        6.033686   -4.300183   -0.236594
     41          8           0        6.452723   -5.446470   -0.315272
     42          6           0        4.457014   -3.996230   -0.331945
     43          6           0        3.776342   -4.572020   -1.496760
     44          8           0        3.553546   -4.094402   -2.567734
     45          8           0        3.267591   -5.734019   -1.093492
     46          6           0        2.354014   -6.321622   -2.117990
     47          6           0       -3.180703   -2.905680   -0.170450
     48          6           0       -4.404038   -3.024355    0.728720
     49          6           0       -5.369099   -3.953991    0.698951
     50          6           0       -5.216031   -5.261753   -0.055888
     51          6           0       -6.571742   -3.783385    1.645739
     52          6           0       -7.480002   -2.584869    1.284999
     53          6           0       -7.507084   -1.399297    2.309760
     54          6           0       -9.036129   -1.076438    2.699554
     55          6           0       -9.123006   -0.670012    4.103088
     56          6           0       -9.706761   -0.084792    1.755666
     57          6           0      -11.109267   -0.542884    1.443702
     58          6           0      -11.336389   -0.864818   -0.062020
     59          6           0      -12.303102    0.145187   -0.802234
     60          6           0      -13.209338   -0.521394   -1.839125
     61          6           0      -11.595754    1.322034   -1.464552
     62          6           0      -12.356760    2.650952   -1.296111
     63          6           0      -11.548152    3.818714   -2.092943
     64          6           0      -10.926630    4.955735   -1.244110
     65          6           0      -11.954430    6.030379   -0.992953
     66          6           0       -9.601007    5.416830   -1.904093
     67          1           0        0.692550    1.753985   -0.356292
     68          1           0        6.171683    5.277347    0.597940
     69          1           0        9.522015   -0.080305   -0.069320
     70          1           0        1.507720   -3.049439   -0.803864
     71          1           0        0.141610   -0.547825    0.245225
     72          1           0       -0.109137   -1.784955   -2.063116
     73          1           0        0.485808   -0.109400   -2.582633
     74          1           0       -0.898798   -0.301996   -1.474153
     75          1           0        1.134864   -1.825086    1.831635
     76          1           0        2.344275   -3.018276    1.551504
     77          1           0       -0.130784   -3.865391    2.399301
     78          1           0        0.770383   -4.780112    1.332454
     79          1           0        0.327071    4.883661    1.013357
     80          1           0        0.067734    3.885691   -0.379610
     81          1           0        0.616446    5.345951   -0.718617
     82          1           0        1.545667    6.889437    1.301277
     83          1           0        1.935903    7.373442   -0.388858
     84          1           0        2.610214    8.330201    0.876266
     85          1           0        8.544857    4.688182    0.750135
     86          1           0        9.923147    2.465661   -0.638309
     87          1           0        7.779761    4.785610   -2.027734
     88          1           0        9.478904    4.299205   -1.914639
     89          1           0        8.852840    5.679103   -0.990113
     90          1           0        9.251366    1.941167    2.179974
     91          1           0        9.819695    3.570755    2.044858
     92          1           0       11.985417    2.651991    2.152743
     93          1           0       11.912966    1.975116    0.601043
     94          1           0       11.350957    1.046248    1.993043
     95          1           0        9.959641   -2.197391    0.063892
     96          1           0        9.424444   -3.048085   -1.510381
     97          1           0        9.310828   -3.867217    0.011085
     98          1           0        3.990502   -4.393935    0.569880
     99          1           0        1.460785   -5.724203   -2.296722
    100          1           0        2.036141   -7.271972   -1.687621
    101          1           0        2.890211   -6.426945   -3.061076
    102          1           0       -3.178789   -3.544831   -1.054246
    103          1           0       -3.198307   -1.880231   -0.537341
    104          1           0       -4.483193   -2.136101    1.356110
    105          1           0       -5.976624   -5.261589   -0.837061
    106          1           0       -5.408966   -6.100581    0.611988
    107          1           0       -4.204599   -5.366446   -0.447505
    108          1           0       -6.223454   -3.676727    2.672543
    109          1           0       -7.202291   -4.666758    1.739036
    110          1           0       -8.482904   -2.972959    1.107971
    111          1           0       -7.150592   -2.243707    0.303128
    112          1           0       -7.082483   -0.533549    1.803085
    113          1           0       -6.858899   -1.544692    3.173451
    114          1           0       -9.526546   -2.049566    2.676864
    115          1           0       -8.168472   -0.238352    4.405080
    116          1           0       -9.395012   -1.480613    4.779691
    117          1           0       -9.870011    0.097160    4.308579
    118          1           0       -9.049410   -0.019853    0.889206
    119          1           0       -9.732536    0.886107    2.252322
    120          1           0      -11.820175    0.213472    1.776544
    121          1           0      -11.442999   -1.402874    2.023752
    122          1           0      -11.817552   -1.842250   -0.109324
    123          1           0      -10.411313   -1.088150   -0.593002
    124          1           0      -13.081863    0.466271   -0.109470
    125          1           0      -13.566175    0.250863   -2.519661
    126          1           0      -14.128453   -0.949769   -1.438197
    127          1           0      -12.683400   -1.298545   -2.394324
    128          1           0      -11.614877    1.145387   -2.540550
    129          1           0      -10.545707    1.522093   -1.252554
    130          1           0      -12.364009    2.761020   -0.211516
    131          1           0      -13.330626    2.607960   -1.784347
    132          1           0      -12.188720    4.279787   -2.844851
    133          1           0      -10.769728    3.343224   -2.689029
    134          1           0      -10.732526    4.505804   -0.271117
    135          1           0      -11.584601    6.763366   -0.277116
    136          1           0      -12.791273    5.627819   -0.422724
    137          1           0      -12.268527    6.571161   -1.885766
    138          1           0       -9.449851    6.496581   -1.917614
    139          1           0       -9.350939    5.117248   -2.921540
    140          1           0       -8.735069    5.068211   -1.340239
 ---------------------------------------------------------------------

 SCF Done:  E(RwB97XD) =  -3007.86339614     A.U. after   17 cycles

 Excitation energies and oscillator strengths:

 Excited State   1:      Singlet-A      1.6436 eV  754.32 nm  f=0.3772  <S**2>=0.000
     245 -> 248       -0.17273
     246 -> 247        0.68468
     245 <- 248       -0.11425
 This state for optimization and/or second-order correction.
 Total Energy, E(TD-HF/TD-DFT) =  -3007.80299316
 Copying the excited state density for this state as the 1-particle RhoCI density.

 Excited State   2:      Singlet-A      2.1276 eV  582.74 nm  f=0.1490  <S**2>=0.000
     245 -> 247        0.64664
     246 -> 248        0.26362

 Excited State   3:      Singlet-A      3.1858 eV  389.18 nm  f=0.0053  <S**2>=0.000
     242 -> 247       -0.17478
     244 -> 247        0.66329

 Excited State   4:      Singlet-A      3.4556 eV  358.79 nm  f=0.0372  <S**2>=0.000
     239 -> 247        0.22742
     242 -> 247        0.51499
     243 -> 247       -0.19888
     244 -> 247        0.14078
     246 -> 248       -0.31538

 Excited State   5:      Singlet-A      3.5329 eV  350.94 nm  f=0.0014  <S**2>=0.000
     242 -> 247        0.20065
     242 -> 249       -0.10251
     243 -> 247        0.53832
     243 -> 248       -0.11067
     243 -> 249       -0.29227
     243 -> 250        0.15204

 The electronic state is 1-A.
 Alpha  occ. eigenvalues --  -46.95380 -19.29927 -19.29023 -19.25702 -19.24403
 Alpha  occ. eigenvalues --  -19.23439 -19.23326 -14.46715 -14.46114 -14.43926
 Alpha  occ. eigenvalues --  -14.43268 -10.44457 -10.41246 -10.39125 -10.38573
 Alpha  occ. eigenvalues --  -10.36776 -10.35242 -10.35146 -10.34995 -10.34587
 Alpha  occ. eigenvalues --  -10.34576 -10.34025 -10.33405 -10.33052 -10.32438
 Alpha  occ. eigenvalues --  -10.32318 -10.32211 -10.32206 -10.32107 -10.32053
 Alpha  occ. eigenvalues --  -10.32045 -10.31979 -10.31561 -10.31455 -10.31403
 Alpha  occ. eigenvalues --  -10.31070 -10.30981 -10.30877 -10.30744 -10.30610
 Alpha  occ. eigenvalues --  -10.30452 -10.30172 -10.30130 -10.29966 -10.29930
 Alpha  occ. eigenvalues --  -10.29909 -10.29874 -10.29709 -10.29701 -10.29559
 Alpha  occ. eigenvalues --  -10.29549 -10.29408 -10.29339 -10.29313 -10.29206
 Alpha  occ. eigenvalues --  -10.29196 -10.29111 -10.28830 -10.28827 -10.28812
 Alpha  occ. eigenvalues --  -10.28611 -10.28439 -10.28437 -10.28206 -10.28197
 Alpha  occ. eigenvalues --  -10.27831  -3.21188  -1.94806  -1.94312  -1.94132
 Alpha  occ. eigenvalues --   -1.19149  -1.18076  -1.14867  -1.11150  -1.10502
 Alpha  occ. eigenvalues --   -1.09623  -1.06779  -1.06268  -1.05678  -1.03544
 Alpha  occ. eigenvalues --   -0.94366  -0.92704  -0.91949  -0.91571  -0.90946
 Alpha  occ. eigenvalues --   -0.90937  -0.89467  -0.89442  -0.89237  -0.88923
 Alpha  occ. eigenvalues --   -0.87583  -0.87201  -0.86421  -0.85215  -0.84969
 Alpha  occ. eigenvalues --   -0.84511  -0.83711  -0.83329  -0.82819  -0.82332
 Alpha  occ. eigenvalues --   -0.82185  -0.80342  -0.80144  -0.78564  -0.77978
 Alpha  occ. eigenvalues --   -0.77922  -0.77726  -0.76982  -0.76835  -0.75749
 Alpha  occ. eigenvalues --   -0.75527  -0.74575  -0.73186  -0.72619  -0.70778
 Alpha  occ. eigenvalues --   -0.70367  -0.70241  -0.68916  -0.68552  -0.67808
 Alpha  occ. eigenvalues --   -0.67714  -0.67432  -0.66895  -0.65982  -0.65830
 Alpha  occ. eigenvalues --   -0.65637  -0.65535  -0.64887  -0.63037  -0.62323
 Alpha  occ. eigenvalues --   -0.62269  -0.61496  -0.61147  -0.60319  -0.59630
 Alpha  occ. eigenvalues --   -0.59461  -0.58787  -0.58441  -0.57728  -0.57514
 Alpha  occ. eigenvalues --   -0.56711  -0.56405  -0.56343  -0.55959  -0.55607
 Alpha  occ. eigenvalues --   -0.55460  -0.55367  -0.55178  -0.55043  -0.54759
 Alpha  occ. eigenvalues --   -0.54551  -0.54234  -0.54134  -0.54024  -0.53759
 Alpha  occ. eigenvalues --   -0.53384  -0.53188  -0.53047  -0.52695  -0.52594
 Alpha  occ. eigenvalues --   -0.52483  -0.52436  -0.52057  -0.51990  -0.51685
 Alpha  occ. eigenvalues --   -0.51229  -0.51186  -0.51077  -0.50768  -0.50702
 Alpha  occ. eigenvalues --   -0.50515  -0.50332  -0.50188  -0.49936  -0.49755
 Alpha  occ. eigenvalues --   -0.49708  -0.49584  -0.49091  -0.49076  -0.48538
 Alpha  occ. eigenvalues --   -0.48378  -0.47987  -0.47955  -0.47821  -0.47570
 Alpha  occ. eigenvalues --   -0.47448  -0.47357  -0.47102  -0.46847  -0.46760
 Alpha  occ. eigenvalues --   -0.46635  -0.46489  -0.46216  -0.46081  -0.45860
 Alpha  occ. eigenvalues --   -0.45805  -0.45495  -0.45416  -0.45233  -0.44817
 Alpha  occ. eigenvalues --   -0.44689  -0.44505  -0.44181  -0.44106  -0.43661
 Alpha  occ. eigenvalues --   -0.43390  -0.43208  -0.43153  -0.43141  -0.43063
 Alpha  occ. eigenvalues --   -0.43040  -0.42922  -0.42260  -0.42034  -0.41860
 Alpha  occ. eigenvalues --   -0.41752  -0.41586  -0.41567  -0.41130  -0.41009
 Alpha  occ. eigenvalues --   -0.40521  -0.39999  -0.39654  -0.39393  -0.39201
 Alpha  occ. eigenvalues --   -0.38910  -0.38762  -0.38623  -0.38555  -0.38140
 Alpha  occ. eigenvalues --   -0.38094  -0.37150  -0.36801  -0.36591  -0.36329
 Alpha  occ. eigenvalues --   -0.36005  -0.35535  -0.34824  -0.33721  -0.33093
 Alpha  occ. eigenvalues --   -0.33041  -0.32477  -0.32084  -0.30678  -0.25912
 Alpha  occ. eigenvalues --   -0.23047
 Alpha virt. eigenvalues --   -0.07345   0.00586   0.02767   0.05161   0.06184
 Alpha virt. eigenvalues --    0.06454   0.06956   0.08284   0.08928   0.09300
 Alpha virt. eigenvalues --    0.10450   0.11082   0.12092   0.12242   0.12808

 Mulliken charges:
               1
     1  Mg   0.937764
     2  C    0.005201
     3  C   -0.055067
     4  C   -0.059416
     5  C   -0.092577
     6  N   -0.303911
     7  C    0.011517
     8  C   -0.118134
     9  C   -0.123651
    10  C    0.039243
    11  C    0.036231
    12  C    0.064290
    13  C    0.032231
    14  C    0.205943
    15  O   -0.249440
    16  O   -0.387581
    17  N   -0.473994
    18  C    0.156079
    19  C   -0.118249
    20  C   -0.090329
    21  C    0.138424
    22  C    0.034841
    23  C    0.045926
    24  O   -0.193573
    25  C    0.003790
    26  N   -0.352647
    27  C    0.080915
    28  C   -0.125365
    29  C   -0.119010
    30  C    0.116677
    31  C    0.027897
    32  C    0.014608
    33  C   -0.071419
    34  N   -0.438119
    35  C    0.115707
    36  C   -0.191188
    37  C   -0.055799
    38  C    0.112496
    39  C    0.081521
    40  C    0.131897
    41  O   -0.203491
    42  C   -0.130965
    43  C    0.251000
    44  O   -0.233010
    45  O   -0.348232
    46  C    0.133065
    47  C    0.250338
    48  C   -0.142879
    49  C   -0.187983
    50  C    0.035047
    51  C    0.032733
    52  C   -0.043460
    53  C   -0.000189
    54  C   -0.216080
    55  C    0.017226
    56  C    0.055289
    57  C   -0.012799
    58  C    0.018302
    59  C   -0.152574
    60  C   -0.012378
    61  C   -0.015112
    62  C   -0.041584
    63  C   -0.010814
    64  C   -0.165684
    65  C    0.001502
    66  C   -0.017027
    67  H   -0.015873
    68  H    0.025777
    69  H   -0.005394
    70  H    0.044579
    71  H    0.041455
    72  H    0.054348
    73  H    0.053416
    74  H    0.026706
    75  H    0.025969
    76  H    0.029270
    77  H    0.053284
    78  H    0.051479
    79  H    0.054361
    80  H    0.021658
    81  H    0.048638
    82  H    0.048401
    83  H    0.054131
    84  H    0.050985
    85  H    0.038913
    86  H    0.029244
    87  H    0.041515
    88  H    0.042238
    89  H    0.032906
    90  H    0.036033
    91  H    0.039466
    92  H    0.029953
    93  H    0.039867
    94  H    0.039687
    95  H    0.039909
    96  H    0.064664
    97  H    0.053120
    98  H    0.075365
    99  H    0.064454
   100  H    0.051944
   101  H    0.059262
   102  H    0.046767
   103  H    0.039536
   104  H    0.024095
   105  H    0.046492
   106  H    0.047453
   107  H    0.050597
   108  H    0.038581
   109  H    0.012918
   110  H    0.025589
   111  H    0.025284
   112  H    0.016924
   113  H    0.021202
   114  H    0.019016
   115  H    0.021771
   116  H    0.026299
   117  H    0.013263
   118  H    0.017088
   119  H    0.017717
   120  H    0.011105
   121  H    0.020626
   122  H    0.001634
   123  H    0.014523
   124  H    0.017180
   125  H    0.017839
   126  H    0.025482
   127  H    0.028966
   128  H    0.010246
   129  H    0.021046
   130  H    0.028755
   131  H    0.028842
   132  H    0.011573
   133  H    0.011213
   134  H    0.018031
   135  H    0.019137
   136  H    0.024547
   137  H    0.033718
   138  H    0.016900
   139  H    0.029874
   140  H    0.022471
 Sum of Mulliken charges =  -0.00000

 Dipole moment (field-independent basis, Debye):
    X=             -5.9599    Y=              3.8502    Z=              2.2713  Tot=              7.4500
 Quadrupole moment (field-independent basis, Debye-Ang):
   XX=           -377.6955   YY=           -425.1464   ZZ=           -405.3497
   XY=             34.0639   XZ=              2.9002   YZ=            -11.5725

 Normal termination of Gaussian 16 at Fri Apr 29 02:27:50 2022.
