 Gaussian 16, Revision A.03,
 Gaussian 16:  ES64L-G16RevA.03 25-Dec-2016

 --------------------
 #p ZINDO=(nstates=5)
 --------------------

 -----------------------------
 step_1801_chromophore_3 ZINDO
 -----------------------------
 Symbolic Z-matrix:
 Charge =  0 Multiplicity = 1

                         Standard orientation:
 ---------------------------------------------------------------------
 Center     Atomic      Atomic             Coordinates (Angstroms)
 Number     Number       Type             X           Y           Z
 ---------------------------------------------------------------------
      1         12           0        5.046797    1.005664    0.094378
      2          6           0        4.302838   -2.524011   -0.323201
      3          6           0        1.773156    1.601206   -0.319163
      4          6           0        5.830871    4.247272    0.474392
      5          6           0        8.476649    0.232694   -0.034161
      6          7           0        3.166601   -0.344289   -0.163128
      7          6           0        3.137772   -1.741320   -0.325001
      8          6           0        1.647756   -2.181938   -0.157884
      9          6           0        0.878398   -0.846798   -0.501718
     10          6           0        2.015366    0.204097   -0.401148
     11          6           0        0.043033   -0.736086   -1.808076
     12          6           0        1.349073   -2.709358    1.231204
     13          6           0        0.280538   -3.807981    1.391329
     14          6           0       -0.891203   -3.939986    0.332326
     15          8           0       -0.829149   -4.626922   -0.662375
     16          8           0       -1.969463   -3.130024    0.644123
     17          7           0        3.890752    2.756298    0.214189
     18          6           0        2.512308    2.787380    0.016539
     19          6           0        2.133954    4.110316    0.262113
     20          6           0        3.254519    4.866444    0.460686
     21          6           0        4.412022    3.974711    0.418139
     22          6           0        0.767397    4.597306    0.058865
     23          6           0        3.483666    6.395006    0.635452
     24          8           0        4.556512    6.888998    0.742490
     25          6           0        2.298398    7.313776    0.637155
     26          7           0        6.884448    2.002753    0.031311
     27          6           0        6.920664    3.377472    0.236144
     28          6           0        8.309220    3.938622   -0.005067
     29          6           0        9.180803    2.568761    0.153156
     30          6           0        8.084451    1.537402   -0.075280
     31          6           0        8.625930    4.675590   -1.349641
     32          6           0        9.878964    2.591357    1.570244
     33          6           0       11.342002    2.031937    1.528897
     34          7           0        6.200302   -0.783824   -0.135096
     35          6           0        7.591014   -0.895217   -0.125702
     36          6           0        7.929898   -2.290125   -0.253756
     37          6           0        6.661906   -3.006039   -0.167056
     38          6           0        5.633523   -2.024146   -0.141507
     39          6           0        9.275051   -2.877358   -0.443722
     40          6           0        6.033686   -4.300183   -0.236594
     41          8           0        6.452723   -5.446470   -0.315272
     42          6           0        4.457014   -3.996230   -0.331945
     43          6           0        3.776342   -4.572020   -1.496760
     44          8           0        3.553546   -4.094402   -2.567734
     45          8           0        3.267591   -5.734019   -1.093492
     46          6           0        2.354014   -6.321622   -2.117990
     47          6           0       -3.180703   -2.905680   -0.170450
     48          6           0       -4.404038   -3.024355    0.728720
     49          6           0       -5.369099   -3.953991    0.698951
     50          6           0       -5.216031   -5.261753   -0.055888
     51          6           0       -6.571742   -3.783385    1.645739
     52          6           0       -7.480002   -2.584869    1.284999
     53          6           0       -7.507084   -1.399297    2.309760
     54          6           0       -9.036129   -1.076438    2.699554
     55          6           0       -9.123006   -0.670012    4.103088
     56          6           0       -9.706761   -0.084792    1.755666
     57          6           0      -11.109267   -0.542884    1.443702
     58          6           0      -11.336389   -0.864818   -0.062020
     59          6           0      -12.303102    0.145187   -0.802234
     60          6           0      -13.209338   -0.521394   -1.839125
     61          6           0      -11.595754    1.322034   -1.464552
     62          6           0      -12.356760    2.650952   -1.296111
     63          6           0      -11.548152    3.818714   -2.092943
     64          6           0      -10.926630    4.955735   -1.244110
     65          6           0      -11.954430    6.030379   -0.992953
     66          6           0       -9.601007    5.416830   -1.904093
     67          1           0        0.692550    1.753985   -0.356292
     68          1           0        6.171683    5.277347    0.597940
     69          1           0        9.522015   -0.080305   -0.069320
     70          1           0        1.507720   -3.049439   -0.803864
     71          1           0        0.141610   -0.547825    0.245225
     72          1           0       -0.109137   -1.784955   -2.063116
     73          1           0        0.485808   -0.109400   -2.582633
     74          1           0       -0.898798   -0.301996   -1.474153
     75          1           0        1.134864   -1.825086    1.831635
     76          1           0        2.344275   -3.018276    1.551504
     77          1           0       -0.130784   -3.865391    2.399301
     78          1           0        0.770383   -4.780112    1.332454
     79          1           0        0.327071    4.883661    1.013357
     80          1           0        0.067734    3.885691   -0.379610
     81          1           0        0.616446    5.345951   -0.718617
     82          1           0        1.545667    6.889437    1.301277
     83          1           0        1.935903    7.373442   -0.388858
     84          1           0        2.610214    8.330201    0.876266
     85          1           0        8.544857    4.688182    0.750135
     86          1           0        9.923147    2.465661   -0.638309
     87          1           0        7.779761    4.785610   -2.027734
     88          1           0        9.478904    4.299205   -1.914639
     89          1           0        8.852840    5.679103   -0.990113
     90          1           0        9.251366    1.941167    2.179974
     91          1           0        9.819695    3.570755    2.044858
     92          1           0       11.985417    2.651991    2.152743
     93          1           0       11.912966    1.975116    0.601043
     94          1           0       11.350957    1.046248    1.993043
     95          1           0        9.959641   -2.197391    0.063892
     96          1           0        9.424444   -3.048085   -1.510381
     97          1           0        9.310828   -3.867217    0.011085
     98          1           0        3.990502   -4.393935    0.569880
     99          1           0        1.460785   -5.724203   -2.296722
    100          1           0        2.036141   -7.271972   -1.687621
    101          1           0        2.890211   -6.426945   -3.061076
    102          1           0       -3.178789   -3.544831   -1.054246
    103          1           0       -3.198307   -1.880231   -0.537341
    104          1           0       -4.483193   -2.136101    1.356110
    105          1           0       -5.976624   -5.261589   -0.837061
    106          1           0       -5.408966   -6.100581    0.611988
    107          1           0       -4.204599   -5.366446   -0.447505
    108          1           0       -6.223454   -3.676727    2.672543
    109          1           0       -7.202291   -4.666758    1.739036
    110          1           0       -8.482904   -2.972959    1.107971
    111          1           0       -7.150592   -2.243707    0.303128
    112          1           0       -7.082483   -0.533549    1.803085
    113          1           0       -6.858899   -1.544692    3.173451
    114          1           0       -9.526546   -2.049566    2.676864
    115          1           0       -8.168472   -0.238352    4.405080
    116          1           0       -9.395012   -1.480613    4.779691
    117          1           0       -9.870011    0.097160    4.308579
    118          1           0       -9.049410   -0.019853    0.889206
    119          1           0       -9.732536    0.886107    2.252322
    120          1           0      -11.820175    0.213472    1.776544
    121          1           0      -11.442999   -1.402874    2.023752
    122          1           0      -11.817552   -1.842250   -0.109324
    123          1           0      -10.411313   -1.088150   -0.593002
    124          1           0      -13.081863    0.466271   -0.109470
    125          1           0      -13.566175    0.250863   -2.519661
    126          1           0      -14.128453   -0.949769   -1.438197
    127          1           0      -12.683400   -1.298545   -2.394324
    128          1           0      -11.614877    1.145387   -2.540550
    129          1           0      -10.545707    1.522093   -1.252554
    130          1           0      -12.364009    2.761020   -0.211516
    131          1           0      -13.330626    2.607960   -1.784347
    132          1           0      -12.188720    4.279787   -2.844851
    133          1           0      -10.769728    3.343224   -2.689029
    134          1           0      -10.732526    4.505804   -0.271117
    135          1           0      -11.584601    6.763366   -0.277116
    136          1           0      -12.791273    5.627819   -0.422724
    137          1           0      -12.268527    6.571161   -1.885766
    138          1           0       -9.449851    6.496581   -1.917614
    139          1           0       -9.350939    5.117248   -2.921540
    140          1           0       -8.735069    5.068211   -1.340239
 ---------------------------------------------------------------------

 SCF Done:  E(RZINDO/S) =  -474.413948978     A.U. after   19 cycles

 Excitation energies and oscillator strengths:

 Excited State   1:      Singlet-A      1.2597 eV  984.27 nm  f=0.5781  <S**2>=0.000
     175 ->178         0.17784
     176 ->177         0.66591
 This state for optimization and/or second-order correction.
 Total Energy, E(CIS/TDA) =  -474.367657653
 Copying the excited state density for this state as the 1-particle RhoCI density.

 Excited State   2:      Singlet-A      1.9074 eV  650.01 nm  f=0.0766  <S**2>=0.000
     175 ->177         0.56188
     176 ->178        -0.39772

 Excited State   3:      Singlet-A      2.9661 eV  418.01 nm  f=0.6941  <S**2>=0.000
     174 ->177         0.10274
     175 ->177         0.29951
     176 ->178         0.47769
     176 ->179         0.31526
     176 ->181        -0.14860

 Excited State   4:      Singlet-A      3.0123 eV  411.60 nm  f=0.0091  <S**2>=0.000
     167 ->179         0.14150
     167 ->181         0.14166
     167 ->186         0.10131
     168 ->177         0.29695
     168 ->179         0.33455
     168 ->181         0.30990
     168 ->186         0.23231
     176 ->179         0.10317

 Excited State   5:      Singlet-A      3.0660 eV  404.38 nm  f=0.0251  <S**2>=0.000
     169 ->177        -0.15716
     169 ->179         0.13077
     169 ->181        -0.13539
     170 ->177         0.16127
     170 ->178        -0.15777
     170 ->179        -0.23500
     170 ->181         0.21598
     170 ->186        -0.13110
     171 ->177        -0.13800
     171 ->179         0.12909
     171 ->181        -0.12947
     173 ->177        -0.16414
     174 ->177         0.23223

 The electronic state is 1-A.
 Alpha  occ. eigenvalues --   -1.83206  -1.81742  -1.81127  -1.75106  -1.71834
 Alpha  occ. eigenvalues --   -1.68968  -1.65918  -1.62237  -1.61204  -1.57307
 Alpha  occ. eigenvalues --   -1.54765  -1.52595  -1.48657  -1.47984  -1.45076
 Alpha  occ. eigenvalues --   -1.43960  -1.43258  -1.41155  -1.38998  -1.38810
 Alpha  occ. eigenvalues --   -1.36724  -1.33377  -1.33250  -1.31376  -1.28542
 Alpha  occ. eigenvalues --   -1.28167  -1.24577  -1.22804  -1.21361  -1.18610
 Alpha  occ. eigenvalues --   -1.17446  -1.16949  -1.15502  -1.14515  -1.12818
 Alpha  occ. eigenvalues --   -1.12201  -1.10638  -1.09851  -1.05517  -1.03146
 Alpha  occ. eigenvalues --   -1.02664  -1.00653  -0.98546  -0.97360  -0.97090
 Alpha  occ. eigenvalues --   -0.96876  -0.94235  -0.93248  -0.92916  -0.92123
 Alpha  occ. eigenvalues --   -0.91610  -0.91254  -0.90318  -0.88513  -0.88378
 Alpha  occ. eigenvalues --   -0.85928  -0.84094  -0.83311  -0.82222  -0.80376
 Alpha  occ. eigenvalues --   -0.79769  -0.78574  -0.77987  -0.76872  -0.76624
 Alpha  occ. eigenvalues --   -0.75835  -0.75505  -0.74023  -0.73458  -0.73308
 Alpha  occ. eigenvalues --   -0.72499  -0.71980  -0.71653  -0.71420  -0.70321
 Alpha  occ. eigenvalues --   -0.69675  -0.69399  -0.69116  -0.68896  -0.67911
 Alpha  occ. eigenvalues --   -0.67645  -0.67358  -0.67169  -0.66405  -0.65377
 Alpha  occ. eigenvalues --   -0.65289  -0.64899  -0.64190  -0.63974  -0.63514
 Alpha  occ. eigenvalues --   -0.63248  -0.63121  -0.62695  -0.62157  -0.61974
 Alpha  occ. eigenvalues --   -0.61738  -0.61631  -0.61179  -0.60731  -0.60456
 Alpha  occ. eigenvalues --   -0.59360  -0.59178  -0.59086  -0.58404  -0.58049
 Alpha  occ. eigenvalues --   -0.57709  -0.57416  -0.57282  -0.57059  -0.56787
 Alpha  occ. eigenvalues --   -0.56096  -0.55586  -0.55392  -0.55257  -0.55080
 Alpha  occ. eigenvalues --   -0.54593  -0.54390  -0.53211  -0.53002  -0.52249
 Alpha  occ. eigenvalues --   -0.52122  -0.51849  -0.51556  -0.51232  -0.51040
 Alpha  occ. eigenvalues --   -0.50852  -0.50838  -0.50623  -0.50510  -0.50182
 Alpha  occ. eigenvalues --   -0.49886  -0.49625  -0.49320  -0.49188  -0.48829
 Alpha  occ. eigenvalues --   -0.48637  -0.48344  -0.47999  -0.47933  -0.47591
 Alpha  occ. eigenvalues --   -0.47163  -0.47054  -0.46905  -0.46726  -0.46602
 Alpha  occ. eigenvalues --   -0.46318  -0.46254  -0.45588  -0.45320  -0.45303
 Alpha  occ. eigenvalues --   -0.45055  -0.44877  -0.44560  -0.44518  -0.43997
 Alpha  occ. eigenvalues --   -0.43898  -0.43554  -0.42898  -0.42094  -0.41836
 Alpha  occ. eigenvalues --   -0.41741  -0.41482  -0.41042  -0.39465  -0.38289
 Alpha  occ. eigenvalues --   -0.37557  -0.36339  -0.35298  -0.34551  -0.34227
 Alpha  occ. eigenvalues --   -0.33970  -0.33048  -0.32309  -0.31037  -0.26465
 Alpha  occ. eigenvalues --   -0.21869
 Alpha virt. eigenvalues --   -0.08623  -0.01863  -0.00107   0.01737   0.01922
 Alpha virt. eigenvalues --    0.02781   0.03454   0.03880   0.04216   0.04684
 Alpha virt. eigenvalues --    0.06216   0.06383   0.06981   0.07735   0.07921

 Mulliken charges:
               1
     1  Mg   0.421715
     2  C   -0.007977
     3  C   -0.082226
     4  C   -0.080595
     5  C   -0.076211
     6  N   -0.266707
     7  C    0.074361
     8  C    0.012359
     9  C    0.003735
    10  C    0.169057
    11  C   -0.052762
    12  C   -0.013234
    13  C    0.007668
    14  C    0.470557
    15  O   -0.503205
    16  O   -0.293423
    17  N   -0.333521
    18  C    0.115477
    19  C    0.045755
    20  C   -0.037537
    21  C    0.152782
    22  C   -0.048416
    23  C    0.326495
    24  O   -0.499828
    25  C   -0.032067
    26  N   -0.259217
    27  C    0.148840
    28  C   -0.006492
    29  C   -0.015390
    30  C    0.134868
    31  C   -0.051215
    32  C   -0.026539
    33  C   -0.061138
    34  N   -0.328328
    35  C    0.070653
    36  C    0.015711
    37  C   -0.073926
    38  C    0.092576
    39  C   -0.037912
    40  C    0.331690
    41  O   -0.525209
    42  C    0.054870
    43  C    0.502145
    44  O   -0.523837
    45  O   -0.265001
    46  C    0.072042
    47  C    0.110075
    48  C   -0.089314
    49  C    0.007928
    50  C   -0.039631
    51  C   -0.022987
    52  C   -0.034974
    53  C   -0.042225
    54  C   -0.009680
    55  C   -0.050386
    56  C   -0.021949
    57  C   -0.030461
    58  C   -0.038017
    59  C   -0.007212
    60  C   -0.056476
    61  C   -0.031900
    62  C   -0.045698
    63  C   -0.046750
    64  C    0.003449
    65  C   -0.049434
    66  C   -0.057839
    67  H    0.010363
    68  H    0.048127
    69  H    0.029444
    70  H    0.041859
    71  H    0.028978
    72  H    0.034403
    73  H    0.035284
    74  H    0.016276
    75  H    0.020558
    76  H    0.026884
    77  H    0.035140
    78  H    0.033958
    79  H    0.031234
    80  H    0.013905
    81  H    0.029808
    82  H    0.034950
    83  H    0.037733
    84  H    0.039423
    85  H    0.031372
    86  H    0.030220
    87  H    0.025623
    88  H    0.027594
    89  H    0.016135
    90  H    0.022016
    91  H    0.027672
    92  H    0.010388
    93  H    0.027958
    94  H    0.018558
    95  H    0.027425
    96  H    0.041962
    97  H    0.029886
    98  H    0.050342
    99  H    0.047115
   100  H    0.027174
   101  H    0.050463
   102  H    0.051765
   103  H    0.034412
   104  H    0.024643
   105  H    0.030472
   106  H    0.027843
   107  H    0.033033
   108  H    0.023373
   109  H    0.015024
   110  H    0.018051
   111  H    0.016276
   112  H    0.013975
   113  H    0.026456
   114  H    0.019114
   115  H    0.014089
   116  H    0.013352
   117  H    0.009675
   118  H    0.020989
   119  H    0.019669
   120  H    0.013183
   121  H    0.020043
   122  H    0.005659
   123  H    0.025130
   124  H    0.021315
   125  H    0.013799
   126  H    0.012940
   127  H    0.018215
   128  H    0.010416
   129  H    0.021710
   130  H    0.028450
   131  H    0.027059
   132  H    0.014808
   133  H    0.014713
   134  H    0.019475
   135  H    0.006491
   136  H    0.015406
   137  H    0.025492
   138  H    0.011966
   139  H    0.023347
   140  H    0.009981
 Sum of Mulliken charges =  -0.00000

 Dipole moment (field-independent basis, Debye):
    X=             -8.2282    Y=              6.5141    Z=              3.3669  Tot=             11.0215
 N-N= 4.310638495785D+03 E-N= 0.000000000000D+00  KE=-9.295802475083D+03
 Leave Link  601 at Fri Apr 29 02:40:40 2022, MaxMem=  6710886400 cpu:               0.8 elap:               0.1
 (Enter /sw/apps/gaussian-16.0/g16/l9999.exe)
 1\1\GINC-BP1-COMPUTE166\SP\RZINDO CIS\STO-3G\C55H74Mg1N4O6\OF15641\29-
 Apr-2022\0\\#p ZINDO=(nstates=5)\\step_1801_chromophore_3 ZINDO\\0,1\M
 g,0,1.402,8.46,25.094\C,0,2.473,10.429,27.951\C,0,1.691,5.742,27.036\C
 ,0,0.422,6.72,22.396\C,0,1.679,11.337,23.088\N,0,1.905,8.111,27.341\C,
 0,2.326,9.072,28.278\C,0,2.242,8.395,29.684\C,0,2.328,6.864,29.308\C,0
 ,2.034,6.899,27.785\C,0,3.589,6.034,29.679\C,0,0.976,8.762,30.432\C,0,
 1.023,8.844,31.97\C,0,2.086,7.993,32.781\O,0,3.192,8.391,33.07\O,0,1.6

 Normal termination of Gaussian 16 at Fri Apr 29 02:40:40 2022.
