 Gaussian 16, Revision A.03,
 Gaussian 16:  ES64L-G16RevA.03 25-Dec-2016

 ------------------------------
 #p blyp/Def2SVP td=(nstates=5)
 ------------------------------

 --------------------------------------------------
 step_551_chromophore_27 TDDFT with blyp functional
 --------------------------------------------------
 Symbolic Z-matrix:
 Charge =  0 Multiplicity = 1

                         Standard orientation:
 ---------------------------------------------------------------------
 Center     Atomic      Atomic             Coordinates (Angstroms)
 Number     Number       Type             X           Y           Z
 ---------------------------------------------------------------------
      1         12           0       -4.352110    0.970985   -0.304205
      2          6           0       -4.049164   -2.373994    0.514030
      3          6           0       -0.852151    1.185057   -0.135261
      4          6           0       -4.543886    4.274160   -0.339033
      5          6           0       -7.866847    0.777529    0.168163
      6          7           0       -2.634823   -0.425467    0.172455
      7          6           0       -2.810210   -1.809663    0.348517
      8          6           0       -1.462448   -2.527335    0.266874
      9          6           0       -0.474715   -1.298816    0.457872
     10          6           0       -1.364442   -0.110498    0.051755
     11          6           0        0.120461   -1.129161    1.895461
     12          6           0       -1.246922   -3.349109   -1.068260
     13          6           0       -0.681966   -4.713462   -0.959211
     14          6           0        0.562970   -4.954647   -1.750023
     15          8           0        0.602796   -5.777370   -2.696176
     16          8           0        1.633082   -4.470798   -1.012330
     17          7           0       -2.849565    2.536281   -0.352387
     18          6           0       -1.480600    2.422769   -0.342675
     19          6           0       -0.877177    3.787452   -0.302573
     20          6           0       -1.977698    4.671850   -0.456467
     21          6           0       -3.208139    3.817999   -0.451685
     22          6           0        0.582470    3.958010   -0.077607
     23          6           0       -1.907683    6.201619   -0.356741
     24          8           0       -2.927442    6.861722   -0.399190
     25          6           0       -0.567778    7.016509   -0.216603
     26          7           0       -5.901994    2.259840   -0.212203
     27          6           0       -5.740388    3.608558   -0.366996
     28          6           0       -7.066844    4.326350   -0.850139
     29          6           0       -8.142566    3.143941   -0.514472
     30          6           0       -7.234560    1.976894   -0.126994
     31          6           0       -7.457446    5.810197   -0.271067
     32          6           0       -9.149884    2.762446   -1.648915
     33          6           0      -10.617963    2.662271   -1.280660
     34          7           0       -5.813828   -0.506808    0.208517
     35          6           0       -7.225175   -0.443811    0.410234
     36          6           0       -7.697355   -1.744195    0.794229
     37          6           0       -6.514583   -2.546404    0.826322
     38          6           0       -5.377343   -1.716949    0.541879
     39          6           0       -9.088708   -2.056498    1.161748
     40          6           0       -5.900195   -3.905060    1.071364
     41          8           0       -6.441771   -4.940889    1.482661
     42          6           0       -4.339640   -3.823665    0.829452
     43          6           0       -3.734994   -4.372112    2.074982
     44          8           0       -3.684769   -3.773486    3.114343
     45          8           0       -3.248480   -5.621810    1.823816
     46          6           0       -2.512277   -6.195420    2.962769
     47          6           0        3.060467   -4.765364   -1.302708
     48          6           0        3.760589   -3.448220   -1.443764
     49          6           0        5.098898   -3.186131   -1.436247
     50          6           0        6.097250   -4.276768   -1.168101
     51          6           0        5.598484   -1.730343   -1.505116
     52          6           0        5.990487   -1.302227   -2.854712
     53          6           0        7.497659   -0.969800   -3.021837
     54          6           0        7.779634    0.186660   -4.024657
     55          6           0        7.818082   -0.418941   -5.451136
     56          6           0        9.070546    0.839249   -3.623069
     57          6           0        9.026682    1.752909   -2.364638
     58          6           0       10.199974    1.506557   -1.312987
     59          6           0        9.807459    1.519047    0.223788
     60          6           0        9.686912    0.070566    0.783189
     61          6           0       10.729584    2.302552    1.171793
     62          6           0        9.940424    2.994756    2.302480
     63          6           0       10.418806    2.609635    3.751998
     64          6           0        9.543079    1.746533    4.678245
     65          6           0        8.487264    2.629918    5.425455
     66          6           0       10.323214    0.888119    5.613372
     67          1           0        0.238528    1.231523   -0.114279
     68          1           0       -4.722809    5.349677   -0.401326
     69          1           0       -8.955342    0.732534    0.236198
     70          1           0       -1.274977   -3.190876    1.111694
     71          1           0        0.361024   -1.445271   -0.225895
     72          1           0       -0.174772   -1.965699    2.528987
     73          1           0       -0.219782   -0.227877    2.404073
     74          1           0        1.195407   -1.191120    1.726040
     75          1           0       -0.683817   -2.664357   -1.703084
     76          1           0       -2.199234   -3.399939   -1.597083
     77          1           0       -1.416021   -5.392797   -1.393043
     78          1           0       -0.579382   -5.060879    0.068972
     79          1           0        1.196426    3.082706   -0.291520
     80          1           0        0.727896    4.289199    0.950031
     81          1           0        0.858250    4.651244   -0.872560
     82          1           0        0.265758    6.585804    0.338029
     83          1           0       -0.676024    8.005090    0.229540
     84          1           0       -0.236945    7.061635   -1.254420
     85          1           0       -7.047519    4.533166   -1.920508
     86          1           0       -8.668311    3.385295    0.409975
     87          1           0       -8.496715    5.908823    0.044182
     88          1           0       -7.261932    6.505714   -1.087141
     89          1           0       -6.829928    6.063183    0.583319
     90          1           0       -8.976453    1.806146   -2.142047
     91          1           0       -8.945568    3.603306   -2.310446
     92          1           0      -11.270608    2.873611   -2.126329
     93          1           0      -10.867415    3.114835   -0.320476
     94          1           0      -10.841533    1.614913   -1.080122
     95          1           0       -9.296495   -3.126280    1.110689
     96          1           0       -9.743575   -1.538912    0.461719
     97          1           0       -9.426558   -1.628240    2.104932
     98          1           0       -3.978853   -4.396459   -0.025002
     99          1           0       -1.551206   -6.639067    2.701848
    100          1           0       -3.083649   -6.999723    3.426333
    101          1           0       -2.255815   -5.456369    3.722007
    102          1           0        3.083654   -5.482733   -2.122736
    103          1           0        3.362447   -5.187792   -0.345118
    104          1           0        3.144260   -2.553927   -1.357834
    105          1           0        6.408594   -4.574528   -2.169747
    106          1           0        5.736197   -5.196489   -0.708272
    107          1           0        6.940364   -3.994961   -0.537818
    108          1           0        6.431316   -1.566981   -0.820668
    109          1           0        4.663527   -1.200418   -1.324695
    110          1           0        5.305277   -0.592839   -3.319897
    111          1           0        5.862312   -2.247739   -3.382483
    112          1           0        8.069301   -1.864249   -3.270232
    113          1           0        7.949845   -0.591478   -2.104941
    114          1           0        6.989094    0.936174   -3.980683
    115          1           0        8.793124   -0.346238   -5.934081
    116          1           0        7.072580    0.182011   -5.971242
    117          1           0        7.620143   -1.490911   -5.471160
    118          1           0        9.198759    1.527769   -4.457654
    119          1           0        9.871712    0.099938   -3.653295
    120          1           0        8.015717    1.796777   -1.960510
    121          1           0        9.214783    2.763172   -2.728886
    122          1           0       10.942055    2.292367   -1.452011
    123          1           0       10.667811    0.551882   -1.554437
    124          1           0        8.800917    1.929717    0.300652
    125          1           0       10.471568   -0.176550    1.498383
    126          1           0        9.700624   -0.753443    0.069843
    127          1           0        8.792474   -0.045961    1.393833
    128          1           0       11.412177    3.007456    0.696247
    129          1           0       11.523323    1.613778    1.461930
    130          1           0        8.879563    2.748453    2.249052
    131          1           0       10.021137    4.079428    2.219728
    132          1           0       10.489897    3.514746    4.356124
    133          1           0       11.458557    2.338681    3.569278
    134          1           0        8.954884    1.146694    3.985179
    135          1           0        7.610533    2.658953    4.777493
    136          1           0        8.731188    3.681821    5.571759
    137          1           0        8.170580    2.201493    6.376433
    138          1           0       11.345164    1.268395    5.612585
    139          1           0       10.238868   -0.123247    5.213849
    140          1           0        9.875201    0.969435    6.603848
 ---------------------------------------------------------------------

 SCF Done:  E(RB-LYP) =  -3007.34506985     A.U. after   21 cycles

 Excitation energies and oscillator strengths:

 Excited State   1:      Singlet-A      1.7553 eV  706.36 nm  f=0.2860  <S**2>=0.000
     245 -> 248       -0.15064
     246 -> 247        0.69176
     246 <- 247       -0.15908
 This state for optimization and/or second-order correction.
 Total Energy, E(TD-HF/TD-DFT) =  -3007.28056498
 Copying the excited state density for this state as the 1-particle RhoCI density.

 Excited State   2:      Singlet-A      1.8144 eV  683.33 nm  f=0.0071  <S**2>=0.000
     244 -> 247        0.70005

 Excited State   3:      Singlet-A      2.0217 eV  613.26 nm  f=0.0334  <S**2>=0.000
     243 -> 247        0.56474
     245 -> 247       -0.39290
     246 -> 248       -0.13035

 Excited State   4:      Singlet-A      2.0656 eV  600.24 nm  f=0.0584  <S**2>=0.000
     243 -> 247        0.42399
     245 -> 247        0.50701
     246 -> 248        0.20534

 Excited State   5:      Singlet-A      2.3623 eV  524.85 nm  f=0.0123  <S**2>=0.000
     242 -> 247        0.68821

 The electronic state is 1-A.
 Alpha  occ. eigenvalues --  -46.27679 -18.82457 -18.82150 -18.77021 -18.76444
 Alpha  occ. eigenvalues --  -18.75902 -18.75145 -14.03274 -14.03106 -14.01364
 Alpha  occ. eigenvalues --  -14.00208 -10.04415 -10.03454 -10.00679  -9.99683
 Alpha  occ. eigenvalues --   -9.99052  -9.97296  -9.96486  -9.96448  -9.96317
 Alpha  occ. eigenvalues --   -9.96298  -9.96071  -9.95862  -9.94827  -9.94803
 Alpha  occ. eigenvalues --   -9.94608  -9.94537  -9.94207  -9.94002  -9.93832
 Alpha  occ. eigenvalues --   -9.93739  -9.93694  -9.93601  -9.93517  -9.93514
 Alpha  occ. eigenvalues --   -9.93343  -9.93342  -9.93049  -9.92890  -9.92878
 Alpha  occ. eigenvalues --   -9.92671  -9.92572  -9.92515  -9.92513  -9.92441
 Alpha  occ. eigenvalues --   -9.92390  -9.92345  -9.92239  -9.91999  -9.91990
 Alpha  occ. eigenvalues --   -9.91923  -9.91862  -9.91859  -9.91814  -9.91737
 Alpha  occ. eigenvalues --   -9.91602  -9.91416  -9.91340  -9.91313  -9.91280
 Alpha  occ. eigenvalues --   -9.91135  -9.91016  -9.91012  -9.90990  -9.90884
 Alpha  occ. eigenvalues --   -9.90697  -2.92224  -1.72642  -1.72118  -1.71928
 Alpha  occ. eigenvalues --   -0.98173  -0.96384  -0.92246  -0.90567  -0.89778
 Alpha  occ. eigenvalues --   -0.89010  -0.86520  -0.85863  -0.85405  -0.84273
 Alpha  occ. eigenvalues --   -0.74733  -0.74617  -0.73329  -0.72981  -0.72610
 Alpha  occ. eigenvalues --   -0.72296  -0.71465  -0.71192  -0.70457  -0.70206
 Alpha  occ. eigenvalues --   -0.69906  -0.69634  -0.68712  -0.67256  -0.66964
 Alpha  occ. eigenvalues --   -0.66689  -0.65825  -0.65304  -0.64996  -0.64553
 Alpha  occ. eigenvalues --   -0.64282  -0.62808  -0.62336  -0.61770  -0.61129
 Alpha  occ. eigenvalues --   -0.60561  -0.60465  -0.59847  -0.59737  -0.59334
 Alpha  occ. eigenvalues --   -0.58542  -0.57875  -0.56397  -0.55869  -0.54442
 Alpha  occ. eigenvalues --   -0.54257  -0.53246  -0.52711  -0.52560  -0.51800
 Alpha  occ. eigenvalues --   -0.51330  -0.51095  -0.50771  -0.50364  -0.50183
 Alpha  occ. eigenvalues --   -0.49659  -0.49420  -0.48816  -0.48202  -0.47210
 Alpha  occ. eigenvalues --   -0.46699  -0.46088  -0.45853  -0.44991  -0.44262
 Alpha  occ. eigenvalues --   -0.44144  -0.43674  -0.43197  -0.43054  -0.42668
 Alpha  occ. eigenvalues --   -0.42412  -0.41920  -0.41336  -0.41164  -0.41020
 Alpha  occ. eigenvalues --   -0.40938  -0.40719  -0.40552  -0.40359  -0.40127
 Alpha  occ. eigenvalues --   -0.39921  -0.39643  -0.39597  -0.39302  -0.39208
 Alpha  occ. eigenvalues --   -0.39053  -0.38932  -0.38701  -0.38581  -0.38363
 Alpha  occ. eigenvalues --   -0.38294  -0.37923  -0.37593  -0.37543  -0.37331
 Alpha  occ. eigenvalues --   -0.37282  -0.37094  -0.36841  -0.36700  -0.36563
 Alpha  occ. eigenvalues --   -0.36454  -0.36267  -0.35936  -0.35830  -0.35670
 Alpha  occ. eigenvalues --   -0.35634  -0.35414  -0.35223  -0.35213  -0.35172
 Alpha  occ. eigenvalues --   -0.34815  -0.34653  -0.34420  -0.34261  -0.34240
 Alpha  occ. eigenvalues --   -0.34031  -0.33707  -0.33535  -0.33395  -0.33202
 Alpha  occ. eigenvalues --   -0.32953  -0.32818  -0.32616  -0.32403  -0.32314
 Alpha  occ. eigenvalues --   -0.32161  -0.31977  -0.31841  -0.31479  -0.31426
 Alpha  occ. eigenvalues --   -0.31179  -0.30962  -0.30921  -0.30809  -0.30456
 Alpha  occ. eigenvalues --   -0.30385  -0.30304  -0.30179  -0.30114  -0.29920
 Alpha  occ. eigenvalues --   -0.29691  -0.29666  -0.29535  -0.29413  -0.29298
 Alpha  occ. eigenvalues --   -0.28949  -0.28653  -0.28586  -0.27920  -0.27765
 Alpha  occ. eigenvalues --   -0.27414  -0.27352  -0.27101  -0.26712  -0.26554
 Alpha  occ. eigenvalues --   -0.26237  -0.25785  -0.25783  -0.25438  -0.25262
 Alpha  occ. eigenvalues --   -0.25224  -0.25061  -0.24733  -0.23937  -0.23708
 Alpha  occ. eigenvalues --   -0.23063  -0.22444  -0.21849  -0.21600  -0.21061
 Alpha  occ. eigenvalues --   -0.20455  -0.19691  -0.18950  -0.18110  -0.17460
 Alpha  occ. eigenvalues --   -0.15589
 Alpha virt. eigenvalues --   -0.11550  -0.06721  -0.05783  -0.04559  -0.04475
 Alpha virt. eigenvalues --   -0.03080  -0.02675  -0.01675  -0.01300   0.00211
 Alpha virt. eigenvalues --    0.00952   0.01650   0.01726   0.01860   0.02465

 Mulliken charges:
               1
     1  Mg   0.685704
     2  C    0.047661
     3  C   -0.046899
     4  C   -0.039680
     5  C   -0.099125
     6  N   -0.186909
     7  C   -0.056900
     8  C   -0.008296
     9  C   -0.029507
    10  C    0.002409
    11  C    0.140964
    12  C    0.124787
    13  C    0.183501
    14  C    0.082210
    15  O   -0.208289
    16  O   -0.315779
    17  N   -0.243720
    18  C    0.114010
    19  C   -0.155334
    20  C    0.025523
    21  C    0.104925
    22  C    0.180191
    23  C   -0.059417
    24  O   -0.157215
    25  C    0.102421
    26  N   -0.259239
    27  C    0.053454
    28  C   -0.021360
    29  C    0.021221
    30  C    0.072704
    31  C    0.093069
    32  C    0.096074
    33  C    0.070561
    34  N   -0.274326
    35  C    0.106178
    36  C   -0.157430
    37  C    0.082944
    38  C    0.032369
    39  C    0.170367
    40  C   -0.031361
    41  O   -0.153619
    42  C    0.084218
    43  C    0.090716
    44  O   -0.156860
    45  O   -0.261565
    46  C    0.198617
    47  C    0.345091
    48  C   -0.118766
    49  C   -0.197732
    50  C    0.135321
    51  C    0.200887
    52  C    0.104751
    53  C    0.058386
    54  C   -0.109965
    55  C    0.123166
    56  C    0.104627
    57  C    0.082380
    58  C    0.112835
    59  C   -0.078667
    60  C    0.082645
    61  C    0.107769
    62  C    0.091379
    63  C    0.065927
    64  C   -0.095766
    65  C    0.082436
    66  C    0.151686
    67  H   -0.078630
    68  H   -0.045923
    69  H   -0.075195
    70  H   -0.025669
    71  H   -0.030309
    72  H   -0.005310
    73  H    0.006360
    74  H   -0.003123
    75  H   -0.022489
    76  H   -0.020956
    77  H   -0.008383
    78  H    0.002374
    79  H   -0.011325
    80  H    0.031083
    81  H    0.004420
    82  H   -0.015441
    83  H    0.003123
    84  H    0.013553
    85  H   -0.000477
    86  H   -0.022139
    87  H   -0.002103
    88  H    0.000816
    89  H    0.008762
    90  H   -0.003905
    91  H   -0.025419
    92  H   -0.007288
    93  H   -0.010615
    94  H   -0.019265
    95  H    0.010470
    96  H   -0.021733
    97  H    0.002906
    98  H   -0.007487
    99  H    0.005101
   100  H    0.021778
   101  H    0.018918
   102  H    0.022602
   103  H    0.003305
   104  H   -0.029462
   105  H    0.002596
   106  H   -0.017264
   107  H   -0.000889
   108  H   -0.024468
   109  H   -0.051671
   110  H   -0.025513
   111  H   -0.036253
   112  H   -0.032042
   113  H   -0.033200
   114  H   -0.041891
   115  H   -0.022879
   116  H   -0.010369
   117  H   -0.015029
   118  H   -0.046590
   119  H   -0.028127
   120  H   -0.024080
   121  H   -0.034416
   122  H   -0.035867
   123  H   -0.029804
   124  H   -0.027842
   125  H   -0.024530
   126  H   -0.012646
   127  H   -0.018129
   128  H   -0.047448
   129  H   -0.036961
   130  H   -0.030146
   131  H   -0.028578
   132  H   -0.047455
   133  H   -0.036588
   134  H   -0.039628
   135  H   -0.023365
   136  H   -0.012597
   137  H   -0.013880
   138  H   -0.013527
   139  H   -0.010168
   140  H   -0.024041
 Sum of Mulliken charges =  -0.00000

 Dipole moment (field-independent basis, Debye):
    X=              5.2284    Y=              3.1719    Z=             -1.2214  Tot=              6.2361
 Quadrupole moment (field-independent basis, Debye-Ang):
   XX=           -381.1868   YY=           -435.4522   ZZ=           -416.8022
   XY=            -29.0008   XZ=             15.9169   YZ=             -9.2567

 Normal termination of Gaussian 16 at Sat Apr 30 04:08:59 2022.
