 Gaussian 16, Revision A.03,
 Gaussian 16:  ES64L-G16RevA.03 25-Dec-2016

 -----------------------------------
 #p cam-b3lyp/Def2SVP td=(nstates=5)
 -----------------------------------

 -------------------------------------------------------
 step_551_chromophore_27 TDDFT with cam-b3lyp functional
 -------------------------------------------------------
 Symbolic Z-matrix:
 Charge =  0 Multiplicity = 1

                         Standard orientation:
 ---------------------------------------------------------------------
 Center     Atomic      Atomic             Coordinates (Angstroms)
 Number     Number       Type             X           Y           Z
 ---------------------------------------------------------------------
      1         12           0       -4.352110    0.970985   -0.304205
      2          6           0       -4.049164   -2.373994    0.514030
      3          6           0       -0.852151    1.185057   -0.135261
      4          6           0       -4.543886    4.274160   -0.339033
      5          6           0       -7.866847    0.777529    0.168163
      6          7           0       -2.634823   -0.425467    0.172455
      7          6           0       -2.810210   -1.809663    0.348517
      8          6           0       -1.462448   -2.527335    0.266874
      9          6           0       -0.474715   -1.298816    0.457872
     10          6           0       -1.364442   -0.110498    0.051755
     11          6           0        0.120461   -1.129161    1.895461
     12          6           0       -1.246922   -3.349109   -1.068260
     13          6           0       -0.681966   -4.713462   -0.959211
     14          6           0        0.562970   -4.954647   -1.750023
     15          8           0        0.602796   -5.777370   -2.696176
     16          8           0        1.633082   -4.470798   -1.012330
     17          7           0       -2.849565    2.536281   -0.352387
     18          6           0       -1.480600    2.422769   -0.342675
     19          6           0       -0.877177    3.787452   -0.302573
     20          6           0       -1.977698    4.671850   -0.456467
     21          6           0       -3.208139    3.817999   -0.451685
     22          6           0        0.582470    3.958010   -0.077607
     23          6           0       -1.907683    6.201619   -0.356741
     24          8           0       -2.927442    6.861722   -0.399190
     25          6           0       -0.567778    7.016509   -0.216603
     26          7           0       -5.901994    2.259840   -0.212203
     27          6           0       -5.740388    3.608558   -0.366996
     28          6           0       -7.066844    4.326350   -0.850139
     29          6           0       -8.142566    3.143941   -0.514472
     30          6           0       -7.234560    1.976894   -0.126994
     31          6           0       -7.457446    5.810197   -0.271067
     32          6           0       -9.149884    2.762446   -1.648915
     33          6           0      -10.617963    2.662271   -1.280660
     34          7           0       -5.813828   -0.506808    0.208517
     35          6           0       -7.225175   -0.443811    0.410234
     36          6           0       -7.697355   -1.744195    0.794229
     37          6           0       -6.514583   -2.546404    0.826322
     38          6           0       -5.377343   -1.716949    0.541879
     39          6           0       -9.088708   -2.056498    1.161748
     40          6           0       -5.900195   -3.905060    1.071364
     41          8           0       -6.441771   -4.940889    1.482661
     42          6           0       -4.339640   -3.823665    0.829452
     43          6           0       -3.734994   -4.372112    2.074982
     44          8           0       -3.684769   -3.773486    3.114343
     45          8           0       -3.248480   -5.621810    1.823816
     46          6           0       -2.512277   -6.195420    2.962769
     47          6           0        3.060467   -4.765364   -1.302708
     48          6           0        3.760589   -3.448220   -1.443764
     49          6           0        5.098898   -3.186131   -1.436247
     50          6           0        6.097250   -4.276768   -1.168101
     51          6           0        5.598484   -1.730343   -1.505116
     52          6           0        5.990487   -1.302227   -2.854712
     53          6           0        7.497659   -0.969800   -3.021837
     54          6           0        7.779634    0.186660   -4.024657
     55          6           0        7.818082   -0.418941   -5.451136
     56          6           0        9.070546    0.839249   -3.623069
     57          6           0        9.026682    1.752909   -2.364638
     58          6           0       10.199974    1.506557   -1.312987
     59          6           0        9.807459    1.519047    0.223788
     60          6           0        9.686912    0.070566    0.783189
     61          6           0       10.729584    2.302552    1.171793
     62          6           0        9.940424    2.994756    2.302480
     63          6           0       10.418806    2.609635    3.751998
     64          6           0        9.543079    1.746533    4.678245
     65          6           0        8.487264    2.629918    5.425455
     66          6           0       10.323214    0.888119    5.613372
     67          1           0        0.238528    1.231523   -0.114279
     68          1           0       -4.722809    5.349677   -0.401326
     69          1           0       -8.955342    0.732534    0.236198
     70          1           0       -1.274977   -3.190876    1.111694
     71          1           0        0.361024   -1.445271   -0.225895
     72          1           0       -0.174772   -1.965699    2.528987
     73          1           0       -0.219782   -0.227877    2.404073
     74          1           0        1.195407   -1.191120    1.726040
     75          1           0       -0.683817   -2.664357   -1.703084
     76          1           0       -2.199234   -3.399939   -1.597083
     77          1           0       -1.416021   -5.392797   -1.393043
     78          1           0       -0.579382   -5.060879    0.068972
     79          1           0        1.196426    3.082706   -0.291520
     80          1           0        0.727896    4.289199    0.950031
     81          1           0        0.858250    4.651244   -0.872560
     82          1           0        0.265758    6.585804    0.338029
     83          1           0       -0.676024    8.005090    0.229540
     84          1           0       -0.236945    7.061635   -1.254420
     85          1           0       -7.047519    4.533166   -1.920508
     86          1           0       -8.668311    3.385295    0.409975
     87          1           0       -8.496715    5.908823    0.044182
     88          1           0       -7.261932    6.505714   -1.087141
     89          1           0       -6.829928    6.063183    0.583319
     90          1           0       -8.976453    1.806146   -2.142047
     91          1           0       -8.945568    3.603306   -2.310446
     92          1           0      -11.270608    2.873611   -2.126329
     93          1           0      -10.867415    3.114835   -0.320476
     94          1           0      -10.841533    1.614913   -1.080122
     95          1           0       -9.296495   -3.126280    1.110689
     96          1           0       -9.743575   -1.538912    0.461719
     97          1           0       -9.426558   -1.628240    2.104932
     98          1           0       -3.978853   -4.396459   -0.025002
     99          1           0       -1.551206   -6.639067    2.701848
    100          1           0       -3.083649   -6.999723    3.426333
    101          1           0       -2.255815   -5.456369    3.722007
    102          1           0        3.083654   -5.482733   -2.122736
    103          1           0        3.362447   -5.187792   -0.345118
    104          1           0        3.144260   -2.553927   -1.357834
    105          1           0        6.408594   -4.574528   -2.169747
    106          1           0        5.736197   -5.196489   -0.708272
    107          1           0        6.940364   -3.994961   -0.537818
    108          1           0        6.431316   -1.566981   -0.820668
    109          1           0        4.663527   -1.200418   -1.324695
    110          1           0        5.305277   -0.592839   -3.319897
    111          1           0        5.862312   -2.247739   -3.382483
    112          1           0        8.069301   -1.864249   -3.270232
    113          1           0        7.949845   -0.591478   -2.104941
    114          1           0        6.989094    0.936174   -3.980683
    115          1           0        8.793124   -0.346238   -5.934081
    116          1           0        7.072580    0.182011   -5.971242
    117          1           0        7.620143   -1.490911   -5.471160
    118          1           0        9.198759    1.527769   -4.457654
    119          1           0        9.871712    0.099938   -3.653295
    120          1           0        8.015717    1.796777   -1.960510
    121          1           0        9.214783    2.763172   -2.728886
    122          1           0       10.942055    2.292367   -1.452011
    123          1           0       10.667811    0.551882   -1.554437
    124          1           0        8.800917    1.929717    0.300652
    125          1           0       10.471568   -0.176550    1.498383
    126          1           0        9.700624   -0.753443    0.069843
    127          1           0        8.792474   -0.045961    1.393833
    128          1           0       11.412177    3.007456    0.696247
    129          1           0       11.523323    1.613778    1.461930
    130          1           0        8.879563    2.748453    2.249052
    131          1           0       10.021137    4.079428    2.219728
    132          1           0       10.489897    3.514746    4.356124
    133          1           0       11.458557    2.338681    3.569278
    134          1           0        8.954884    1.146694    3.985179
    135          1           0        7.610533    2.658953    4.777493
    136          1           0        8.731188    3.681821    5.571759
    137          1           0        8.170580    2.201493    6.376433
    138          1           0       11.345164    1.268395    5.612585
    139          1           0       10.238868   -0.123247    5.213849
    140          1           0        9.875201    0.969435    6.603848
 ---------------------------------------------------------------------

 SCF Done:  E(RCAM-B3LYP) =  -3007.13227883     A.U. after   18 cycles

 Excitation energies and oscillator strengths:

 Excited State   1:      Singlet-A      1.6869 eV  734.96 nm  f=0.3824  <S**2>=0.000
     245 -> 248        0.14982
     246 -> 247        0.69212
 This state for optimization and/or second-order correction.
 Total Energy, E(TD-HF/TD-DFT) =  -3007.07028457
 Copying the excited state density for this state as the 1-particle RhoCI density.

 Excited State   2:      Singlet-A      2.2758 eV  544.80 nm  f=0.1114  <S**2>=0.000
     245 -> 247        0.63353
     246 -> 248       -0.29435

 Excited State   3:      Singlet-A      3.2398 eV  382.69 nm  f=0.0090  <S**2>=0.000
     241 -> 247       -0.12086
     244 -> 247        0.67975

 Excited State   4:      Singlet-A      3.4967 eV  354.58 nm  f=0.3502  <S**2>=0.000
     239 -> 247        0.12953
     241 -> 247        0.29598
     243 -> 247        0.24712
     245 -> 247        0.20961
     246 -> 248        0.50901

 Excited State   5:      Singlet-A      3.5371 eV  350.53 nm  f=0.0983  <S**2>=0.000
     243 -> 247        0.53377
     243 -> 249        0.21998
     243 -> 251       -0.23071
     245 -> 247       -0.11507
     246 -> 248       -0.25584

 The electronic state is 1-A.
 Alpha  occ. eigenvalues --  -46.89254 -19.25300 -19.25022 -19.20006 -19.19557
 Alpha  occ. eigenvalues --  -19.19406 -19.17958 -14.42345 -14.41771 -14.40101
 Alpha  occ. eigenvalues --  -14.38284 -10.39806 -10.38705 -10.36347 -10.34736
 Alpha  occ. eigenvalues --  -10.33182 -10.31330 -10.31315 -10.31274 -10.31246
 Alpha  occ. eigenvalues --  -10.30878 -10.30557 -10.29976 -10.29961 -10.28903
 Alpha  occ. eigenvalues --  -10.28546 -10.28367 -10.28341 -10.28312 -10.28198
 Alpha  occ. eigenvalues --  -10.28110 -10.28106 -10.27846 -10.27685 -10.27444
 Alpha  occ. eigenvalues --  -10.27349 -10.27228 -10.27037 -10.27033 -10.26925
 Alpha  occ. eigenvalues --  -10.26600 -10.26440 -10.26355 -10.26347 -10.26277
 Alpha  occ. eigenvalues --  -10.26141 -10.26031 -10.25966 -10.25777 -10.25665
 Alpha  occ. eigenvalues --  -10.25644 -10.25637 -10.25635 -10.25501 -10.25285
 Alpha  occ. eigenvalues --  -10.25211 -10.25105 -10.25080 -10.25021 -10.24957
 Alpha  occ. eigenvalues --  -10.24849 -10.24716 -10.24681 -10.24670 -10.24638
 Alpha  occ. eigenvalues --  -10.24295  -3.17698  -1.92594  -1.92170  -1.91981
 Alpha  occ. eigenvalues --   -1.16646  -1.14765  -1.11100  -1.08432  -1.07775
 Alpha  occ. eigenvalues --   -1.06866  -1.04498  -1.03673  -1.02995  -1.01349
 Alpha  occ. eigenvalues --   -0.91721  -0.91563  -0.90169  -0.89807  -0.89415
 Alpha  occ. eigenvalues --   -0.89161  -0.88218  -0.87851  -0.87327  -0.86726
 Alpha  occ. eigenvalues --   -0.86315  -0.85696  -0.85070  -0.83330  -0.83046
 Alpha  occ. eigenvalues --   -0.82818  -0.81808  -0.81384  -0.80692  -0.80547
 Alpha  occ. eigenvalues --   -0.80401  -0.78987  -0.77891  -0.77116  -0.76576
 Alpha  occ. eigenvalues --   -0.75906  -0.75871  -0.75225  -0.74996  -0.74666
 Alpha  occ. eigenvalues --   -0.73630  -0.72757  -0.71319  -0.70724  -0.68935
 Alpha  occ. eigenvalues --   -0.68858  -0.67999  -0.67152  -0.67081  -0.66111
 Alpha  occ. eigenvalues --   -0.65566  -0.64959  -0.64763  -0.64484  -0.64144
 Alpha  occ. eigenvalues --   -0.63487  -0.63342  -0.62790  -0.61765  -0.60800
 Alpha  occ. eigenvalues --   -0.60625  -0.59758  -0.59230  -0.58387  -0.57640
 Alpha  occ. eigenvalues --   -0.57574  -0.56972  -0.56453  -0.56138  -0.55762
 Alpha  occ. eigenvalues --   -0.55464  -0.55213  -0.54199  -0.54149  -0.53888
 Alpha  occ. eigenvalues --   -0.53709  -0.53657  -0.53496  -0.53246  -0.53112
 Alpha  occ. eigenvalues --   -0.52512  -0.52339  -0.52135  -0.51982  -0.51679
 Alpha  occ. eigenvalues --   -0.51495  -0.51463  -0.51276  -0.51079  -0.50941
 Alpha  occ. eigenvalues --   -0.50662  -0.50547  -0.50095  -0.49896  -0.49878
 Alpha  occ. eigenvalues --   -0.49699  -0.49361  -0.49265  -0.48879  -0.48731
 Alpha  occ. eigenvalues --   -0.48650  -0.48531  -0.48197  -0.48016  -0.47973
 Alpha  occ. eigenvalues --   -0.47865  -0.47783  -0.47571  -0.47175  -0.47096
 Alpha  occ. eigenvalues --   -0.46807  -0.46596  -0.46468  -0.46164  -0.46029
 Alpha  occ. eigenvalues --   -0.45829  -0.45480  -0.45197  -0.45054  -0.44973
 Alpha  occ. eigenvalues --   -0.44700  -0.44482  -0.44272  -0.44159  -0.43934
 Alpha  occ. eigenvalues --   -0.43914  -0.43674  -0.43597  -0.43007  -0.42920
 Alpha  occ. eigenvalues --   -0.42799  -0.42728  -0.42359  -0.42280  -0.42034
 Alpha  occ. eigenvalues --   -0.41686  -0.41613  -0.41567  -0.41433  -0.41391
 Alpha  occ. eigenvalues --   -0.41043  -0.40941  -0.40883  -0.40585  -0.40523
 Alpha  occ. eigenvalues --   -0.40389  -0.39512  -0.39452  -0.38973  -0.38875
 Alpha  occ. eigenvalues --   -0.38309  -0.38282  -0.37967  -0.37555  -0.37387
 Alpha  occ. eigenvalues --   -0.36933  -0.36861  -0.36666  -0.36574  -0.36546
 Alpha  occ. eigenvalues --   -0.36254  -0.35890  -0.35404  -0.34429  -0.34318
 Alpha  occ. eigenvalues --   -0.34090  -0.33757  -0.32755  -0.31791  -0.31413
 Alpha  occ. eigenvalues --   -0.30676  -0.30129  -0.29873  -0.28337  -0.24413
 Alpha  occ. eigenvalues --   -0.20814
 Alpha virt. eigenvalues --   -0.08654  -0.01319   0.00592   0.01898   0.02601
 Alpha virt. eigenvalues --    0.03181   0.04637   0.05661   0.06361   0.06869
 Alpha virt. eigenvalues --    0.07632   0.07711   0.08118   0.08587   0.08836

 Mulliken charges:
               1
     1  Mg   0.816600
     2  C    0.024690
     3  C   -0.066560
     4  C   -0.068019
     5  C   -0.102463
     6  N   -0.252796
     7  C   -0.025426
     8  C   -0.053367
     9  C   -0.076659
    10  C    0.023999
    11  C    0.083536
    12  C    0.071313
    13  C    0.105161
    14  C    0.169204
    15  O   -0.250756
    16  O   -0.382289
    17  N   -0.330085
    18  C    0.129671
    19  C   -0.154857
    20  C   -0.035014
    21  C    0.137567
    22  C    0.116753
    23  C    0.010504
    24  O   -0.195046
    25  C    0.031671
    26  N   -0.339235
    27  C    0.079842
    28  C   -0.068415
    29  C   -0.036600
    30  C    0.092421
    31  C    0.037412
    32  C    0.038337
    33  C    0.007983
    34  N   -0.359319
    35  C    0.103225
    36  C   -0.159424
    37  C    0.005356
    38  C    0.070391
    39  C    0.119151
    40  C    0.065696
    41  O   -0.194962
    42  C    0.010286
    43  C    0.173358
    44  O   -0.194647
    45  O   -0.324696
    46  C    0.161007
    47  C    0.311636
    48  C   -0.136939
    49  C   -0.217610
    50  C    0.072399
    51  C    0.137103
    52  C    0.049400
    53  C    0.013488
    54  C   -0.162558
    55  C    0.062287
    56  C    0.047631
    57  C    0.022398
    58  C    0.065683
    59  C   -0.134067
    60  C    0.027129
    61  C    0.050166
    62  C    0.036799
    63  C    0.012238
    64  C   -0.152540
    65  C    0.025364
    66  C    0.088519
    67  H   -0.042505
    68  H   -0.007082
    69  H   -0.041166
    70  H    0.006290
    71  H    0.003132
    72  H    0.020759
    73  H    0.032181
    74  H    0.020165
    75  H    0.006800
    76  H    0.012267
    77  H    0.027230
    78  H    0.034277
    79  H    0.019932
    80  H    0.058869
    81  H    0.031375
    82  H    0.014574
    83  H    0.037690
    84  H    0.040058
    85  H    0.031826
    86  H    0.011609
    87  H    0.022936
    88  H    0.023878
    89  H    0.031762
    90  H    0.025632
    91  H    0.000310
    92  H    0.018296
    93  H    0.012228
    94  H    0.002366
    95  H    0.035455
    96  H   -0.000452
    97  H    0.027451
    98  H    0.033874
    99  H    0.024969
   100  H    0.044168
   101  H    0.045236
   102  H    0.054629
   103  H    0.031643
   104  H   -0.000329
   105  H    0.025973
   106  H    0.008508
   107  H    0.023723
   108  H    0.004847
   109  H   -0.018551
   110  H    0.003332
   111  H   -0.005966
   112  H   -0.004468
   113  H   -0.011454
   114  H   -0.010540
   115  H    0.003225
   116  H    0.013146
   117  H    0.009357
   118  H   -0.014637
   119  H   -0.000458
   120  H    0.002223
   121  H   -0.003429
   122  H   -0.006514
   123  H   -0.003130
   124  H    0.002415
   125  H   -0.000572
   126  H    0.009968
   127  H    0.004066
   128  H   -0.015844
   129  H   -0.008012
   130  H   -0.005032
   131  H    0.002325
   132  H   -0.018148
   133  H   -0.007579
   134  H   -0.010071
   135  H   -0.000181
   136  H    0.010746
   137  H    0.010381
   138  H    0.010759
   139  H    0.013469
   140  H    0.000762
 Sum of Mulliken charges =  -0.00000

 Dipole moment (field-independent basis, Debye):
    X=              6.6931    Y=              4.3405    Z=             -1.3553  Tot=              8.0916
 Quadrupole moment (field-independent basis, Debye-Ang):
   XX=           -388.4226   YY=           -430.6799   ZZ=           -417.5197
   XY=            -31.4555   XZ=             17.4488   YZ=             -9.9148

 Normal termination of Gaussian 16 at Sat Apr 30 03:17:10 2022.
