 Gaussian 16, Revision A.03,
 Gaussian 16:  ES64L-G16RevA.03 25-Dec-2016

 ---------------------------------
 #p PBE1PBE/Def2SVP td=(nstates=5)
 ---------------------------------

 -----------------------------------------------------
 step_551_chromophore_27 TDDFT with PBE1PBE functional
 -----------------------------------------------------
 Symbolic Z-matrix:
 Charge =  0 Multiplicity = 1

                         Standard orientation:
 ---------------------------------------------------------------------
 Center     Atomic      Atomic             Coordinates (Angstroms)
 Number     Number       Type             X           Y           Z
 ---------------------------------------------------------------------
      1         12           0       -4.352110    0.970985   -0.304205
      2          6           0       -4.049164   -2.373994    0.514030
      3          6           0       -0.852151    1.185057   -0.135261
      4          6           0       -4.543886    4.274160   -0.339033
      5          6           0       -7.866847    0.777529    0.168163
      6          7           0       -2.634823   -0.425467    0.172455
      7          6           0       -2.810210   -1.809663    0.348517
      8          6           0       -1.462448   -2.527335    0.266874
      9          6           0       -0.474715   -1.298816    0.457872
     10          6           0       -1.364442   -0.110498    0.051755
     11          6           0        0.120461   -1.129161    1.895461
     12          6           0       -1.246922   -3.349109   -1.068260
     13          6           0       -0.681966   -4.713462   -0.959211
     14          6           0        0.562970   -4.954647   -1.750023
     15          8           0        0.602796   -5.777370   -2.696176
     16          8           0        1.633082   -4.470798   -1.012330
     17          7           0       -2.849565    2.536281   -0.352387
     18          6           0       -1.480600    2.422769   -0.342675
     19          6           0       -0.877177    3.787452   -0.302573
     20          6           0       -1.977698    4.671850   -0.456467
     21          6           0       -3.208139    3.817999   -0.451685
     22          6           0        0.582470    3.958010   -0.077607
     23          6           0       -1.907683    6.201619   -0.356741
     24          8           0       -2.927442    6.861722   -0.399190
     25          6           0       -0.567778    7.016509   -0.216603
     26          7           0       -5.901994    2.259840   -0.212203
     27          6           0       -5.740388    3.608558   -0.366996
     28          6           0       -7.066844    4.326350   -0.850139
     29          6           0       -8.142566    3.143941   -0.514472
     30          6           0       -7.234560    1.976894   -0.126994
     31          6           0       -7.457446    5.810197   -0.271067
     32          6           0       -9.149884    2.762446   -1.648915
     33          6           0      -10.617963    2.662271   -1.280660
     34          7           0       -5.813828   -0.506808    0.208517
     35          6           0       -7.225175   -0.443811    0.410234
     36          6           0       -7.697355   -1.744195    0.794229
     37          6           0       -6.514583   -2.546404    0.826322
     38          6           0       -5.377343   -1.716949    0.541879
     39          6           0       -9.088708   -2.056498    1.161748
     40          6           0       -5.900195   -3.905060    1.071364
     41          8           0       -6.441771   -4.940889    1.482661
     42          6           0       -4.339640   -3.823665    0.829452
     43          6           0       -3.734994   -4.372112    2.074982
     44          8           0       -3.684769   -3.773486    3.114343
     45          8           0       -3.248480   -5.621810    1.823816
     46          6           0       -2.512277   -6.195420    2.962769
     47          6           0        3.060467   -4.765364   -1.302708
     48          6           0        3.760589   -3.448220   -1.443764
     49          6           0        5.098898   -3.186131   -1.436247
     50          6           0        6.097250   -4.276768   -1.168101
     51          6           0        5.598484   -1.730343   -1.505116
     52          6           0        5.990487   -1.302227   -2.854712
     53          6           0        7.497659   -0.969800   -3.021837
     54          6           0        7.779634    0.186660   -4.024657
     55          6           0        7.818082   -0.418941   -5.451136
     56          6           0        9.070546    0.839249   -3.623069
     57          6           0        9.026682    1.752909   -2.364638
     58          6           0       10.199974    1.506557   -1.312987
     59          6           0        9.807459    1.519047    0.223788
     60          6           0        9.686912    0.070566    0.783189
     61          6           0       10.729584    2.302552    1.171793
     62          6           0        9.940424    2.994756    2.302480
     63          6           0       10.418806    2.609635    3.751998
     64          6           0        9.543079    1.746533    4.678245
     65          6           0        8.487264    2.629918    5.425455
     66          6           0       10.323214    0.888119    5.613372
     67          1           0        0.238528    1.231523   -0.114279
     68          1           0       -4.722809    5.349677   -0.401326
     69          1           0       -8.955342    0.732534    0.236198
     70          1           0       -1.274977   -3.190876    1.111694
     71          1           0        0.361024   -1.445271   -0.225895
     72          1           0       -0.174772   -1.965699    2.528987
     73          1           0       -0.219782   -0.227877    2.404073
     74          1           0        1.195407   -1.191120    1.726040
     75          1           0       -0.683817   -2.664357   -1.703084
     76          1           0       -2.199234   -3.399939   -1.597083
     77          1           0       -1.416021   -5.392797   -1.393043
     78          1           0       -0.579382   -5.060879    0.068972
     79          1           0        1.196426    3.082706   -0.291520
     80          1           0        0.727896    4.289199    0.950031
     81          1           0        0.858250    4.651244   -0.872560
     82          1           0        0.265758    6.585804    0.338029
     83          1           0       -0.676024    8.005090    0.229540
     84          1           0       -0.236945    7.061635   -1.254420
     85          1           0       -7.047519    4.533166   -1.920508
     86          1           0       -8.668311    3.385295    0.409975
     87          1           0       -8.496715    5.908823    0.044182
     88          1           0       -7.261932    6.505714   -1.087141
     89          1           0       -6.829928    6.063183    0.583319
     90          1           0       -8.976453    1.806146   -2.142047
     91          1           0       -8.945568    3.603306   -2.310446
     92          1           0      -11.270608    2.873611   -2.126329
     93          1           0      -10.867415    3.114835   -0.320476
     94          1           0      -10.841533    1.614913   -1.080122
     95          1           0       -9.296495   -3.126280    1.110689
     96          1           0       -9.743575   -1.538912    0.461719
     97          1           0       -9.426558   -1.628240    2.104932
     98          1           0       -3.978853   -4.396459   -0.025002
     99          1           0       -1.551206   -6.639067    2.701848
    100          1           0       -3.083649   -6.999723    3.426333
    101          1           0       -2.255815   -5.456369    3.722007
    102          1           0        3.083654   -5.482733   -2.122736
    103          1           0        3.362447   -5.187792   -0.345118
    104          1           0        3.144260   -2.553927   -1.357834
    105          1           0        6.408594   -4.574528   -2.169747
    106          1           0        5.736197   -5.196489   -0.708272
    107          1           0        6.940364   -3.994961   -0.537818
    108          1           0        6.431316   -1.566981   -0.820668
    109          1           0        4.663527   -1.200418   -1.324695
    110          1           0        5.305277   -0.592839   -3.319897
    111          1           0        5.862312   -2.247739   -3.382483
    112          1           0        8.069301   -1.864249   -3.270232
    113          1           0        7.949845   -0.591478   -2.104941
    114          1           0        6.989094    0.936174   -3.980683
    115          1           0        8.793124   -0.346238   -5.934081
    116          1           0        7.072580    0.182011   -5.971242
    117          1           0        7.620143   -1.490911   -5.471160
    118          1           0        9.198759    1.527769   -4.457654
    119          1           0        9.871712    0.099938   -3.653295
    120          1           0        8.015717    1.796777   -1.960510
    121          1           0        9.214783    2.763172   -2.728886
    122          1           0       10.942055    2.292367   -1.452011
    123          1           0       10.667811    0.551882   -1.554437
    124          1           0        8.800917    1.929717    0.300652
    125          1           0       10.471568   -0.176550    1.498383
    126          1           0        9.700624   -0.753443    0.069843
    127          1           0        8.792474   -0.045961    1.393833
    128          1           0       11.412177    3.007456    0.696247
    129          1           0       11.523323    1.613778    1.461930
    130          1           0        8.879563    2.748453    2.249052
    131          1           0       10.021137    4.079428    2.219728
    132          1           0       10.489897    3.514746    4.356124
    133          1           0       11.458557    2.338681    3.569278
    134          1           0        8.954884    1.146694    3.985179
    135          1           0        7.610533    2.658953    4.777493
    136          1           0        8.731188    3.681821    5.571759
    137          1           0        8.170580    2.201493    6.376433
    138          1           0       11.345164    1.268395    5.612585
    139          1           0       10.238868   -0.123247    5.213849
    140          1           0        9.875201    0.969435    6.603848
 ---------------------------------------------------------------------

 SCF Done:  E(RPBE1PBE) =  -3005.32081104     A.U. after   16 cycles

 Excitation energies and oscillator strengths:

 Excited State   1:      Singlet-A      1.8070 eV  686.12 nm  f=0.3659  <S**2>=0.000
     245 -> 248       -0.14447
     246 -> 247        0.69933
     246 <- 247       -0.11780
 This state for optimization and/or second-order correction.
 Total Energy, E(TD-HF/TD-DFT) =  -3005.25440425
 Copying the excited state density for this state as the 1-particle RhoCI density.

 Excited State   2:      Singlet-A      2.2708 eV  545.98 nm  f=0.1104  <S**2>=0.000
     245 -> 247        0.64440
     246 -> 248        0.26896

 Excited State   3:      Singlet-A      2.8079 eV  441.56 nm  f=0.0082  <S**2>=0.000
     243 -> 247        0.14326
     244 -> 247        0.67741

 Excited State   4:      Singlet-A      2.9701 eV  417.44 nm  f=0.0036  <S**2>=0.000
     243 -> 247        0.66921
     243 -> 249       -0.10297
     244 -> 247       -0.15459

 Excited State   5:      Singlet-A      3.1527 eV  393.26 nm  f=0.0007  <S**2>=0.000
     240 -> 247       -0.11328
     241 -> 247        0.66413
     241 -> 248       -0.10120
     241 -> 249        0.14720

 The electronic state is 1-A.
 Alpha  occ. eigenvalues --  -46.92660 -19.26039 -19.25762 -19.20338 -19.19719
 Alpha  occ. eigenvalues --  -19.19492 -19.18478 -14.41706 -14.41412 -14.39566
 Alpha  occ. eigenvalues --  -14.38182 -10.36880 -10.35793 -10.33241 -10.32188
 Alpha  occ. eigenvalues --  -10.30560 -10.28781 -10.28700 -10.28592 -10.28547
 Alpha  occ. eigenvalues --  -10.28469 -10.28131 -10.28035 -10.27181 -10.26780
 Alpha  occ. eigenvalues --  -10.26581 -10.26430 -10.26141 -10.25946 -10.25897
 Alpha  occ. eigenvalues --  -10.25885 -10.25497 -10.25441 -10.25432 -10.25220
 Alpha  occ. eigenvalues --  -10.25198 -10.24852 -10.24747 -10.24431 -10.24088
 Alpha  occ. eigenvalues --  -10.23981 -10.23963 -10.23949 -10.23924 -10.23878
 Alpha  occ. eigenvalues --  -10.23846 -10.23715 -10.23527 -10.23313 -10.23300
 Alpha  occ. eigenvalues --  -10.23274 -10.23273 -10.23188 -10.23132 -10.23014
 Alpha  occ. eigenvalues --  -10.22941 -10.22846 -10.22618 -10.22587 -10.22566
 Alpha  occ. eigenvalues --  -10.22383 -10.22179 -10.22087 -10.22057 -10.22038
 Alpha  occ. eigenvalues --  -10.21628  -3.14686  -1.87522  -1.87077  -1.86889
 Alpha  occ. eigenvalues --   -1.11501  -1.09586  -1.05580  -1.03355  -1.02770
 Alpha  occ. eigenvalues --   -1.01743  -0.98937  -0.98172  -0.97654  -0.96322
 Alpha  occ. eigenvalues --   -0.86017  -0.85798  -0.84322  -0.83943  -0.83505
 Alpha  occ. eigenvalues --   -0.83343  -0.82437  -0.81939  -0.81458  -0.81040
 Alpha  occ. eigenvalues --   -0.80571  -0.80299  -0.79257  -0.77703  -0.77297
 Alpha  occ. eigenvalues --   -0.77033  -0.76042  -0.75529  -0.75067  -0.74640
 Alpha  occ. eigenvalues --   -0.74531  -0.73010  -0.72214  -0.71544  -0.70733
 Alpha  occ. eigenvalues --   -0.70276  -0.69968  -0.69362  -0.69315  -0.68806
 Alpha  occ. eigenvalues --   -0.67938  -0.67299  -0.65692  -0.65056  -0.63310
 Alpha  occ. eigenvalues --   -0.63135  -0.62318  -0.61541  -0.61347  -0.60304
 Alpha  occ. eigenvalues --   -0.59939  -0.59512  -0.59339  -0.58788  -0.58571
 Alpha  occ. eigenvalues --   -0.57896  -0.57554  -0.56952  -0.56451  -0.55134
 Alpha  occ. eigenvalues --   -0.54973  -0.54231  -0.53903  -0.52965  -0.52229
 Alpha  occ. eigenvalues --   -0.52045  -0.51628  -0.51026  -0.50520  -0.50342
 Alpha  occ. eigenvalues --   -0.50080  -0.49758  -0.48811  -0.48682  -0.48286
 Alpha  occ. eigenvalues --   -0.48128  -0.48060  -0.47889  -0.47772  -0.47686
 Alpha  occ. eigenvalues --   -0.46998  -0.46846  -0.46711  -0.46520  -0.46205
 Alpha  occ. eigenvalues --   -0.46152  -0.45998  -0.45627  -0.45496  -0.45423
 Alpha  occ. eigenvalues --   -0.45353  -0.45115  -0.44694  -0.44549  -0.44445
 Alpha  occ. eigenvalues --   -0.44222  -0.43899  -0.43839  -0.43492  -0.43415
 Alpha  occ. eigenvalues --   -0.43228  -0.43159  -0.42752  -0.42746  -0.42618
 Alpha  occ. eigenvalues --   -0.42508  -0.42246  -0.42141  -0.41874  -0.41679
 Alpha  occ. eigenvalues --   -0.41436  -0.41151  -0.41063  -0.40956  -0.40679
 Alpha  occ. eigenvalues --   -0.40552  -0.40272  -0.39883  -0.39816  -0.39678
 Alpha  occ. eigenvalues --   -0.39480  -0.39264  -0.39153  -0.39054  -0.38754
 Alpha  occ. eigenvalues --   -0.38528  -0.38406  -0.38291  -0.37922  -0.37708
 Alpha  occ. eigenvalues --   -0.37467  -0.37369  -0.37221  -0.37056  -0.36892
 Alpha  occ. eigenvalues --   -0.36576  -0.36421  -0.36367  -0.36308  -0.36095
 Alpha  occ. eigenvalues --   -0.35967  -0.35878  -0.35608  -0.35509  -0.35300
 Alpha  occ. eigenvalues --   -0.35208  -0.34573  -0.34283  -0.33893  -0.33668
 Alpha  occ. eigenvalues --   -0.33251  -0.33075  -0.32729  -0.32331  -0.32197
 Alpha  occ. eigenvalues --   -0.31979  -0.31935  -0.31680  -0.31560  -0.31317
 Alpha  occ. eigenvalues --   -0.31316  -0.30753  -0.30227  -0.29353  -0.29344
 Alpha  occ. eigenvalues --   -0.29253  -0.28697  -0.28347  -0.27143  -0.26172
 Alpha  occ. eigenvalues --   -0.26018  -0.25394  -0.25069  -0.24249  -0.21226
 Alpha  occ. eigenvalues --   -0.18478
 Alpha virt. eigenvalues --   -0.11145  -0.04937  -0.03539  -0.01973  -0.01404
 Alpha virt. eigenvalues --   -0.00754   0.00271   0.01363   0.01615   0.03202
 Alpha virt. eigenvalues --    0.03884   0.04368   0.04528   0.04672   0.05424

 Mulliken charges:
               1
     1  Mg   0.960098
     2  C    0.001644
     3  C   -0.069998
     4  C   -0.060392
     5  C   -0.094550
     6  N   -0.355922
     7  C    0.041750
     8  C   -0.124193
     9  C   -0.154586
    10  C    0.066145
    11  C    0.029546
    12  C    0.026801
    13  C    0.019989
    14  C    0.239213
    15  O   -0.284224
    16  O   -0.410483
    17  N   -0.439839
    18  C    0.156834
    19  C   -0.184684
    20  C   -0.080654
    21  C    0.166491
    22  C    0.054679
    23  C    0.058071
    24  O   -0.231964
    25  C   -0.038149
    26  N   -0.447864
    27  C    0.104264
    28  C   -0.132542
    29  C   -0.109154
    30  C    0.127301
    31  C   -0.022925
    32  C   -0.028264
    33  C   -0.063458
    34  N   -0.477889
    35  C    0.128625
    36  C   -0.181387
    37  C   -0.049390
    38  C    0.145179
    39  C    0.068365
    40  C    0.160285
    41  O   -0.235647
    42  C   -0.096881
    43  C    0.263475
    44  O   -0.229136
    45  O   -0.357603
    46  C    0.106025
    47  C    0.272702
    48  C   -0.144409
    49  C   -0.270450
    50  C    0.016326
    51  C    0.068734
    52  C   -0.008612
    53  C   -0.046710
    54  C   -0.248386
    55  C    0.006950
    56  C   -0.010808
    57  C   -0.043642
    58  C    0.015388
    59  C   -0.223242
    60  C   -0.026892
    61  C   -0.001224
    62  C   -0.025451
    63  C   -0.039768
    64  C   -0.249168
    65  C   -0.033706
    66  C    0.025752
    67  H   -0.009954
    68  H    0.026557
    69  H   -0.005302
    70  H    0.046448
    71  H    0.041533
    72  H    0.046531
    73  H    0.059451
    74  H    0.046451
    75  H    0.039853
    76  H    0.044467
    77  H    0.060327
    78  H    0.065914
    79  H    0.045397
    80  H    0.084076
    81  H    0.058459
    82  H    0.040229
    83  H    0.062919
    84  H    0.066449
    85  H    0.067111
    86  H    0.049783
    87  H    0.049598
    88  H    0.051003
    89  H    0.058741
    90  H    0.057909
    91  H    0.036347
    92  H    0.047153
    93  H    0.039723
    94  H    0.029162
    95  H    0.064244
    96  H    0.028294
    97  H    0.056927
    98  H    0.072548
    99  H    0.046937
   100  H    0.066377
   101  H    0.066091
   102  H    0.078093
   103  H    0.058778
   104  H    0.030260
   105  H    0.053772
   106  H    0.034477
   107  H    0.049427
   108  H    0.036652
   109  H    0.016070
   110  H    0.033527
   111  H    0.030917
   112  H    0.027659
   113  H    0.029915
   114  H    0.026349
   115  H    0.029856
   116  H    0.040357
   117  H    0.036104
   118  H    0.020968
   119  H    0.030620
   120  H    0.032467
   121  H    0.030893
   122  H    0.026018
   123  H    0.028473
   124  H    0.040831
   125  H    0.026386
   126  H    0.035487
   127  H    0.031131
   128  H    0.015864
   129  H    0.022075
   130  H    0.027170
   131  H    0.035164
   132  H    0.015511
   133  H    0.024685
   134  H    0.031208
   135  H    0.027745
   136  H    0.036654
   137  H    0.037364
   138  H    0.038106
   139  H    0.040769
   140  H    0.028060
 Sum of Mulliken charges =  -0.00000

 Dipole moment (field-independent basis, Debye):
    X=              5.9498    Y=              3.8317    Z=             -1.2828  Tot=              7.1922
 Quadrupole moment (field-independent basis, Debye-Ang):
   XX=           -376.8803   YY=           -428.8787   ZZ=           -415.1140
   XY=            -30.9814   XZ=             17.0671   YZ=            -10.2169

 Normal termination of Gaussian 16 at Sat Apr 30 03:33:27 2022.
