 Gaussian 16, Revision A.03,
 Gaussian 16:  ES64L-G16RevA.03 25-Dec-2016

 --------------------------------
 #p wB97XD/Def2SVP td=(nstates=5)
 --------------------------------

 ----------------------------------------------------
 step_551_chromophore_27 TDDFT with wB97XD functional
 ----------------------------------------------------
 Symbolic Z-matrix:
 Charge =  0 Multiplicity = 1

                         Standard orientation:
 ---------------------------------------------------------------------
 Center     Atomic      Atomic             Coordinates (Angstroms)
 Number     Number       Type             X           Y           Z
 ---------------------------------------------------------------------
      1         12           0       -4.352110    0.970985   -0.304205
      2          6           0       -4.049164   -2.373994    0.514030
      3          6           0       -0.852151    1.185057   -0.135261
      4          6           0       -4.543886    4.274160   -0.339033
      5          6           0       -7.866847    0.777529    0.168163
      6          7           0       -2.634823   -0.425467    0.172455
      7          6           0       -2.810210   -1.809663    0.348517
      8          6           0       -1.462448   -2.527335    0.266874
      9          6           0       -0.474715   -1.298816    0.457872
     10          6           0       -1.364442   -0.110498    0.051755
     11          6           0        0.120461   -1.129161    1.895461
     12          6           0       -1.246922   -3.349109   -1.068260
     13          6           0       -0.681966   -4.713462   -0.959211
     14          6           0        0.562970   -4.954647   -1.750023
     15          8           0        0.602796   -5.777370   -2.696176
     16          8           0        1.633082   -4.470798   -1.012330
     17          7           0       -2.849565    2.536281   -0.352387
     18          6           0       -1.480600    2.422769   -0.342675
     19          6           0       -0.877177    3.787452   -0.302573
     20          6           0       -1.977698    4.671850   -0.456467
     21          6           0       -3.208139    3.817999   -0.451685
     22          6           0        0.582470    3.958010   -0.077607
     23          6           0       -1.907683    6.201619   -0.356741
     24          8           0       -2.927442    6.861722   -0.399190
     25          6           0       -0.567778    7.016509   -0.216603
     26          7           0       -5.901994    2.259840   -0.212203
     27          6           0       -5.740388    3.608558   -0.366996
     28          6           0       -7.066844    4.326350   -0.850139
     29          6           0       -8.142566    3.143941   -0.514472
     30          6           0       -7.234560    1.976894   -0.126994
     31          6           0       -7.457446    5.810197   -0.271067
     32          6           0       -9.149884    2.762446   -1.648915
     33          6           0      -10.617963    2.662271   -1.280660
     34          7           0       -5.813828   -0.506808    0.208517
     35          6           0       -7.225175   -0.443811    0.410234
     36          6           0       -7.697355   -1.744195    0.794229
     37          6           0       -6.514583   -2.546404    0.826322
     38          6           0       -5.377343   -1.716949    0.541879
     39          6           0       -9.088708   -2.056498    1.161748
     40          6           0       -5.900195   -3.905060    1.071364
     41          8           0       -6.441771   -4.940889    1.482661
     42          6           0       -4.339640   -3.823665    0.829452
     43          6           0       -3.734994   -4.372112    2.074982
     44          8           0       -3.684769   -3.773486    3.114343
     45          8           0       -3.248480   -5.621810    1.823816
     46          6           0       -2.512277   -6.195420    2.962769
     47          6           0        3.060467   -4.765364   -1.302708
     48          6           0        3.760589   -3.448220   -1.443764
     49          6           0        5.098898   -3.186131   -1.436247
     50          6           0        6.097250   -4.276768   -1.168101
     51          6           0        5.598484   -1.730343   -1.505116
     52          6           0        5.990487   -1.302227   -2.854712
     53          6           0        7.497659   -0.969800   -3.021837
     54          6           0        7.779634    0.186660   -4.024657
     55          6           0        7.818082   -0.418941   -5.451136
     56          6           0        9.070546    0.839249   -3.623069
     57          6           0        9.026682    1.752909   -2.364638
     58          6           0       10.199974    1.506557   -1.312987
     59          6           0        9.807459    1.519047    0.223788
     60          6           0        9.686912    0.070566    0.783189
     61          6           0       10.729584    2.302552    1.171793
     62          6           0        9.940424    2.994756    2.302480
     63          6           0       10.418806    2.609635    3.751998
     64          6           0        9.543079    1.746533    4.678245
     65          6           0        8.487264    2.629918    5.425455
     66          6           0       10.323214    0.888119    5.613372
     67          1           0        0.238528    1.231523   -0.114279
     68          1           0       -4.722809    5.349677   -0.401326
     69          1           0       -8.955342    0.732534    0.236198
     70          1           0       -1.274977   -3.190876    1.111694
     71          1           0        0.361024   -1.445271   -0.225895
     72          1           0       -0.174772   -1.965699    2.528987
     73          1           0       -0.219782   -0.227877    2.404073
     74          1           0        1.195407   -1.191120    1.726040
     75          1           0       -0.683817   -2.664357   -1.703084
     76          1           0       -2.199234   -3.399939   -1.597083
     77          1           0       -1.416021   -5.392797   -1.393043
     78          1           0       -0.579382   -5.060879    0.068972
     79          1           0        1.196426    3.082706   -0.291520
     80          1           0        0.727896    4.289199    0.950031
     81          1           0        0.858250    4.651244   -0.872560
     82          1           0        0.265758    6.585804    0.338029
     83          1           0       -0.676024    8.005090    0.229540
     84          1           0       -0.236945    7.061635   -1.254420
     85          1           0       -7.047519    4.533166   -1.920508
     86          1           0       -8.668311    3.385295    0.409975
     87          1           0       -8.496715    5.908823    0.044182
     88          1           0       -7.261932    6.505714   -1.087141
     89          1           0       -6.829928    6.063183    0.583319
     90          1           0       -8.976453    1.806146   -2.142047
     91          1           0       -8.945568    3.603306   -2.310446
     92          1           0      -11.270608    2.873611   -2.126329
     93          1           0      -10.867415    3.114835   -0.320476
     94          1           0      -10.841533    1.614913   -1.080122
     95          1           0       -9.296495   -3.126280    1.110689
     96          1           0       -9.743575   -1.538912    0.461719
     97          1           0       -9.426558   -1.628240    2.104932
     98          1           0       -3.978853   -4.396459   -0.025002
     99          1           0       -1.551206   -6.639067    2.701848
    100          1           0       -3.083649   -6.999723    3.426333
    101          1           0       -2.255815   -5.456369    3.722007
    102          1           0        3.083654   -5.482733   -2.122736
    103          1           0        3.362447   -5.187792   -0.345118
    104          1           0        3.144260   -2.553927   -1.357834
    105          1           0        6.408594   -4.574528   -2.169747
    106          1           0        5.736197   -5.196489   -0.708272
    107          1           0        6.940364   -3.994961   -0.537818
    108          1           0        6.431316   -1.566981   -0.820668
    109          1           0        4.663527   -1.200418   -1.324695
    110          1           0        5.305277   -0.592839   -3.319897
    111          1           0        5.862312   -2.247739   -3.382483
    112          1           0        8.069301   -1.864249   -3.270232
    113          1           0        7.949845   -0.591478   -2.104941
    114          1           0        6.989094    0.936174   -3.980683
    115          1           0        8.793124   -0.346238   -5.934081
    116          1           0        7.072580    0.182011   -5.971242
    117          1           0        7.620143   -1.490911   -5.471160
    118          1           0        9.198759    1.527769   -4.457654
    119          1           0        9.871712    0.099938   -3.653295
    120          1           0        8.015717    1.796777   -1.960510
    121          1           0        9.214783    2.763172   -2.728886
    122          1           0       10.942055    2.292367   -1.452011
    123          1           0       10.667811    0.551882   -1.554437
    124          1           0        8.800917    1.929717    0.300652
    125          1           0       10.471568   -0.176550    1.498383
    126          1           0        9.700624   -0.753443    0.069843
    127          1           0        8.792474   -0.045961    1.393833
    128          1           0       11.412177    3.007456    0.696247
    129          1           0       11.523323    1.613778    1.461930
    130          1           0        8.879563    2.748453    2.249052
    131          1           0       10.021137    4.079428    2.219728
    132          1           0       10.489897    3.514746    4.356124
    133          1           0       11.458557    2.338681    3.569278
    134          1           0        8.954884    1.146694    3.985179
    135          1           0        7.610533    2.658953    4.777493
    136          1           0        8.731188    3.681821    5.571759
    137          1           0        8.170580    2.201493    6.376433
    138          1           0       11.345164    1.268395    5.612585
    139          1           0       10.238868   -0.123247    5.213849
    140          1           0        9.875201    0.969435    6.603848
 ---------------------------------------------------------------------

 SCF Done:  E(RwB97XD) =  -3007.82931091     A.U. after   19 cycles

 Excitation energies and oscillator strengths:

 Excited State   1:      Singlet-A      1.6522 eV  750.41 nm  f=0.3813  <S**2>=0.000
     245 -> 248        0.15332
     246 -> 247        0.68983
     245 <- 248        0.10431
 This state for optimization and/or second-order correction.
 Total Energy, E(TD-HF/TD-DFT) =  -3007.76859274
 Copying the excited state density for this state as the 1-particle RhoCI density.

 Excited State   2:      Singlet-A      2.2247 eV  557.31 nm  f=0.1104  <S**2>=0.000
     245 -> 247        0.63199
     246 -> 248       -0.29492

 Excited State   3:      Singlet-A      3.2956 eV  376.21 nm  f=0.0079  <S**2>=0.000
     241 -> 247       -0.15058
     244 -> 247        0.66605
     244 -> 249        0.10650

 Excited State   4:      Singlet-A      3.5087 eV  353.36 nm  f=0.3936  <S**2>=0.000
     239 -> 247        0.16170
     241 -> 247        0.32620
     243 -> 247        0.13170
     245 -> 247        0.21546
     246 -> 248        0.53233

 Excited State   5:      Singlet-A      3.5952 eV  344.86 nm  f=0.0565  <S**2>=0.000
     243 -> 247        0.54338
     243 -> 249        0.24588
     243 -> 250        0.25374
     246 -> 248       -0.17533

 The electronic state is 1-A.
 Alpha  occ. eigenvalues --  -46.95596 -19.30516 -19.30302 -19.24998 -19.24653
 Alpha  occ. eigenvalues --  -19.24320 -19.22945 -14.46969 -14.46353 -14.44737
 Alpha  occ. eigenvalues --  -14.42815 -10.43660 -10.42528 -10.40410 -10.38717
 Alpha  occ. eigenvalues --  -10.37079 -10.35476 -10.35419 -10.35388 -10.35057
 Alpha  occ. eigenvalues --  -10.34986 -10.34563 -10.34253 -10.33877 -10.32999
 Alpha  occ. eigenvalues --  -10.32774 -10.32400 -10.32277 -10.32273 -10.32257
 Alpha  occ. eigenvalues --  -10.32232 -10.32121 -10.31868 -10.31691 -10.31471
 Alpha  occ. eigenvalues --  -10.31468 -10.31197 -10.31029 -10.30965 -10.30828
 Alpha  occ. eigenvalues --  -10.30436 -10.30397 -10.30286 -10.30244 -10.30230
 Alpha  occ. eigenvalues --  -10.30043 -10.29971 -10.29904 -10.29730 -10.29698
 Alpha  occ. eigenvalues --  -10.29630 -10.29600 -10.29598 -10.29431 -10.29086
 Alpha  occ. eigenvalues --  -10.29038 -10.29023 -10.28992 -10.28967 -10.28940
 Alpha  occ. eigenvalues --  -10.28792 -10.28577 -10.28560 -10.28520 -10.28509
 Alpha  occ. eigenvalues --  -10.28094  -3.21495  -1.95078  -1.94631  -1.94442
 Alpha  occ. eigenvalues --   -1.18801  -1.16977  -1.13391  -1.10613  -1.09948
 Alpha  occ. eigenvalues --   -1.09091  -1.06564  -1.05737  -1.05006  -1.03303
 Alpha  occ. eigenvalues --   -0.93562  -0.93459  -0.91992  -0.91624  -0.91207
 Alpha  occ. eigenvalues --   -0.91143  -0.90110  -0.89639  -0.89332  -0.88640
 Alpha  occ. eigenvalues --   -0.88212  -0.87555  -0.86942  -0.85248  -0.84908
 Alpha  occ. eigenvalues --   -0.84693  -0.83732  -0.83310  -0.82609  -0.82500
 Alpha  occ. eigenvalues --   -0.82251  -0.81018  -0.79788  -0.79013  -0.78429
 Alpha  occ. eigenvalues --   -0.77808  -0.77705  -0.77049  -0.76946  -0.76510
 Alpha  occ. eigenvalues --   -0.75563  -0.74710  -0.73296  -0.72677  -0.70825
 Alpha  occ. eigenvalues --   -0.70759  -0.70033  -0.69100  -0.69031  -0.67984
 Alpha  occ. eigenvalues --   -0.67542  -0.66903  -0.66757  -0.66298  -0.66142
 Alpha  occ. eigenvalues --   -0.65409  -0.65249  -0.64630  -0.63731  -0.62711
 Alpha  occ. eigenvalues --   -0.62687  -0.61741  -0.61196  -0.60352  -0.59572
 Alpha  occ. eigenvalues --   -0.59497  -0.58972  -0.58449  -0.58020  -0.57695
 Alpha  occ. eigenvalues --   -0.57390  -0.57199  -0.56114  -0.56097  -0.55760
 Alpha  occ. eigenvalues --   -0.55663  -0.55590  -0.55413  -0.55178  -0.55080
 Alpha  occ. eigenvalues --   -0.54439  -0.54295  -0.54023  -0.53895  -0.53576
 Alpha  occ. eigenvalues --   -0.53408  -0.53370  -0.53266  -0.52961  -0.52830
 Alpha  occ. eigenvalues --   -0.52576  -0.52477  -0.52000  -0.51821  -0.51801
 Alpha  occ. eigenvalues --   -0.51585  -0.51297  -0.51189  -0.50800  -0.50644
 Alpha  occ. eigenvalues --   -0.50564  -0.50428  -0.50129  -0.49997  -0.49927
 Alpha  occ. eigenvalues --   -0.49782  -0.49712  -0.49446  -0.49089  -0.48983
 Alpha  occ. eigenvalues --   -0.48740  -0.48544  -0.48344  -0.48086  -0.47871
 Alpha  occ. eigenvalues --   -0.47767  -0.47398  -0.47071  -0.46964  -0.46861
 Alpha  occ. eigenvalues --   -0.46646  -0.46413  -0.46204  -0.46072  -0.45818
 Alpha  occ. eigenvalues --   -0.45792  -0.45642  -0.45494  -0.44940  -0.44843
 Alpha  occ. eigenvalues --   -0.44781  -0.44639  -0.44305  -0.44195  -0.43951
 Alpha  occ. eigenvalues --   -0.43611  -0.43527  -0.43481  -0.43358  -0.43264
 Alpha  occ. eigenvalues --   -0.42973  -0.42867  -0.42738  -0.42474  -0.42401
 Alpha  occ. eigenvalues --   -0.42292  -0.41359  -0.41346  -0.40895  -0.40743
 Alpha  occ. eigenvalues --   -0.40223  -0.40162  -0.39821  -0.39410  -0.39254
 Alpha  occ. eigenvalues --   -0.38987  -0.38852  -0.38686  -0.38596  -0.38402
 Alpha  occ. eigenvalues --   -0.38224  -0.37760  -0.37258  -0.36293  -0.36266
 Alpha  occ. eigenvalues --   -0.36058  -0.35707  -0.34960  -0.33997  -0.33470
 Alpha  occ. eigenvalues --   -0.32910  -0.32174  -0.31794  -0.30404  -0.26359
 Alpha  occ. eigenvalues --   -0.22639
 Alpha virt. eigenvalues --   -0.06992   0.00609   0.02614   0.04584   0.05112
 Alpha virt. eigenvalues --    0.05517   0.06945   0.08040   0.08520   0.09698
 Alpha virt. eigenvalues --    0.10629   0.10743   0.11162   0.11477   0.12154

 Mulliken charges:
               1
     1  Mg   0.951430
     2  C    0.006356
     3  C   -0.081552
     4  C   -0.077925
     5  C   -0.106975
     6  N   -0.320643
     7  C    0.009476
     8  C   -0.092818
     9  C   -0.126244
    10  C    0.050191
    11  C    0.036702
    12  C    0.033056
    13  C    0.039548
    14  C    0.226687
    15  O   -0.281493
    16  O   -0.410032
    17  N   -0.408858
    18  C    0.151094
    19  C   -0.170457
    20  C   -0.073924
    21  C    0.162344
    22  C    0.064826
    23  C    0.053793
    24  O   -0.224956
    25  C   -0.026928
    26  N   -0.418285
    27  C    0.099813
    28  C   -0.114032
    29  C   -0.084492
    30  C    0.115844
    31  C   -0.011080
    32  C   -0.009259
    33  C   -0.048072
    34  N   -0.441810
    35  C    0.114600
    36  C   -0.176764
    37  C   -0.042192
    38  C    0.114326
    39  C    0.077665
    40  C    0.139837
    41  O   -0.230056
    42  C   -0.055409
    43  C    0.238915
    44  O   -0.224500
    45  O   -0.356142
    46  C    0.122836
    47  C    0.283928
    48  C   -0.154462
    49  C   -0.249684
    50  C    0.025825
    51  C    0.088684
    52  C    0.005805
    53  C   -0.019906
    54  C   -0.218980
    55  C    0.013962
    56  C    0.007278
    57  C   -0.028605
    58  C    0.029885
    59  C   -0.190317
    60  C   -0.016876
    61  C    0.012091
    62  C   -0.009161
    63  C   -0.025254
    64  C   -0.215269
    65  C   -0.021038
    66  C    0.037879
    67  H   -0.017115
    68  H    0.018674
    69  H   -0.017749
    70  H    0.027892
    71  H    0.030623
    72  H    0.042984
    73  H    0.053836
    74  H    0.041841
    75  H    0.030166
    76  H    0.037251
    77  H    0.055634
    78  H    0.060974
    79  H    0.043878
    80  H    0.082183
    81  H    0.053739
    82  H    0.035537
    83  H    0.063377
    84  H    0.062303
    85  H    0.057214
    86  H    0.037167
    87  H    0.045284
    88  H    0.045541
    89  H    0.052430
    90  H    0.049597
    91  H    0.024617
    92  H    0.042228
    93  H    0.033219
    94  H    0.022033
    95  H    0.059530
    96  H    0.019744
    97  H    0.050319
    98  H    0.063405
    99  H    0.042153
   100  H    0.062556
   101  H    0.061580
   102  H    0.076359
   103  H    0.053319
   104  H    0.023835
   105  H    0.047352
   106  H    0.029470
   107  H    0.045289
   108  H    0.028727
   109  H    0.007407
   110  H    0.027667
   111  H    0.017371
   112  H    0.019069
   113  H    0.004999
   114  H    0.014482
   115  H    0.024918
   116  H    0.035342
   117  H    0.030344
   118  H    0.011566
   119  H    0.021472
   120  H    0.023453
   121  H    0.023896
   122  H    0.018200
   123  H    0.017922
   124  H    0.025962
   125  H    0.018926
   126  H    0.030309
   127  H    0.024859
   128  H    0.009109
   129  H    0.011622
   130  H    0.014898
   131  H    0.029296
   132  H    0.004422
   133  H    0.014742
   134  H    0.015843
   135  H    0.021088
   136  H    0.030589
   137  H    0.031356
   138  H    0.031998
   139  H    0.035699
   140  H    0.021957
 Sum of Mulliken charges =  -0.00000

 Dipole moment (field-independent basis, Debye):
    X=              6.9532    Y=              4.5501    Z=             -1.3856  Tot=              8.4243
 Quadrupole moment (field-independent basis, Debye-Ang):
   XX=           -384.9600   YY=           -426.1843   ZZ=           -414.7902
   XY=            -32.2246   XZ=             17.8750   YZ=            -10.3135

 Normal termination of Gaussian 16 at Sat Apr 30 03:56:05 2022.
