 Gaussian 16, Revision A.03,
 Gaussian 16:  ES64L-G16RevA.03 25-Dec-2016

 --------------------
 #p ZINDO=(nstates=5)
 --------------------

 -----------------------------
 step_551_chromophore_27 ZINDO
 -----------------------------
 Symbolic Z-matrix:
 Charge =  0 Multiplicity = 1

                         Standard orientation:
 ---------------------------------------------------------------------
 Center     Atomic      Atomic             Coordinates (Angstroms)
 Number     Number       Type             X           Y           Z
 ---------------------------------------------------------------------
      1         12           0       -4.352110    0.970985   -0.304205
      2          6           0       -4.049164   -2.373994    0.514030
      3          6           0       -0.852151    1.185057   -0.135261
      4          6           0       -4.543886    4.274160   -0.339033
      5          6           0       -7.866847    0.777529    0.168163
      6          7           0       -2.634823   -0.425467    0.172455
      7          6           0       -2.810210   -1.809663    0.348517
      8          6           0       -1.462448   -2.527335    0.266874
      9          6           0       -0.474715   -1.298816    0.457872
     10          6           0       -1.364442   -0.110498    0.051755
     11          6           0        0.120461   -1.129161    1.895461
     12          6           0       -1.246922   -3.349109   -1.068260
     13          6           0       -0.681966   -4.713462   -0.959211
     14          6           0        0.562970   -4.954647   -1.750023
     15          8           0        0.602796   -5.777370   -2.696176
     16          8           0        1.633082   -4.470798   -1.012330
     17          7           0       -2.849565    2.536281   -0.352387
     18          6           0       -1.480600    2.422769   -0.342675
     19          6           0       -0.877177    3.787452   -0.302573
     20          6           0       -1.977698    4.671850   -0.456467
     21          6           0       -3.208139    3.817999   -0.451685
     22          6           0        0.582470    3.958010   -0.077607
     23          6           0       -1.907683    6.201619   -0.356741
     24          8           0       -2.927442    6.861722   -0.399190
     25          6           0       -0.567778    7.016509   -0.216603
     26          7           0       -5.901994    2.259840   -0.212203
     27          6           0       -5.740388    3.608558   -0.366996
     28          6           0       -7.066844    4.326350   -0.850139
     29          6           0       -8.142566    3.143941   -0.514472
     30          6           0       -7.234560    1.976894   -0.126994
     31          6           0       -7.457446    5.810197   -0.271067
     32          6           0       -9.149884    2.762446   -1.648915
     33          6           0      -10.617963    2.662271   -1.280660
     34          7           0       -5.813828   -0.506808    0.208517
     35          6           0       -7.225175   -0.443811    0.410234
     36          6           0       -7.697355   -1.744195    0.794229
     37          6           0       -6.514583   -2.546404    0.826322
     38          6           0       -5.377343   -1.716949    0.541879
     39          6           0       -9.088708   -2.056498    1.161748
     40          6           0       -5.900195   -3.905060    1.071364
     41          8           0       -6.441771   -4.940889    1.482661
     42          6           0       -4.339640   -3.823665    0.829452
     43          6           0       -3.734994   -4.372112    2.074982
     44          8           0       -3.684769   -3.773486    3.114343
     45          8           0       -3.248480   -5.621810    1.823816
     46          6           0       -2.512277   -6.195420    2.962769
     47          6           0        3.060467   -4.765364   -1.302708
     48          6           0        3.760589   -3.448220   -1.443764
     49          6           0        5.098898   -3.186131   -1.436247
     50          6           0        6.097250   -4.276768   -1.168101
     51          6           0        5.598484   -1.730343   -1.505116
     52          6           0        5.990487   -1.302227   -2.854712
     53          6           0        7.497659   -0.969800   -3.021837
     54          6           0        7.779634    0.186660   -4.024657
     55          6           0        7.818082   -0.418941   -5.451136
     56          6           0        9.070546    0.839249   -3.623069
     57          6           0        9.026682    1.752909   -2.364638
     58          6           0       10.199974    1.506557   -1.312987
     59          6           0        9.807459    1.519047    0.223788
     60          6           0        9.686912    0.070566    0.783189
     61          6           0       10.729584    2.302552    1.171793
     62          6           0        9.940424    2.994756    2.302480
     63          6           0       10.418806    2.609635    3.751998
     64          6           0        9.543079    1.746533    4.678245
     65          6           0        8.487264    2.629918    5.425455
     66          6           0       10.323214    0.888119    5.613372
     67          1           0        0.238528    1.231523   -0.114279
     68          1           0       -4.722809    5.349677   -0.401326
     69          1           0       -8.955342    0.732534    0.236198
     70          1           0       -1.274977   -3.190876    1.111694
     71          1           0        0.361024   -1.445271   -0.225895
     72          1           0       -0.174772   -1.965699    2.528987
     73          1           0       -0.219782   -0.227877    2.404073
     74          1           0        1.195407   -1.191120    1.726040
     75          1           0       -0.683817   -2.664357   -1.703084
     76          1           0       -2.199234   -3.399939   -1.597083
     77          1           0       -1.416021   -5.392797   -1.393043
     78          1           0       -0.579382   -5.060879    0.068972
     79          1           0        1.196426    3.082706   -0.291520
     80          1           0        0.727896    4.289199    0.950031
     81          1           0        0.858250    4.651244   -0.872560
     82          1           0        0.265758    6.585804    0.338029
     83          1           0       -0.676024    8.005090    0.229540
     84          1           0       -0.236945    7.061635   -1.254420
     85          1           0       -7.047519    4.533166   -1.920508
     86          1           0       -8.668311    3.385295    0.409975
     87          1           0       -8.496715    5.908823    0.044182
     88          1           0       -7.261932    6.505714   -1.087141
     89          1           0       -6.829928    6.063183    0.583319
     90          1           0       -8.976453    1.806146   -2.142047
     91          1           0       -8.945568    3.603306   -2.310446
     92          1           0      -11.270608    2.873611   -2.126329
     93          1           0      -10.867415    3.114835   -0.320476
     94          1           0      -10.841533    1.614913   -1.080122
     95          1           0       -9.296495   -3.126280    1.110689
     96          1           0       -9.743575   -1.538912    0.461719
     97          1           0       -9.426558   -1.628240    2.104932
     98          1           0       -3.978853   -4.396459   -0.025002
     99          1           0       -1.551206   -6.639067    2.701848
    100          1           0       -3.083649   -6.999723    3.426333
    101          1           0       -2.255815   -5.456369    3.722007
    102          1           0        3.083654   -5.482733   -2.122736
    103          1           0        3.362447   -5.187792   -0.345118
    104          1           0        3.144260   -2.553927   -1.357834
    105          1           0        6.408594   -4.574528   -2.169747
    106          1           0        5.736197   -5.196489   -0.708272
    107          1           0        6.940364   -3.994961   -0.537818
    108          1           0        6.431316   -1.566981   -0.820668
    109          1           0        4.663527   -1.200418   -1.324695
    110          1           0        5.305277   -0.592839   -3.319897
    111          1           0        5.862312   -2.247739   -3.382483
    112          1           0        8.069301   -1.864249   -3.270232
    113          1           0        7.949845   -0.591478   -2.104941
    114          1           0        6.989094    0.936174   -3.980683
    115          1           0        8.793124   -0.346238   -5.934081
    116          1           0        7.072580    0.182011   -5.971242
    117          1           0        7.620143   -1.490911   -5.471160
    118          1           0        9.198759    1.527769   -4.457654
    119          1           0        9.871712    0.099938   -3.653295
    120          1           0        8.015717    1.796777   -1.960510
    121          1           0        9.214783    2.763172   -2.728886
    122          1           0       10.942055    2.292367   -1.452011
    123          1           0       10.667811    0.551882   -1.554437
    124          1           0        8.800917    1.929717    0.300652
    125          1           0       10.471568   -0.176550    1.498383
    126          1           0        9.700624   -0.753443    0.069843
    127          1           0        8.792474   -0.045961    1.393833
    128          1           0       11.412177    3.007456    0.696247
    129          1           0       11.523323    1.613778    1.461930
    130          1           0        8.879563    2.748453    2.249052
    131          1           0       10.021137    4.079428    2.219728
    132          1           0       10.489897    3.514746    4.356124
    133          1           0       11.458557    2.338681    3.569278
    134          1           0        8.954884    1.146694    3.985179
    135          1           0        7.610533    2.658953    4.777493
    136          1           0        8.731188    3.681821    5.571759
    137          1           0        8.170580    2.201493    6.376433
    138          1           0       11.345164    1.268395    5.612585
    139          1           0       10.238868   -0.123247    5.213849
    140          1           0        9.875201    0.969435    6.603848
 ---------------------------------------------------------------------

 SCF Done:  E(RZINDO/S) =  -474.114792043     A.U. after   19 cycles

 Excitation energies and oscillator strengths:

 Excited State   1:      Singlet-A      1.2847 eV  965.08 nm  f=0.5501  <S**2>=0.000
     175 ->178        -0.14686
     176 ->177         0.67506
 This state for optimization and/or second-order correction.
 Total Energy, E(CIS/TDA) =  -474.067579887
 Copying the excited state density for this state as the 1-particle RhoCI density.

 Excited State   2:      Singlet-A      1.9834 eV  625.11 nm  f=0.0363  <S**2>=0.000
     175 ->177         0.53220
     176 ->178         0.42581

 Excited State   3:      Singlet-A      2.9843 eV  415.46 nm  f=0.8245  <S**2>=0.000
     167 ->179        -0.10196
     168 ->179        -0.13938
     175 ->177        -0.36698
     176 ->178         0.49502

 Excited State   4:      Singlet-A      3.0032 eV  412.84 nm  f=0.1203  <S**2>=0.000
     167 ->177         0.14906
     167 ->179        -0.23700
     167 ->181         0.11213
     167 ->186        -0.12477
     168 ->177         0.24563
     168 ->178        -0.12844
     168 ->179        -0.33939
     168 ->181         0.14604
     168 ->184         0.12099
     168 ->186        -0.18225
     175 ->177         0.14732
     176 ->178        -0.19618

 Excited State   5:      Singlet-A      3.0361 eV  408.37 nm  f=0.0752  <S**2>=0.000
     171 ->181         0.10366
     174 ->177         0.10310
     176 ->179         0.57530
     176 ->181         0.28790

 The electronic state is 1-A.
 Alpha  occ. eigenvalues --   -1.82015  -1.79927  -1.79485  -1.72981  -1.70708
 Alpha  occ. eigenvalues --   -1.68968  -1.66016  -1.62214  -1.59277  -1.56310
 Alpha  occ. eigenvalues --   -1.55922  -1.52850  -1.49413  -1.47761  -1.47141
 Alpha  occ. eigenvalues --   -1.44827  -1.43121  -1.41058  -1.38617  -1.37440
 Alpha  occ. eigenvalues --   -1.35080  -1.34209  -1.33134  -1.32601  -1.28321
 Alpha  occ. eigenvalues --   -1.28039  -1.24790  -1.21754  -1.20350  -1.17762
 Alpha  occ. eigenvalues --   -1.16747  -1.16353  -1.16192  -1.14402  -1.14129
 Alpha  occ. eigenvalues --   -1.12473  -1.11518  -1.11306  -1.04771  -1.03444
 Alpha  occ. eigenvalues --   -1.03054  -1.01184  -0.99035  -0.97590  -0.97272
 Alpha  occ. eigenvalues --   -0.96380  -0.95070  -0.94179  -0.94078  -0.92640
 Alpha  occ. eigenvalues --   -0.91526  -0.90315  -0.89821  -0.88459  -0.87230
 Alpha  occ. eigenvalues --   -0.85774  -0.84261  -0.83688  -0.82371  -0.81534
 Alpha  occ. eigenvalues --   -0.80067  -0.78901  -0.77453  -0.76454  -0.76275
 Alpha  occ. eigenvalues --   -0.75830  -0.75036  -0.74725  -0.73659  -0.73415
 Alpha  occ. eigenvalues --   -0.73179  -0.72590  -0.71710  -0.71471  -0.70891
 Alpha  occ. eigenvalues --   -0.70419  -0.69574  -0.69163  -0.68694  -0.68395
 Alpha  occ. eigenvalues --   -0.68211  -0.67403  -0.67120  -0.66791  -0.65869
 Alpha  occ. eigenvalues --   -0.65224  -0.64819  -0.64535  -0.63969  -0.63836
 Alpha  occ. eigenvalues --   -0.63645  -0.63451  -0.62747  -0.62648  -0.61782
 Alpha  occ. eigenvalues --   -0.61413  -0.61192  -0.60778  -0.60185  -0.60041
 Alpha  occ. eigenvalues --   -0.59772  -0.59419  -0.59139  -0.58921  -0.58725
 Alpha  occ. eigenvalues --   -0.58484  -0.57954  -0.57777  -0.56967  -0.56452
 Alpha  occ. eigenvalues --   -0.56106  -0.55945  -0.55759  -0.55131  -0.54728
 Alpha  occ. eigenvalues --   -0.54551  -0.53788  -0.53745  -0.53418  -0.53275
 Alpha  occ. eigenvalues --   -0.52721  -0.52049  -0.51667  -0.51440  -0.51358
 Alpha  occ. eigenvalues --   -0.50887  -0.50636  -0.50365  -0.50211  -0.49973
 Alpha  occ. eigenvalues --   -0.49857  -0.49773  -0.49683  -0.49238  -0.49178
 Alpha  occ. eigenvalues --   -0.49086  -0.48736  -0.48577  -0.48381  -0.48153
 Alpha  occ. eigenvalues --   -0.47650  -0.47539  -0.47394  -0.46852  -0.46650
 Alpha  occ. eigenvalues --   -0.46456  -0.46319  -0.46045  -0.45840  -0.45666
 Alpha  occ. eigenvalues --   -0.45447  -0.45402  -0.44545  -0.44284  -0.43828
 Alpha  occ. eigenvalues --   -0.43802  -0.43286  -0.42901  -0.42198  -0.42058
 Alpha  occ. eigenvalues --   -0.41806  -0.41455  -0.41265  -0.39247  -0.38752
 Alpha  occ. eigenvalues --   -0.37646  -0.36830  -0.36312  -0.34625  -0.34346
 Alpha  occ. eigenvalues --   -0.34031  -0.32606  -0.32136  -0.30846  -0.27139
 Alpha  occ. eigenvalues --   -0.21621
 Alpha virt. eigenvalues --   -0.08332  -0.01768  -0.00641   0.00163   0.01392
 Alpha virt. eigenvalues --    0.01638   0.03053   0.03720   0.03727   0.04436
 Alpha virt. eigenvalues --    0.05340   0.06372   0.06809   0.07707   0.08065

 Mulliken charges:
               1
     1  Mg   0.432026
     2  C   -0.019462
     3  C   -0.083578
     4  C   -0.078152
     5  C   -0.060909
     6  N   -0.273066
     7  C    0.079818
     8  C   -0.004093
     9  C   -0.000662
    10  C    0.183069
    11  C   -0.048349
    12  C   -0.016260
    13  C    0.016906
    14  C    0.467514
    15  O   -0.516265
    16  O   -0.294682
    17  N   -0.324815
    18  C    0.124053
    19  C    0.037864
    20  C   -0.041856
    21  C    0.173806
    22  C   -0.035243
    23  C    0.325187
    24  O   -0.507286
    25  C   -0.031733
    26  N   -0.266980
    27  C    0.169143
    28  C   -0.013603
    29  C   -0.009981
    30  C    0.097146
    31  C   -0.057057
    32  C   -0.027153
    33  C   -0.059682
    34  N   -0.325587
    35  C    0.050038
    36  C    0.017621
    37  C   -0.073923
    38  C    0.092225
    39  C   -0.033360
    40  C    0.328646
    41  O   -0.528303
    42  C    0.055977
    43  C    0.500484
    44  O   -0.520864
    45  O   -0.262235
    46  C    0.069901
    47  C    0.112570
    48  C   -0.098960
    49  C   -0.006233
    50  C   -0.043701
    51  C   -0.018424
    52  C   -0.033627
    53  C   -0.039043
    54  C   -0.012531
    55  C   -0.062072
    56  C   -0.031422
    57  C   -0.039799
    58  C   -0.038753
    59  C   -0.008098
    60  C   -0.061261
    61  C   -0.030119
    62  C   -0.033648
    63  C   -0.046498
    64  C   -0.000571
    65  C   -0.060194
    66  C   -0.052853
    67  H    0.015681
    68  H    0.038910
    69  H    0.027849
    70  H    0.031962
    71  H    0.023912
    72  H    0.026913
    73  H    0.032899
    74  H    0.021588
    75  H    0.022507
    76  H    0.023634
    77  H    0.032619
    78  H    0.047524
    79  H    0.029104
    80  H    0.047088
    81  H    0.030660
    82  H    0.025291
    83  H    0.044259
    84  H    0.038165
    85  H    0.039298
    86  H    0.032618
    87  H    0.026161
    88  H    0.023426
    89  H    0.027314
    90  H    0.031818
    91  H    0.015199
    92  H    0.025147
    93  H    0.025446
    94  H    0.009211
    95  H    0.031677
    96  H    0.015011
    97  H    0.033312
    98  H    0.050179
    99  H    0.026832
   100  H    0.042503
   101  H    0.047458
   102  H    0.069413
   103  H    0.043973
   104  H    0.029679
   105  H    0.029196
   106  H    0.020497
   107  H    0.025876
   108  H    0.032956
   109  H    0.021295
   110  H    0.028231
   111  H    0.014804
   112  H    0.023483
   113  H    0.011382
   114  H    0.021663
   115  H    0.018624
   116  H    0.019437
   117  H    0.021774
   118  H    0.004609
   119  H    0.027487
   120  H    0.026407
   121  H    0.011187
   122  H    0.018436
   123  H    0.021904
   124  H    0.019370
   125  H    0.014916
   126  H    0.018424
   127  H    0.010594
   128  H    0.012941
   129  H    0.019377
   130  H    0.019278
   131  H    0.019074
   132  H    0.007448
   133  H    0.019590
   134  H    0.013999
   135  H    0.007152
   136  H    0.023584
   137  H    0.019522
   138  H    0.024055
   139  H    0.021328
   140  H    0.022806
 Sum of Mulliken charges =  -0.00000

 Dipole moment (field-independent basis, Debye):
    X=             11.0200    Y=              6.6388    Z=             -2.6717  Tot=             13.1397
 N-N= 4.396628854669D+03 E-N= 0.000000000000D+00  KE=-9.466901522521D+03
 Leave Link  601 at Sat Apr 30 04:09:09 2022, MaxMem=  6710886400 cpu:               0.7 elap:               0.0
 (Enter /sw/apps/gaussian-16.0/g16/l9999.exe)
 1\1\GINC-BP1-COMPUTE159\SP\RZINDO CIS\STO-3G\C55H74Mg1N4O6\OF15641\30-
 Apr-2022\0\\#p ZINDO=(nstates=5)\\step_551_chromophore_27 ZINDO\\0,1\M
 g,0,-5.018,24.272,27.744\C,0,-3.221,26.224,29.96\C,0,-5.889,22.232,30.
 465\C,0,-6.126,21.952,25.661\C,0,-3.573,26.025,25.014\N,0,-4.578,24.20
 6,29.964\C,0,-3.899,25.24,30.633\C,0,-4.093,25.108,32.144\C,0,-4.609,2
 3.609,32.234\C,0,-5.139,23.37,30.809\C,0,-3.535,22.55,32.652\C,0,-5.07
 2,26.184,32.767\C,0,-4.661,26.85,34.024\C,0,-5.628,26.729,35.157\O,0,-

 Normal termination of Gaussian 16 at Sat Apr 30 04:09:09 2022.
