 Gaussian 16, Revision A.03,
 Gaussian 16:  ES64L-G16RevA.03 25-Dec-2016

 ------------------------------
 #p blyp/Def2SVP td=(nstates=5)
 ------------------------------

 -------------------------------------------------
 step_101_chromophore_4 TDDFT with blyp functional
 -------------------------------------------------
 Symbolic Z-matrix:
 Charge =  0 Multiplicity = 1

                         Standard orientation:
 ---------------------------------------------------------------------
 Center     Atomic      Atomic             Coordinates (Angstroms)
 Number     Number       Type             X           Y           Z
 ---------------------------------------------------------------------
      1         12           0        6.054767    0.690859    0.186903
      2          6           0        3.950541   -2.085760    0.037419
      3          6           0        3.416625    2.691132   -0.439904
      4          6           0        8.253293    3.247223    0.263832
      5          6           0        8.792724   -1.585747    0.550204
      6          7           0        3.887643    0.331137   -0.207762
      7          6           0        3.252256   -0.879825   -0.068838
      8          6           0        1.686469   -0.738866   -0.349853
      9          6           0        1.503451    0.816579   -0.484021
     10          6           0        2.983922    1.334144   -0.375843
     11          6           0        0.745061    1.250717   -1.683453
     12          6           0        0.661375   -1.508452    0.590865
     13          6           0       -0.796587   -1.030762    0.672943
     14          6           0       -1.862799   -2.146160    0.416082
     15          8           0       -2.049953   -3.066553    1.203191
     16          8           0       -2.516942   -2.022444   -0.765729
     17          7           0        5.866651    2.595121   -0.132482
     18          6           0        4.699998    3.279201   -0.247106
     19          6           0        4.986178    4.680305   -0.421646
     20          6           0        6.423535    4.866144   -0.373318
     21          6           0        6.905158    3.522370   -0.020517
     22          6           0        3.886996    5.691353   -0.823631
     23          6           0        7.240149    6.110186   -0.572712
     24          8           0        8.427616    6.122646   -0.548796
     25          6           0        6.612875    7.339432   -1.118809
     26          7           0        8.172891    0.773402    0.587567
     27          6           0        8.797088    1.977530    0.420909
     28          6           0       10.279985    1.647040    0.130813
     29          6           0       10.478960    0.181195    0.409367
     30          6           0        9.069034   -0.261989    0.633014
     31          6           0       10.745625    2.159586   -1.304607
     32          6           0       11.439262   -0.193588    1.583055
     33          6           0       12.723237   -0.926724    1.247283
     34          7           0        6.351297   -1.396712    0.244049
     35          6           0        7.491277   -2.156985    0.566411
     36          6           0        7.054213   -3.515501    0.720159
     37          6           0        5.701731   -3.575270    0.544427
     38          6           0        5.292252   -2.221590    0.266773
     39          6           0        7.860417   -4.773941    1.009780
     40          6           0        4.479726   -4.481233    0.465414
     41          8           0        4.347428   -5.704368    0.606347
     42          6           0        3.345719   -3.467399    0.272017
     43          6           0        2.431286   -3.957162   -0.833686
     44          8           0        2.512201   -3.711552   -2.050659
     45          8           0        1.509633   -4.767450   -0.206584
     46          6           0        0.318760   -5.200982   -0.944232
     47          6           0       -3.575458   -2.993381   -1.043405
     48          6           0       -4.930765   -2.411456   -0.696907
     49          6           0       -6.100161   -3.081154   -0.343833
     50          6           0       -6.336727   -4.566112   -0.242066
     51          6           0       -7.253227   -2.162516    0.018210
     52          6           0       -7.803731   -1.435421   -1.168244
     53          6           0       -8.011191    0.101837   -0.862685
     54          6           0       -9.454148    0.507016   -0.601230
     55          6           0      -10.142746    0.657410   -1.932567
     56          6           0       -9.382549    1.955132    0.066667
     57          6           0       -9.998010    1.860240    1.521361
     58          6           0      -11.068739    2.951676    1.936010
     59          6           0      -12.429359    2.321917    2.550396
     60          6           0      -12.896173    3.056035    3.843288
     61          6           0      -13.564176    2.452442    1.502657
     62          6           0      -13.492469    1.271669    0.406404
     63          6           0      -14.815763    0.443070    0.224940
     64          6           0      -15.537231    0.872352   -1.049313
     65          6           0      -16.939667    1.508494   -0.729070
     66          6           0      -15.688695   -0.329898   -2.057257
     67          1           0        2.560906    3.366366   -0.495062
     68          1           0        9.006504    4.037771    0.236558
     69          1           0        9.613654   -2.301525    0.464565
     70          1           0        1.545473   -1.205385   -1.324319
     71          1           0        0.971580    1.122866    0.417182
     72          1           0        0.383549    2.267085   -1.523996
     73          1           0       -0.074180    0.544320   -1.813510
     74          1           0        1.313297    1.134894   -2.606270
     75          1           0        1.045586   -1.604671    1.606251
     76          1           0        0.537229   -2.482566    0.117434
     77          1           0       -1.102619   -0.204429    0.032320
     78          1           0       -0.919694   -0.695867    1.703542
     79          1           0        4.299600    6.154268   -1.719806
     80          1           0        3.683723    6.382247   -0.005547
     81          1           0        2.918595    5.293689   -1.124302
     82          1           0        7.321427    8.165582   -1.069297
     83          1           0        5.913810    7.580522   -0.317439
     84          1           0        6.084760    7.194590   -2.062420
     85          1           0       10.837982    2.313524    0.788517
     86          1           0       10.893489   -0.174869   -0.533333
     87          1           0        9.845564    2.362139   -1.885713
     88          1           0       11.235960    1.355900   -1.853493
     89          1           0       11.398588    3.032915   -1.299208
     90          1           0       10.872885   -0.804718    2.286370
     91          1           0       11.768863    0.657369    2.178709
     92          1           0       12.844711   -1.058884    0.171500
     93          1           0       12.741070   -1.923048    1.689132
     94          1           0       13.623143   -0.415203    1.589401
     95          1           0        8.609511   -4.367939    1.689466
     96          1           0        8.369734   -5.070743    0.093237
     97          1           0        7.264800   -5.560344    1.474707
     98          1           0        2.780387   -3.455053    1.203437
     99          1           0       -0.584264   -4.711114   -0.581505
    100          1           0        0.012101   -6.218150   -0.700292
    101          1           0        0.520206   -5.295139   -2.011166
    102          1           0       -3.369783   -3.949349   -0.561519
    103          1           0       -3.576777   -3.139802   -2.123606
    104          1           0       -5.015771   -1.324024   -0.706625
    105          1           0       -5.454232   -5.193667   -0.361844
    106          1           0       -7.136531   -4.762215   -0.956255
    107          1           0       -6.637874   -4.666261    0.800722
    108          1           0       -6.875531   -1.563200    0.846924
    109          1           0       -8.067901   -2.813783    0.333629
    110          1           0       -8.750450   -1.837430   -1.526751
    111          1           0       -7.126420   -1.466309   -2.021537
    112          1           0       -7.583293    0.611099   -1.725572
    113          1           0       -7.344908    0.403049   -0.054208
    114          1           0      -10.034909   -0.212668   -0.023480
    115          1           0      -10.487146   -0.333967   -2.224530
    116          1           0       -9.639789    1.200738   -2.732665
    117          1           0      -11.016477    1.274962   -1.725083
    118          1           0       -9.974039    2.619681   -0.562571
    119          1           0       -8.438536    2.498227    0.034989
    120          1           0       -9.146439    2.144598    2.138396
    121          1           0      -10.379581    0.900965    1.872383
    122          1           0      -11.350295    3.483931    1.027637
    123          1           0      -10.592816    3.630237    2.644408
    124          1           0      -12.209235    1.267521    2.717269
    125          1           0      -12.057742    3.558687    4.324863
    126          1           0      -13.109803    2.252443    4.546962
    127          1           0      -13.615505    3.817669    3.541757
    128          1           0      -13.541750    3.359968    0.899779
    129          1           0      -14.602273    2.505325    1.833345
    130          1           0      -12.696269    0.541842    0.554164
    131          1           0      -13.277361    1.680719   -0.581395
    132          1           0      -15.477687    0.524394    1.087579
    133          1           0      -14.583973   -0.620972    0.212579
    134          1           0      -15.006779    1.658432   -1.588182
    135          1           0      -16.887350    2.595134   -0.791766
    136          1           0      -17.234056    1.225641    0.281945
    137          1           0      -17.689036    1.132316   -1.426090
    138          1           0      -16.723014   -0.590145   -2.283084
    139          1           0      -15.346558   -1.285528   -1.658064
    140          1           0      -15.099328   -0.151137   -2.956435
 ---------------------------------------------------------------------

 SCF Done:  E(RB-LYP) =  -3007.34949283     A.U. after   20 cycles

 Excitation energies and oscillator strengths:

 Excited State   1:      Singlet-A      1.8176 eV  682.11 nm  f=0.3012  <S**2>=0.000
     245 -> 248        0.19784
     246 -> 247        0.68492
     246 <- 247       -0.14622
 This state for optimization and/or second-order correction.
 Total Energy, E(TD-HF/TD-DFT) =  -3007.28269548
 Copying the excited state density for this state as the 1-particle RhoCI density.

 Excited State   2:      Singlet-A      1.9586 eV  633.03 nm  f=0.0065  <S**2>=0.000
     244 -> 247        0.69365
     245 -> 247       -0.10499

 Excited State   3:      Singlet-A      2.0532 eV  603.86 nm  f=0.0648  <S**2>=0.000
     244 -> 247        0.10471
     245 -> 247        0.63402
     246 -> 248       -0.26647

 Excited State   4:      Singlet-A      2.1141 eV  586.47 nm  f=0.0003  <S**2>=0.000
     243 -> 247        0.70427

 Excited State   5:      Singlet-A      2.1794 eV  568.90 nm  f=0.0000  <S**2>=0.000
     242 -> 247        0.70708

 The electronic state is 1-A.
 Alpha  occ. eigenvalues --  -46.26137 -18.83009 -18.82158 -18.77102 -18.76808
 Alpha  occ. eigenvalues --  -18.76330 -18.75402 -14.03505 -14.02692 -14.01347
 Alpha  occ. eigenvalues --  -14.00585 -10.04532 -10.04343 -10.00434  -9.99478
 Alpha  occ. eigenvalues --   -9.98498  -9.97446  -9.96863  -9.96753  -9.96299
 Alpha  occ. eigenvalues --   -9.96070  -9.95911  -9.95529  -9.95313  -9.94415
 Alpha  occ. eigenvalues --   -9.94309  -9.94307  -9.94098  -9.93921  -9.93826
 Alpha  occ. eigenvalues --   -9.93795  -9.93263  -9.93216  -9.93150  -9.93111
 Alpha  occ. eigenvalues --   -9.92911  -9.92889  -9.92865  -9.92835  -9.92649
 Alpha  occ. eigenvalues --   -9.92503  -9.92465  -9.92350  -9.92179  -9.92167
 Alpha  occ. eigenvalues --   -9.92087  -9.91978  -9.91924  -9.91904  -9.91771
 Alpha  occ. eigenvalues --   -9.91768  -9.91554  -9.91495  -9.91493  -9.91452
 Alpha  occ. eigenvalues --   -9.91421  -9.91346  -9.91248  -9.91200  -9.91014
 Alpha  occ. eigenvalues --   -9.90971  -9.90802  -9.90710  -9.90697  -9.90664
 Alpha  occ. eigenvalues --   -9.90660  -2.90974  -1.71399  -1.70858  -1.70694
 Alpha  occ. eigenvalues --   -0.98676  -0.96823  -0.93679  -0.90727  -0.90100
 Alpha  occ. eigenvalues --   -0.89225  -0.86225  -0.85500  -0.85406  -0.84547
 Alpha  occ. eigenvalues --   -0.75459  -0.74018  -0.72980  -0.72463  -0.72417
 Alpha  occ. eigenvalues --   -0.71800  -0.71376  -0.70634  -0.70413  -0.70130
 Alpha  occ. eigenvalues --   -0.69731  -0.69532  -0.67945  -0.67429  -0.66982
 Alpha  occ. eigenvalues --   -0.66370  -0.65741  -0.65627  -0.65280  -0.64433
 Alpha  occ. eigenvalues --   -0.64197  -0.62519  -0.62354  -0.61825  -0.60622
 Alpha  occ. eigenvalues --   -0.60532  -0.59798  -0.59634  -0.59290  -0.58855
 Alpha  occ. eigenvalues --   -0.58270  -0.57488  -0.56795  -0.55803  -0.54154
 Alpha  occ. eigenvalues --   -0.53726  -0.53487  -0.53005  -0.52435  -0.51289
 Alpha  occ. eigenvalues --   -0.51194  -0.51071  -0.51021  -0.50363  -0.50252
 Alpha  occ. eigenvalues --   -0.49701  -0.49498  -0.49214  -0.48193  -0.46452
 Alpha  occ. eigenvalues --   -0.46186  -0.46108  -0.45613  -0.45208  -0.44553
 Alpha  occ. eigenvalues --   -0.44221  -0.43867  -0.42682  -0.42482  -0.42334
 Alpha  occ. eigenvalues --   -0.42029  -0.41486  -0.41148  -0.41103  -0.40916
 Alpha  occ. eigenvalues --   -0.40620  -0.40608  -0.40500  -0.40119  -0.39810
 Alpha  occ. eigenvalues --   -0.39774  -0.39595  -0.39347  -0.39292  -0.39031
 Alpha  occ. eigenvalues --   -0.38988  -0.38767  -0.38485  -0.38422  -0.38293
 Alpha  occ. eigenvalues --   -0.38061  -0.37954  -0.37821  -0.37491  -0.37354
 Alpha  occ. eigenvalues --   -0.37215  -0.37031  -0.36786  -0.36665  -0.36538
 Alpha  occ. eigenvalues --   -0.36389  -0.36297  -0.36005  -0.35900  -0.35642
 Alpha  occ. eigenvalues --   -0.35510  -0.35296  -0.35119  -0.35028  -0.34979
 Alpha  occ. eigenvalues --   -0.34831  -0.34577  -0.34417  -0.34368  -0.34077
 Alpha  occ. eigenvalues --   -0.33970  -0.33946  -0.33870  -0.33576  -0.33171
 Alpha  occ. eigenvalues --   -0.32823  -0.32633  -0.32537  -0.32311  -0.32259
 Alpha  occ. eigenvalues --   -0.31919  -0.31662  -0.31653  -0.31597  -0.31463
 Alpha  occ. eigenvalues --   -0.31049  -0.30927  -0.30838  -0.30678  -0.30482
 Alpha  occ. eigenvalues --   -0.30335  -0.30185  -0.29861  -0.29836  -0.29623
 Alpha  occ. eigenvalues --   -0.29352  -0.29303  -0.29232  -0.29027  -0.28871
 Alpha  occ. eigenvalues --   -0.28582  -0.28495  -0.28230  -0.28123  -0.27876
 Alpha  occ. eigenvalues --   -0.27670  -0.27575  -0.27522  -0.26769  -0.26317
 Alpha  occ. eigenvalues --   -0.26091  -0.25912  -0.25611  -0.25367  -0.25309
 Alpha  occ. eigenvalues --   -0.24990  -0.24692  -0.23793  -0.23676  -0.23493
 Alpha  occ. eigenvalues --   -0.23167  -0.22263  -0.21920  -0.21803  -0.21008
 Alpha  occ. eigenvalues --   -0.20516  -0.19458  -0.19106  -0.18559  -0.17345
 Alpha  occ. eigenvalues --   -0.15779
 Alpha virt. eigenvalues --   -0.11449  -0.06873  -0.06112  -0.04619  -0.03115
 Alpha virt. eigenvalues --   -0.03020  -0.02465  -0.01611  -0.00708   0.00249
 Alpha virt. eigenvalues --    0.00716   0.01432   0.02401   0.02447   0.02599

 Mulliken charges:
               1
     1  Mg   0.699310
     2  C    0.047442
     3  C   -0.077042
     4  C   -0.059507
     5  C   -0.103864
     6  N   -0.206309
     7  C   -0.069941
     8  C   -0.031598
     9  C    0.052289
    10  C   -0.009565
    11  C    0.140512
    12  C    0.082367
    13  C    0.151709
    14  C    0.052636
    15  O   -0.208571
    16  O   -0.255354
    17  N   -0.359929
    18  C    0.185082
    19  C   -0.155009
    20  C    0.012683
    21  C    0.150341
    22  C    0.157072
    23  C   -0.092505
    24  O   -0.133910
    25  C    0.148028
    26  N   -0.221402
    27  C    0.032767
    28  C   -0.020950
    29  C    0.068094
    30  C    0.068048
    31  C    0.111165
    32  C    0.105514
    33  C    0.055830
    34  N   -0.265602
    35  C    0.121909
    36  C   -0.224600
    37  C    0.055553
    38  C    0.076745
    39  C    0.180438
    40  C    0.027420
    41  O   -0.132969
    42  C    0.013385
    43  C    0.131034
    44  O   -0.187862
    45  O   -0.271405
    46  C    0.205392
    47  C    0.327636
    48  C   -0.117254
    49  C   -0.208125
    50  C    0.171351
    51  C    0.156342
    52  C    0.079276
    53  C    0.087726
    54  C   -0.058796
    55  C    0.111095
    56  C    0.111430
    57  C    0.056057
    58  C    0.094136
    59  C   -0.088997
    60  C    0.136754
    61  C    0.111742
    62  C    0.009492
    63  C    0.115418
    64  C   -0.103902
    65  C    0.097223
    66  C    0.088804
    67  H   -0.067002
    68  H   -0.036942
    69  H   -0.050339
    70  H   -0.004823
    71  H   -0.024585
    72  H   -0.003636
    73  H   -0.004594
    74  H   -0.006540
    75  H   -0.005491
    76  H    0.006348
    77  H   -0.011459
    78  H   -0.007690
    79  H    0.000530
    80  H    0.010435
    81  H   -0.013752
    82  H   -0.014059
    83  H   -0.019800
    84  H    0.031653
    85  H   -0.033450
    86  H   -0.024265
    87  H   -0.001727
    88  H   -0.020607
    89  H    0.004907
    90  H   -0.024917
    91  H   -0.024212
    92  H   -0.017856
    93  H   -0.008461
    94  H   -0.009964
    95  H   -0.016534
    96  H    0.005002
    97  H    0.017834
    98  H    0.021063
    99  H    0.023212
   100  H   -0.001830
   101  H    0.024858
   102  H    0.009210
   103  H   -0.002378
   104  H   -0.033725
   105  H   -0.015165
   106  H    0.010028
   107  H    0.007213
   108  H    0.002506
   109  H   -0.049849
   110  H   -0.038479
   111  H   -0.029966
   112  H   -0.043804
   113  H   -0.039697
   114  H   -0.026542
   115  H   -0.020081
   116  H   -0.017088
   117  H   -0.025568
   118  H   -0.051275
   119  H   -0.033158
   120  H   -0.035237
   121  H   -0.020242
   122  H   -0.031111
   123  H   -0.030885
   124  H   -0.028107
   125  H   -0.035263
   126  H   -0.011637
   127  H   -0.000469
   128  H   -0.037248
   129  H   -0.034933
   130  H   -0.028310
   131  H   -0.012300
   132  H   -0.033866
   133  H   -0.041461
   134  H   -0.026309
   135  H   -0.013558
   136  H   -0.018997
   137  H   -0.018080
   138  H   -0.021058
   139  H   -0.028381
   140  H   -0.008316
 Sum of Mulliken charges =  -0.00000

 Dipole moment (field-independent basis, Debye):
    X=             -3.8081    Y=              3.2990    Z=             -0.1229  Tot=              5.0398
 Quadrupole moment (field-independent basis, Debye-Ang):
   XX=           -385.1958   YY=           -425.8097   ZZ=           -410.8049
   XY=              6.3316   XZ=              9.3325   YZ=              2.7942

 Normal termination of Gaussian 16 at Wed Apr 27 02:20:55 2022.
