 Gaussian 16, Revision A.03,
 Gaussian 16:  ES64L-G16RevA.03 25-Dec-2016

 -----------------------------------
 #p cam-b3lyp/Def2SVP td=(nstates=5)
 -----------------------------------

 ------------------------------------------------------
 step_101_chromophore_4 TDDFT with cam-b3lyp functional
 ------------------------------------------------------
 Symbolic Z-matrix:
 Charge =  0 Multiplicity = 1

                         Standard orientation:
 ---------------------------------------------------------------------
 Center     Atomic      Atomic             Coordinates (Angstroms)
 Number     Number       Type             X           Y           Z
 ---------------------------------------------------------------------
      1         12           0        6.054767    0.690859    0.186903
      2          6           0        3.950541   -2.085760    0.037419
      3          6           0        3.416625    2.691132   -0.439904
      4          6           0        8.253293    3.247223    0.263832
      5          6           0        8.792724   -1.585747    0.550204
      6          7           0        3.887643    0.331137   -0.207762
      7          6           0        3.252256   -0.879825   -0.068838
      8          6           0        1.686469   -0.738866   -0.349853
      9          6           0        1.503451    0.816579   -0.484021
     10          6           0        2.983922    1.334144   -0.375843
     11          6           0        0.745061    1.250717   -1.683453
     12          6           0        0.661375   -1.508452    0.590865
     13          6           0       -0.796587   -1.030762    0.672943
     14          6           0       -1.862799   -2.146160    0.416082
     15          8           0       -2.049953   -3.066553    1.203191
     16          8           0       -2.516942   -2.022444   -0.765729
     17          7           0        5.866651    2.595121   -0.132482
     18          6           0        4.699998    3.279201   -0.247106
     19          6           0        4.986178    4.680305   -0.421646
     20          6           0        6.423535    4.866144   -0.373318
     21          6           0        6.905158    3.522370   -0.020517
     22          6           0        3.886996    5.691353   -0.823631
     23          6           0        7.240149    6.110186   -0.572712
     24          8           0        8.427616    6.122646   -0.548796
     25          6           0        6.612875    7.339432   -1.118809
     26          7           0        8.172891    0.773402    0.587567
     27          6           0        8.797088    1.977530    0.420909
     28          6           0       10.279985    1.647040    0.130813
     29          6           0       10.478960    0.181195    0.409367
     30          6           0        9.069034   -0.261989    0.633014
     31          6           0       10.745625    2.159586   -1.304607
     32          6           0       11.439262   -0.193588    1.583055
     33          6           0       12.723237   -0.926724    1.247283
     34          7           0        6.351297   -1.396712    0.244049
     35          6           0        7.491277   -2.156985    0.566411
     36          6           0        7.054213   -3.515501    0.720159
     37          6           0        5.701731   -3.575270    0.544427
     38          6           0        5.292252   -2.221590    0.266773
     39          6           0        7.860417   -4.773941    1.009780
     40          6           0        4.479726   -4.481233    0.465414
     41          8           0        4.347428   -5.704368    0.606347
     42          6           0        3.345719   -3.467399    0.272017
     43          6           0        2.431286   -3.957162   -0.833686
     44          8           0        2.512201   -3.711552   -2.050659
     45          8           0        1.509633   -4.767450   -0.206584
     46          6           0        0.318760   -5.200982   -0.944232
     47          6           0       -3.575458   -2.993381   -1.043405
     48          6           0       -4.930765   -2.411456   -0.696907
     49          6           0       -6.100161   -3.081154   -0.343833
     50          6           0       -6.336727   -4.566112   -0.242066
     51          6           0       -7.253227   -2.162516    0.018210
     52          6           0       -7.803731   -1.435421   -1.168244
     53          6           0       -8.011191    0.101837   -0.862685
     54          6           0       -9.454148    0.507016   -0.601230
     55          6           0      -10.142746    0.657410   -1.932567
     56          6           0       -9.382549    1.955132    0.066667
     57          6           0       -9.998010    1.860240    1.521361
     58          6           0      -11.068739    2.951676    1.936010
     59          6           0      -12.429359    2.321917    2.550396
     60          6           0      -12.896173    3.056035    3.843288
     61          6           0      -13.564176    2.452442    1.502657
     62          6           0      -13.492469    1.271669    0.406404
     63          6           0      -14.815763    0.443070    0.224940
     64          6           0      -15.537231    0.872352   -1.049313
     65          6           0      -16.939667    1.508494   -0.729070
     66          6           0      -15.688695   -0.329898   -2.057257
     67          1           0        2.560906    3.366366   -0.495062
     68          1           0        9.006504    4.037771    0.236558
     69          1           0        9.613654   -2.301525    0.464565
     70          1           0        1.545473   -1.205385   -1.324319
     71          1           0        0.971580    1.122866    0.417182
     72          1           0        0.383549    2.267085   -1.523996
     73          1           0       -0.074180    0.544320   -1.813510
     74          1           0        1.313297    1.134894   -2.606270
     75          1           0        1.045586   -1.604671    1.606251
     76          1           0        0.537229   -2.482566    0.117434
     77          1           0       -1.102619   -0.204429    0.032320
     78          1           0       -0.919694   -0.695867    1.703542
     79          1           0        4.299600    6.154268   -1.719806
     80          1           0        3.683723    6.382247   -0.005547
     81          1           0        2.918595    5.293689   -1.124302
     82          1           0        7.321427    8.165582   -1.069297
     83          1           0        5.913810    7.580522   -0.317439
     84          1           0        6.084760    7.194590   -2.062420
     85          1           0       10.837982    2.313524    0.788517
     86          1           0       10.893489   -0.174869   -0.533333
     87          1           0        9.845564    2.362139   -1.885713
     88          1           0       11.235960    1.355900   -1.853493
     89          1           0       11.398588    3.032915   -1.299208
     90          1           0       10.872885   -0.804718    2.286370
     91          1           0       11.768863    0.657369    2.178709
     92          1           0       12.844711   -1.058884    0.171500
     93          1           0       12.741070   -1.923048    1.689132
     94          1           0       13.623143   -0.415203    1.589401
     95          1           0        8.609511   -4.367939    1.689466
     96          1           0        8.369734   -5.070743    0.093237
     97          1           0        7.264800   -5.560344    1.474707
     98          1           0        2.780387   -3.455053    1.203437
     99          1           0       -0.584264   -4.711114   -0.581505
    100          1           0        0.012101   -6.218150   -0.700292
    101          1           0        0.520206   -5.295139   -2.011166
    102          1           0       -3.369783   -3.949349   -0.561519
    103          1           0       -3.576777   -3.139802   -2.123606
    104          1           0       -5.015771   -1.324024   -0.706625
    105          1           0       -5.454232   -5.193667   -0.361844
    106          1           0       -7.136531   -4.762215   -0.956255
    107          1           0       -6.637874   -4.666261    0.800722
    108          1           0       -6.875531   -1.563200    0.846924
    109          1           0       -8.067901   -2.813783    0.333629
    110          1           0       -8.750450   -1.837430   -1.526751
    111          1           0       -7.126420   -1.466309   -2.021537
    112          1           0       -7.583293    0.611099   -1.725572
    113          1           0       -7.344908    0.403049   -0.054208
    114          1           0      -10.034909   -0.212668   -0.023480
    115          1           0      -10.487146   -0.333967   -2.224530
    116          1           0       -9.639789    1.200738   -2.732665
    117          1           0      -11.016477    1.274962   -1.725083
    118          1           0       -9.974039    2.619681   -0.562571
    119          1           0       -8.438536    2.498227    0.034989
    120          1           0       -9.146439    2.144598    2.138396
    121          1           0      -10.379581    0.900965    1.872383
    122          1           0      -11.350295    3.483931    1.027637
    123          1           0      -10.592816    3.630237    2.644408
    124          1           0      -12.209235    1.267521    2.717269
    125          1           0      -12.057742    3.558687    4.324863
    126          1           0      -13.109803    2.252443    4.546962
    127          1           0      -13.615505    3.817669    3.541757
    128          1           0      -13.541750    3.359968    0.899779
    129          1           0      -14.602273    2.505325    1.833345
    130          1           0      -12.696269    0.541842    0.554164
    131          1           0      -13.277361    1.680719   -0.581395
    132          1           0      -15.477687    0.524394    1.087579
    133          1           0      -14.583973   -0.620972    0.212579
    134          1           0      -15.006779    1.658432   -1.588182
    135          1           0      -16.887350    2.595134   -0.791766
    136          1           0      -17.234056    1.225641    0.281945
    137          1           0      -17.689036    1.132316   -1.426090
    138          1           0      -16.723014   -0.590145   -2.283084
    139          1           0      -15.346558   -1.285528   -1.658064
    140          1           0      -15.099328   -0.151137   -2.956435
 ---------------------------------------------------------------------

 SCF Done:  E(RCAM-B3LYP) =  -3007.14126042     A.U. after   17 cycles

 Excitation energies and oscillator strengths:

 Excited State   1:      Singlet-A      1.7112 eV  724.54 nm  f=0.3735  <S**2>=0.000
     245 -> 248       -0.18863
     246 -> 247        0.68416
     245 <- 248       -0.11115
 This state for optimization and/or second-order correction.
 Total Energy, E(TD-HF/TD-DFT) =  -3007.07837410
 Copying the excited state density for this state as the 1-particle RhoCI density.

 Excited State   2:      Singlet-A      2.2645 eV  547.52 nm  f=0.0947  <S**2>=0.000
     245 -> 247        0.63090
     246 -> 248        0.31121

 Excited State   3:      Singlet-A      3.4869 eV  355.57 nm  f=0.1922  <S**2>=0.000
     243 -> 247        0.57162
     245 -> 247        0.15384
     246 -> 248       -0.37188

 Excited State   4:      Singlet-A      3.5355 eV  350.68 nm  f=0.3824  <S**2>=0.000
     242 -> 247       -0.39029
     243 -> 247        0.31380
     245 -> 247       -0.20761
     246 -> 248        0.43922

 Excited State   5:      Singlet-A      3.6313 eV  341.44 nm  f=0.0179  <S**2>=0.000
     239 -> 247        0.17679
     239 -> 249       -0.12502
     240 -> 247        0.51200
     240 -> 249       -0.30720
     240 -> 250        0.20419

 The electronic state is 1-A.
 Alpha  occ. eigenvalues --  -46.87596 -19.25927 -19.25123 -19.20248 -19.19831
 Alpha  occ. eigenvalues --  -19.19569 -19.18713 -14.42518 -14.41420 -14.39858
 Alpha  occ. eigenvalues --  -14.38965 -10.39960 -10.39876 -10.35857 -10.34647
 Alpha  occ. eigenvalues --  -10.32575 -10.31479 -10.31479 -10.31216 -10.30936
 Alpha  occ. eigenvalues --  -10.30616 -10.30371 -10.29684 -10.29397 -10.29173
 Alpha  occ. eigenvalues --  -10.28595 -10.28398 -10.28297 -10.28205 -10.27908
 Alpha  occ. eigenvalues --  -10.27891 -10.27486 -10.27438 -10.27392 -10.27392
 Alpha  occ. eigenvalues --  -10.27302 -10.26824 -10.26736 -10.26581 -10.26562
 Alpha  occ. eigenvalues --  -10.26248 -10.26247 -10.26229 -10.26084 -10.25902
 Alpha  occ. eigenvalues --  -10.25895 -10.25770 -10.25703 -10.25650 -10.25541
 Alpha  occ. eigenvalues --  -10.25449 -10.25371 -10.25235 -10.25221 -10.25125
 Alpha  occ. eigenvalues --  -10.25022 -10.24991 -10.24989 -10.24949 -10.24721
 Alpha  occ. eigenvalues --  -10.24719 -10.24553 -10.24467 -10.24329 -10.24317
 Alpha  occ. eigenvalues --  -10.24257  -3.16350  -1.91249  -1.90799  -1.90679
 Alpha  occ. eigenvalues --   -1.17170  -1.15347  -1.12282  -1.09108  -1.08027
 Alpha  occ. eigenvalues --   -1.07201  -1.03947  -1.03148  -1.03008  -1.02026
 Alpha  occ. eigenvalues --   -0.92592  -0.90923  -0.89835  -0.89181  -0.89124
 Alpha  occ. eigenvalues --   -0.88501  -0.87966  -0.87212  -0.86975  -0.86943
 Alpha  occ. eigenvalues --   -0.86172  -0.85950  -0.84134  -0.83570  -0.83070
 Alpha  occ. eigenvalues --   -0.82359  -0.82018  -0.81507  -0.81149  -0.80363
 Alpha  occ. eigenvalues --   -0.80047  -0.78285  -0.78002  -0.77365  -0.75989
 Alpha  occ. eigenvalues --   -0.75931  -0.75148  -0.74891  -0.74561  -0.74069
 Alpha  occ. eigenvalues --   -0.73340  -0.72494  -0.71706  -0.70655  -0.68675
 Alpha  occ. eigenvalues --   -0.68354  -0.68074  -0.67534  -0.66853  -0.65413
 Alpha  occ. eigenvalues --   -0.65368  -0.65212  -0.64940  -0.64326  -0.64298
 Alpha  occ. eigenvalues --   -0.63691  -0.63381  -0.63114  -0.61877  -0.60104
 Alpha  occ. eigenvalues --   -0.59690  -0.59635  -0.59271  -0.58572  -0.57959
 Alpha  occ. eigenvalues --   -0.57724  -0.57323  -0.55995  -0.55728  -0.55395
 Alpha  occ. eigenvalues --   -0.55337  -0.54639  -0.54376  -0.54247  -0.53736
 Alpha  occ. eigenvalues --   -0.53545  -0.53284  -0.53147  -0.52912  -0.52836
 Alpha  occ. eigenvalues --   -0.52434  -0.52097  -0.51837  -0.51725  -0.51393
 Alpha  occ. eigenvalues --   -0.51358  -0.51245  -0.51206  -0.50834  -0.50759
 Alpha  occ. eigenvalues --   -0.50498  -0.50418  -0.50260  -0.50002  -0.49759
 Alpha  occ. eigenvalues --   -0.49625  -0.49436  -0.49335  -0.49087  -0.49082
 Alpha  occ. eigenvalues --   -0.48889  -0.48654  -0.48272  -0.48221  -0.47820
 Alpha  occ. eigenvalues --   -0.47470  -0.47289  -0.47146  -0.46961  -0.46802
 Alpha  occ. eigenvalues --   -0.46619  -0.46539  -0.46267  -0.46150  -0.45959
 Alpha  occ. eigenvalues --   -0.45850  -0.45704  -0.45685  -0.45425  -0.45070
 Alpha  occ. eigenvalues --   -0.44568  -0.44232  -0.44075  -0.44057  -0.44021
 Alpha  occ. eigenvalues --   -0.43609  -0.43284  -0.43183  -0.43181  -0.42951
 Alpha  occ. eigenvalues --   -0.42695  -0.42557  -0.42438  -0.42031  -0.41826
 Alpha  occ. eigenvalues --   -0.41676  -0.41658  -0.41397  -0.41016  -0.40889
 Alpha  occ. eigenvalues --   -0.40660  -0.40548  -0.40437  -0.40348  -0.40211
 Alpha  occ. eigenvalues --   -0.39751  -0.39618  -0.39343  -0.39185  -0.38819
 Alpha  occ. eigenvalues --   -0.38609  -0.38493  -0.38447  -0.37582  -0.37577
 Alpha  occ. eigenvalues --   -0.36867  -0.36742  -0.36613  -0.36234  -0.36128
 Alpha  occ. eigenvalues --   -0.36050  -0.35602  -0.34568  -0.34211  -0.34181
 Alpha  occ. eigenvalues --   -0.33905  -0.33777  -0.32890  -0.31393  -0.31012
 Alpha  occ. eigenvalues --   -0.30914  -0.30518  -0.29792  -0.29002  -0.24105
 Alpha  occ. eigenvalues --   -0.21062
 Alpha virt. eigenvalues --   -0.08486  -0.01769   0.00461   0.02358   0.03915
 Alpha virt. eigenvalues --    0.04563   0.04820   0.04946   0.05501   0.06619
 Alpha virt. eigenvalues --    0.07742   0.08586   0.08625   0.08891   0.08954

 Mulliken charges:
               1
     1  Mg   0.834505
     2  C    0.030902
     3  C   -0.089002
     4  C   -0.082208
     5  C   -0.103314
     6  N   -0.274978
     7  C   -0.023197
     8  C   -0.074111
     9  C   -0.007290
    10  C    0.011019
    11  C    0.080546
    12  C    0.032496
    13  C    0.084896
    14  C    0.130930
    15  O   -0.248390
    16  O   -0.320292
    17  N   -0.451102
    18  C    0.194664
    19  C   -0.160192
    20  C   -0.054371
    21  C    0.175376
    22  C    0.101581
    23  C   -0.013402
    24  O   -0.173320
    25  C    0.062661
    26  N   -0.296279
    27  C    0.058409
    28  C   -0.075361
    29  C    0.002826
    30  C    0.086082
    31  C    0.054246
    32  C    0.050065
    33  C   -0.005644
    34  N   -0.349692
    35  C    0.119414
    36  C   -0.225596
    37  C   -0.019428
    38  C    0.102731
    39  C    0.129677
    40  C    0.132925
    41  O   -0.170198
    42  C   -0.070611
    43  C    0.214742
    44  O   -0.225033
    45  O   -0.334808
    46  C    0.172873
    47  C    0.293253
    48  C   -0.138789
    49  C   -0.224002
    50  C    0.108565
    51  C    0.091345
    52  C    0.023817
    53  C    0.036388
    54  C   -0.118525
    55  C    0.056506
    56  C    0.060029
    57  C   -0.002877
    58  C    0.048943
    59  C   -0.144212
    60  C    0.075914
    61  C    0.056855
    62  C   -0.035373
    63  C    0.061234
    64  C   -0.168220
    65  C    0.043490
    66  C    0.032525
    67  H   -0.033743
    68  H    0.005463
    69  H   -0.015879
    70  H    0.029971
    71  H    0.009719
    72  H    0.020195
    73  H    0.019069
    74  H    0.021108
    75  H    0.024806
    76  H    0.030311
    77  H    0.020432
    78  H    0.027134
    79  H    0.024911
    80  H    0.036916
    81  H    0.015713
    82  H    0.022515
    83  H    0.007857
    84  H    0.057647
    85  H    0.001666
    86  H    0.010760
    87  H    0.023329
    88  H    0.003536
    89  H    0.028766
    90  H    0.006405
    91  H    0.004848
    92  H    0.004944
    93  H    0.014672
    94  H    0.014063
    95  H    0.006852
    96  H    0.030444
    97  H    0.043939
    98  H    0.063960
    99  H    0.037423
   100  H    0.022177
   101  H    0.051108
   102  H    0.038082
   103  H    0.026866
   104  H   -0.001445
   105  H    0.009887
   106  H    0.032491
   107  H    0.030956
   108  H    0.032872
   109  H   -0.017353
   110  H   -0.010152
   111  H    0.001828
   112  H   -0.013786
   113  H   -0.012095
   114  H    0.003285
   115  H    0.003707
   116  H    0.008310
   117  H   -0.004011
   118  H   -0.022056
   119  H   -0.003351
   120  H   -0.005626
   121  H    0.004830
   122  H   -0.005553
   123  H   -0.002392
   124  H    0.002308
   125  H   -0.009849
   126  H    0.013062
   127  H    0.022543
   128  H   -0.008279
   129  H   -0.006002
   130  H   -0.005295
   131  H    0.010177
   132  H   -0.005955
   133  H   -0.010756
   134  H    0.005360
   135  H    0.009555
   136  H    0.003402
   137  H    0.005691
   138  H    0.002807
   139  H   -0.004589
   140  H    0.014875
 Sum of Mulliken charges =  -0.00000

 Dipole moment (field-independent basis, Debye):
    X=             -4.1182    Y=              4.0080    Z=             -0.2408  Tot=              5.7516
 Quadrupole moment (field-independent basis, Debye-Ang):
   XX=           -385.5237   YY=           -421.2336   ZZ=           -411.4201
   XY=              9.8599   XZ=              9.8368   YZ=              2.5201

 Normal termination of Gaussian 16 at Wed Apr 27 01:22:14 2022.
