 Gaussian 16, Revision A.03,
 Gaussian 16:  ES64L-G16RevA.03 25-Dec-2016

 ---------------------------------
 #p PBE1PBE/Def2SVP td=(nstates=5)
 ---------------------------------

 ----------------------------------------------------
 step_101_chromophore_4 TDDFT with PBE1PBE functional
 ----------------------------------------------------
 Symbolic Z-matrix:
 Charge =  0 Multiplicity = 1

                         Standard orientation:
 ---------------------------------------------------------------------
 Center     Atomic      Atomic             Coordinates (Angstroms)
 Number     Number       Type             X           Y           Z
 ---------------------------------------------------------------------
      1         12           0        6.054767    0.690859    0.186903
      2          6           0        3.950541   -2.085760    0.037419
      3          6           0        3.416625    2.691132   -0.439904
      4          6           0        8.253293    3.247223    0.263832
      5          6           0        8.792724   -1.585747    0.550204
      6          7           0        3.887643    0.331137   -0.207762
      7          6           0        3.252256   -0.879825   -0.068838
      8          6           0        1.686469   -0.738866   -0.349853
      9          6           0        1.503451    0.816579   -0.484021
     10          6           0        2.983922    1.334144   -0.375843
     11          6           0        0.745061    1.250717   -1.683453
     12          6           0        0.661375   -1.508452    0.590865
     13          6           0       -0.796587   -1.030762    0.672943
     14          6           0       -1.862799   -2.146160    0.416082
     15          8           0       -2.049953   -3.066553    1.203191
     16          8           0       -2.516942   -2.022444   -0.765729
     17          7           0        5.866651    2.595121   -0.132482
     18          6           0        4.699998    3.279201   -0.247106
     19          6           0        4.986178    4.680305   -0.421646
     20          6           0        6.423535    4.866144   -0.373318
     21          6           0        6.905158    3.522370   -0.020517
     22          6           0        3.886996    5.691353   -0.823631
     23          6           0        7.240149    6.110186   -0.572712
     24          8           0        8.427616    6.122646   -0.548796
     25          6           0        6.612875    7.339432   -1.118809
     26          7           0        8.172891    0.773402    0.587567
     27          6           0        8.797088    1.977530    0.420909
     28          6           0       10.279985    1.647040    0.130813
     29          6           0       10.478960    0.181195    0.409367
     30          6           0        9.069034   -0.261989    0.633014
     31          6           0       10.745625    2.159586   -1.304607
     32          6           0       11.439262   -0.193588    1.583055
     33          6           0       12.723237   -0.926724    1.247283
     34          7           0        6.351297   -1.396712    0.244049
     35          6           0        7.491277   -2.156985    0.566411
     36          6           0        7.054213   -3.515501    0.720159
     37          6           0        5.701731   -3.575270    0.544427
     38          6           0        5.292252   -2.221590    0.266773
     39          6           0        7.860417   -4.773941    1.009780
     40          6           0        4.479726   -4.481233    0.465414
     41          8           0        4.347428   -5.704368    0.606347
     42          6           0        3.345719   -3.467399    0.272017
     43          6           0        2.431286   -3.957162   -0.833686
     44          8           0        2.512201   -3.711552   -2.050659
     45          8           0        1.509633   -4.767450   -0.206584
     46          6           0        0.318760   -5.200982   -0.944232
     47          6           0       -3.575458   -2.993381   -1.043405
     48          6           0       -4.930765   -2.411456   -0.696907
     49          6           0       -6.100161   -3.081154   -0.343833
     50          6           0       -6.336727   -4.566112   -0.242066
     51          6           0       -7.253227   -2.162516    0.018210
     52          6           0       -7.803731   -1.435421   -1.168244
     53          6           0       -8.011191    0.101837   -0.862685
     54          6           0       -9.454148    0.507016   -0.601230
     55          6           0      -10.142746    0.657410   -1.932567
     56          6           0       -9.382549    1.955132    0.066667
     57          6           0       -9.998010    1.860240    1.521361
     58          6           0      -11.068739    2.951676    1.936010
     59          6           0      -12.429359    2.321917    2.550396
     60          6           0      -12.896173    3.056035    3.843288
     61          6           0      -13.564176    2.452442    1.502657
     62          6           0      -13.492469    1.271669    0.406404
     63          6           0      -14.815763    0.443070    0.224940
     64          6           0      -15.537231    0.872352   -1.049313
     65          6           0      -16.939667    1.508494   -0.729070
     66          6           0      -15.688695   -0.329898   -2.057257
     67          1           0        2.560906    3.366366   -0.495062
     68          1           0        9.006504    4.037771    0.236558
     69          1           0        9.613654   -2.301525    0.464565
     70          1           0        1.545473   -1.205385   -1.324319
     71          1           0        0.971580    1.122866    0.417182
     72          1           0        0.383549    2.267085   -1.523996
     73          1           0       -0.074180    0.544320   -1.813510
     74          1           0        1.313297    1.134894   -2.606270
     75          1           0        1.045586   -1.604671    1.606251
     76          1           0        0.537229   -2.482566    0.117434
     77          1           0       -1.102619   -0.204429    0.032320
     78          1           0       -0.919694   -0.695867    1.703542
     79          1           0        4.299600    6.154268   -1.719806
     80          1           0        3.683723    6.382247   -0.005547
     81          1           0        2.918595    5.293689   -1.124302
     82          1           0        7.321427    8.165582   -1.069297
     83          1           0        5.913810    7.580522   -0.317439
     84          1           0        6.084760    7.194590   -2.062420
     85          1           0       10.837982    2.313524    0.788517
     86          1           0       10.893489   -0.174869   -0.533333
     87          1           0        9.845564    2.362139   -1.885713
     88          1           0       11.235960    1.355900   -1.853493
     89          1           0       11.398588    3.032915   -1.299208
     90          1           0       10.872885   -0.804718    2.286370
     91          1           0       11.768863    0.657369    2.178709
     92          1           0       12.844711   -1.058884    0.171500
     93          1           0       12.741070   -1.923048    1.689132
     94          1           0       13.623143   -0.415203    1.589401
     95          1           0        8.609511   -4.367939    1.689466
     96          1           0        8.369734   -5.070743    0.093237
     97          1           0        7.264800   -5.560344    1.474707
     98          1           0        2.780387   -3.455053    1.203437
     99          1           0       -0.584264   -4.711114   -0.581505
    100          1           0        0.012101   -6.218150   -0.700292
    101          1           0        0.520206   -5.295139   -2.011166
    102          1           0       -3.369783   -3.949349   -0.561519
    103          1           0       -3.576777   -3.139802   -2.123606
    104          1           0       -5.015771   -1.324024   -0.706625
    105          1           0       -5.454232   -5.193667   -0.361844
    106          1           0       -7.136531   -4.762215   -0.956255
    107          1           0       -6.637874   -4.666261    0.800722
    108          1           0       -6.875531   -1.563200    0.846924
    109          1           0       -8.067901   -2.813783    0.333629
    110          1           0       -8.750450   -1.837430   -1.526751
    111          1           0       -7.126420   -1.466309   -2.021537
    112          1           0       -7.583293    0.611099   -1.725572
    113          1           0       -7.344908    0.403049   -0.054208
    114          1           0      -10.034909   -0.212668   -0.023480
    115          1           0      -10.487146   -0.333967   -2.224530
    116          1           0       -9.639789    1.200738   -2.732665
    117          1           0      -11.016477    1.274962   -1.725083
    118          1           0       -9.974039    2.619681   -0.562571
    119          1           0       -8.438536    2.498227    0.034989
    120          1           0       -9.146439    2.144598    2.138396
    121          1           0      -10.379581    0.900965    1.872383
    122          1           0      -11.350295    3.483931    1.027637
    123          1           0      -10.592816    3.630237    2.644408
    124          1           0      -12.209235    1.267521    2.717269
    125          1           0      -12.057742    3.558687    4.324863
    126          1           0      -13.109803    2.252443    4.546962
    127          1           0      -13.615505    3.817669    3.541757
    128          1           0      -13.541750    3.359968    0.899779
    129          1           0      -14.602273    2.505325    1.833345
    130          1           0      -12.696269    0.541842    0.554164
    131          1           0      -13.277361    1.680719   -0.581395
    132          1           0      -15.477687    0.524394    1.087579
    133          1           0      -14.583973   -0.620972    0.212579
    134          1           0      -15.006779    1.658432   -1.588182
    135          1           0      -16.887350    2.595134   -0.791766
    136          1           0      -17.234056    1.225641    0.281945
    137          1           0      -17.689036    1.132316   -1.426090
    138          1           0      -16.723014   -0.590145   -2.283084
    139          1           0      -15.346558   -1.285528   -1.658064
    140          1           0      -15.099328   -0.151137   -2.956435
 ---------------------------------------------------------------------

 SCF Done:  E(RPBE1PBE) =  -3005.32898618     A.U. after   15 cycles

 Excitation energies and oscillator strengths:

 Excited State   1:      Singlet-A      1.8672 eV  664.03 nm  f=0.3647  <S**2>=0.000
     245 -> 248       -0.18120
     246 -> 247        0.69136
     246 <- 247       -0.10454
 This state for optimization and/or second-order correction.
 Total Energy, E(TD-HF/TD-DFT) =  -3005.26036939
 Copying the excited state density for this state as the 1-particle RhoCI density.

 Excited State   2:      Singlet-A      2.2711 eV  545.93 nm  f=0.0944  <S**2>=0.000
     245 -> 247        0.64300
     246 -> 248        0.28605

 Excited State   3:      Singlet-A      3.0959 eV  400.48 nm  f=0.0001  <S**2>=0.000
     242 -> 247        0.59959
     242 -> 249        0.13419
     243 -> 247        0.31747

 Excited State   4:      Singlet-A      3.1416 eV  394.65 nm  f=0.0013  <S**2>=0.000
     241 -> 247        0.42220
     241 -> 249       -0.11555
     242 -> 247       -0.24729
     243 -> 247        0.46573

 Excited State   5:      Singlet-A      3.1652 eV  391.71 nm  f=0.0014  <S**2>=0.000
     240 -> 247        0.18018
     241 -> 247        0.48160
     241 -> 249       -0.12691
     242 -> 247        0.19005
     243 -> 247       -0.39713
     246 -> 248        0.10418

 The electronic state is 1-A.
 Alpha  occ. eigenvalues --  -46.91009 -19.26636 -19.25799 -19.20486 -19.20132
 Alpha  occ. eigenvalues --  -19.19826 -19.18844 -14.41983 -14.41005 -14.39492
 Alpha  occ. eigenvalues --  -14.38676 -10.36989 -10.36947 -10.33057 -10.31685
 Alpha  occ. eigenvalues --  -10.29990 -10.29162 -10.29056 -10.28716 -10.28521
 Alpha  occ. eigenvalues --  -10.28270 -10.27960 -10.27489 -10.27263 -10.26729
 Alpha  occ. eigenvalues --  -10.26425 -10.26123 -10.25930 -10.25710 -10.25686
 Alpha  occ. eigenvalues --  -10.25499 -10.25158 -10.25142 -10.25040 -10.25021
 Alpha  occ. eigenvalues --  -10.24652 -10.24634 -10.24563 -10.24447 -10.23979
 Alpha  occ. eigenvalues --  -10.23932 -10.23930 -10.23768 -10.23662 -10.23604
 Alpha  occ. eigenvalues --  -10.23507 -10.23440 -10.23403 -10.23058 -10.22994
 Alpha  occ. eigenvalues --  -10.22881 -10.22870 -10.22862 -10.22812 -10.22714
 Alpha  occ. eigenvalues --  -10.22588 -10.22583 -10.22559 -10.22531 -10.22440
 Alpha  occ. eigenvalues --  -10.22302 -10.22042 -10.21956 -10.21745 -10.21725
 Alpha  occ. eigenvalues --  -10.21660  -3.13338  -1.86179  -1.85707  -1.85591
 Alpha  occ. eigenvalues --   -1.12013  -1.10103  -1.06978  -1.03869  -1.02907
 Alpha  occ. eigenvalues --   -1.02005  -0.98556  -0.97755  -0.97674  -0.96717
 Alpha  occ. eigenvalues --   -0.86973  -0.85046  -0.84012  -0.83472  -0.83285
 Alpha  occ. eigenvalues --   -0.82603  -0.82293  -0.81520  -0.81109  -0.81085
 Alpha  occ. eigenvalues --   -0.80584  -0.80224  -0.78384  -0.77875  -0.77334
 Alpha  occ. eigenvalues --   -0.76562  -0.76146  -0.75805  -0.75354  -0.74679
 Alpha  occ. eigenvalues --   -0.74174  -0.72527  -0.72296  -0.71686  -0.70294
 Alpha  occ. eigenvalues --   -0.70159  -0.69252  -0.69238  -0.68708  -0.68254
 Alpha  occ. eigenvalues --   -0.67648  -0.66962  -0.66113  -0.64996  -0.63035
 Alpha  occ. eigenvalues --   -0.62754  -0.62369  -0.61996  -0.61077  -0.59846
 Alpha  occ. eigenvalues --   -0.59702  -0.59517  -0.59504  -0.58903  -0.58463
 Alpha  occ. eigenvalues --   -0.57921  -0.57737  -0.57355  -0.56479  -0.54641
 Alpha  occ. eigenvalues --   -0.54252  -0.54063  -0.53746  -0.53185  -0.52412
 Alpha  occ. eigenvalues --   -0.52249  -0.51853  -0.50527  -0.50182  -0.49917
 Alpha  occ. eigenvalues --   -0.49824  -0.49267  -0.48952  -0.48851  -0.48351
 Alpha  occ. eigenvalues --   -0.47972  -0.47754  -0.47596  -0.47477  -0.47253
 Alpha  occ. eigenvalues --   -0.46926  -0.46759  -0.46353  -0.46302  -0.45945
 Alpha  occ. eigenvalues --   -0.45902  -0.45789  -0.45750  -0.45422  -0.45294
 Alpha  occ. eigenvalues --   -0.45065  -0.44974  -0.44826  -0.44562  -0.44326
 Alpha  occ. eigenvalues --   -0.44230  -0.44023  -0.43868  -0.43721  -0.43675
 Alpha  occ. eigenvalues --   -0.43476  -0.43253  -0.42897  -0.42848  -0.42400
 Alpha  occ. eigenvalues --   -0.42125  -0.41901  -0.41802  -0.41648  -0.41505
 Alpha  occ. eigenvalues --   -0.41298  -0.41237  -0.40969  -0.40724  -0.40660
 Alpha  occ. eigenvalues --   -0.40631  -0.40436  -0.40306  -0.40143  -0.39842
 Alpha  occ. eigenvalues --   -0.39307  -0.38910  -0.38838  -0.38785  -0.38741
 Alpha  occ. eigenvalues --   -0.38412  -0.38093  -0.38012  -0.37974  -0.37785
 Alpha  occ. eigenvalues --   -0.37493  -0.37276  -0.37217  -0.36801  -0.36587
 Alpha  occ. eigenvalues --   -0.36471  -0.36425  -0.36206  -0.35901  -0.35770
 Alpha  occ. eigenvalues --   -0.35548  -0.35360  -0.35282  -0.35244  -0.35120
 Alpha  occ. eigenvalues --   -0.34682  -0.34413  -0.34252  -0.33989  -0.33592
 Alpha  occ. eigenvalues --   -0.33444  -0.33392  -0.33245  -0.32576  -0.32356
 Alpha  occ. eigenvalues --   -0.31870  -0.31789  -0.31448  -0.31268  -0.31103
 Alpha  occ. eigenvalues --   -0.30968  -0.30461  -0.29515  -0.29229  -0.29158
 Alpha  occ. eigenvalues --   -0.28845  -0.28773  -0.28454  -0.27021  -0.26105
 Alpha  occ. eigenvalues --   -0.25948  -0.25585  -0.25467  -0.24314  -0.21041
 Alpha  occ. eigenvalues --   -0.18706
 Alpha virt. eigenvalues --   -0.11002  -0.05243  -0.03792  -0.02036  -0.00030
 Alpha virt. eigenvalues --    0.00126   0.00485   0.01103   0.01578   0.03156
 Alpha virt. eigenvalues --    0.03391   0.04587   0.05243   0.05352   0.05518

 Mulliken charges:
               1
     1  Mg   0.991125
     2  C    0.031087
     3  C   -0.085847
     4  C   -0.064943
     5  C   -0.085647
     6  N   -0.379616
     7  C    0.060845
     8  C   -0.132986
     9  C   -0.095503
    10  C    0.056942
    11  C    0.021261
    12  C   -0.035031
    13  C    0.014686
    14  C    0.194505
    15  O   -0.279396
    16  O   -0.352319
    17  N   -0.570716
    18  C    0.217147
    19  C   -0.186817
    20  C   -0.096808
    21  C    0.193067
    22  C    0.040777
    23  C    0.036301
    24  O   -0.211445
    25  C   -0.014902
    26  N   -0.403314
    27  C    0.090468
    28  C   -0.143161
    29  C   -0.085091
    30  C    0.117995
    31  C   -0.004340
    32  C   -0.003569
    33  C   -0.076571
    34  N   -0.472409
    35  C    0.140297
    36  C   -0.255369
    37  C   -0.053255
    38  C    0.136202
    39  C    0.075201
    40  C    0.229891
    41  O   -0.215944
    42  C   -0.176991
    43  C    0.292538
    44  O   -0.260634
    45  O   -0.364612
    46  C    0.115225
    47  C    0.248340
    48  C   -0.147102
    49  C   -0.262188
    50  C    0.039069
    51  C    0.024041
    52  C   -0.035341
    53  C   -0.013552
    54  C   -0.213426
    55  C   -0.004312
    56  C    0.012284
    57  C   -0.069250
    58  C    0.003665
    59  C   -0.233394
    60  C    0.014207
    61  C    0.003847
    62  C   -0.100695
    63  C    0.012877
    64  C   -0.262687
    65  C   -0.015159
    66  C   -0.024683
    67  H   -0.000189
    68  H    0.036251
    69  H    0.016064
    70  H    0.068430
    71  H    0.048901
    72  H    0.047364
    73  H    0.046995
    74  H    0.049137
    75  H    0.055652
    76  H    0.077830
    77  H    0.051927
    78  H    0.060475
    79  H    0.052989
    80  H    0.063802
    81  H    0.041109
    82  H    0.050426
    83  H    0.037243
    84  H    0.082855
    85  H    0.039727
    86  H    0.048595
    87  H    0.052494
    88  H    0.030883
    89  H    0.055082
    90  H    0.039245
    91  H    0.037011
    92  H    0.032226
    93  H    0.041893
    94  H    0.041777
    95  H    0.035630
    96  H    0.059423
    97  H    0.070678
    98  H    0.100578
    99  H    0.063387
   100  H    0.044261
   101  H    0.071329
   102  H    0.063408
   103  H    0.054960
   104  H    0.029736
   105  H    0.037288
   106  H    0.060676
   107  H    0.059154
   108  H    0.064027
   109  H    0.016687
   110  H    0.022324
   111  H    0.034674
   112  H    0.018750
   113  H    0.020622
   114  H    0.039142
   115  H    0.031840
   116  H    0.035200
   117  H    0.029091
   118  H    0.009130
   119  H    0.026505
   120  H    0.029316
   121  H    0.034011
   122  H    0.026501
   123  H    0.028703
   124  H    0.039275
   125  H    0.018493
   126  H    0.041199
   127  H    0.049164
   128  H    0.023700
   129  H    0.025917
   130  H    0.029148
   131  H    0.043768
   132  H    0.025067
   133  H    0.021294
   134  H    0.041919
   135  H    0.037081
   136  H    0.030202
   137  H    0.032621
   138  H    0.029174
   139  H    0.022049
   140  H    0.041840
 Sum of Mulliken charges =  -0.00000

 Dipole moment (field-independent basis, Debye):
    X=             -4.0186    Y=              3.8120    Z=             -0.2570  Tot=              5.5449
 Quadrupole moment (field-independent basis, Debye-Ang):
   XX=           -378.1091   YY=           -418.8099   ZZ=           -409.1401
   XY=              8.2206   XZ=             10.2199   YZ=              2.2676

 Normal termination of Gaussian 16 at Wed Apr 27 01:40:50 2022.
