 Gaussian 16, Revision A.03,
 Gaussian 16:  ES64L-G16RevA.03 25-Dec-2016

 --------------------------------
 #p wB97XD/Def2SVP td=(nstates=5)
 --------------------------------

 ---------------------------------------------------
 step_101_chromophore_4 TDDFT with wB97XD functional
 ---------------------------------------------------
 Symbolic Z-matrix:
 Charge =  0 Multiplicity = 1

                         Standard orientation:
 ---------------------------------------------------------------------
 Center     Atomic      Atomic             Coordinates (Angstroms)
 Number     Number       Type             X           Y           Z
 ---------------------------------------------------------------------
      1         12           0        6.054767    0.690859    0.186903
      2          6           0        3.950541   -2.085760    0.037419
      3          6           0        3.416625    2.691132   -0.439904
      4          6           0        8.253293    3.247223    0.263832
      5          6           0        8.792724   -1.585747    0.550204
      6          7           0        3.887643    0.331137   -0.207762
      7          6           0        3.252256   -0.879825   -0.068838
      8          6           0        1.686469   -0.738866   -0.349853
      9          6           0        1.503451    0.816579   -0.484021
     10          6           0        2.983922    1.334144   -0.375843
     11          6           0        0.745061    1.250717   -1.683453
     12          6           0        0.661375   -1.508452    0.590865
     13          6           0       -0.796587   -1.030762    0.672943
     14          6           0       -1.862799   -2.146160    0.416082
     15          8           0       -2.049953   -3.066553    1.203191
     16          8           0       -2.516942   -2.022444   -0.765729
     17          7           0        5.866651    2.595121   -0.132482
     18          6           0        4.699998    3.279201   -0.247106
     19          6           0        4.986178    4.680305   -0.421646
     20          6           0        6.423535    4.866144   -0.373318
     21          6           0        6.905158    3.522370   -0.020517
     22          6           0        3.886996    5.691353   -0.823631
     23          6           0        7.240149    6.110186   -0.572712
     24          8           0        8.427616    6.122646   -0.548796
     25          6           0        6.612875    7.339432   -1.118809
     26          7           0        8.172891    0.773402    0.587567
     27          6           0        8.797088    1.977530    0.420909
     28          6           0       10.279985    1.647040    0.130813
     29          6           0       10.478960    0.181195    0.409367
     30          6           0        9.069034   -0.261989    0.633014
     31          6           0       10.745625    2.159586   -1.304607
     32          6           0       11.439262   -0.193588    1.583055
     33          6           0       12.723237   -0.926724    1.247283
     34          7           0        6.351297   -1.396712    0.244049
     35          6           0        7.491277   -2.156985    0.566411
     36          6           0        7.054213   -3.515501    0.720159
     37          6           0        5.701731   -3.575270    0.544427
     38          6           0        5.292252   -2.221590    0.266773
     39          6           0        7.860417   -4.773941    1.009780
     40          6           0        4.479726   -4.481233    0.465414
     41          8           0        4.347428   -5.704368    0.606347
     42          6           0        3.345719   -3.467399    0.272017
     43          6           0        2.431286   -3.957162   -0.833686
     44          8           0        2.512201   -3.711552   -2.050659
     45          8           0        1.509633   -4.767450   -0.206584
     46          6           0        0.318760   -5.200982   -0.944232
     47          6           0       -3.575458   -2.993381   -1.043405
     48          6           0       -4.930765   -2.411456   -0.696907
     49          6           0       -6.100161   -3.081154   -0.343833
     50          6           0       -6.336727   -4.566112   -0.242066
     51          6           0       -7.253227   -2.162516    0.018210
     52          6           0       -7.803731   -1.435421   -1.168244
     53          6           0       -8.011191    0.101837   -0.862685
     54          6           0       -9.454148    0.507016   -0.601230
     55          6           0      -10.142746    0.657410   -1.932567
     56          6           0       -9.382549    1.955132    0.066667
     57          6           0       -9.998010    1.860240    1.521361
     58          6           0      -11.068739    2.951676    1.936010
     59          6           0      -12.429359    2.321917    2.550396
     60          6           0      -12.896173    3.056035    3.843288
     61          6           0      -13.564176    2.452442    1.502657
     62          6           0      -13.492469    1.271669    0.406404
     63          6           0      -14.815763    0.443070    0.224940
     64          6           0      -15.537231    0.872352   -1.049313
     65          6           0      -16.939667    1.508494   -0.729070
     66          6           0      -15.688695   -0.329898   -2.057257
     67          1           0        2.560906    3.366366   -0.495062
     68          1           0        9.006504    4.037771    0.236558
     69          1           0        9.613654   -2.301525    0.464565
     70          1           0        1.545473   -1.205385   -1.324319
     71          1           0        0.971580    1.122866    0.417182
     72          1           0        0.383549    2.267085   -1.523996
     73          1           0       -0.074180    0.544320   -1.813510
     74          1           0        1.313297    1.134894   -2.606270
     75          1           0        1.045586   -1.604671    1.606251
     76          1           0        0.537229   -2.482566    0.117434
     77          1           0       -1.102619   -0.204429    0.032320
     78          1           0       -0.919694   -0.695867    1.703542
     79          1           0        4.299600    6.154268   -1.719806
     80          1           0        3.683723    6.382247   -0.005547
     81          1           0        2.918595    5.293689   -1.124302
     82          1           0        7.321427    8.165582   -1.069297
     83          1           0        5.913810    7.580522   -0.317439
     84          1           0        6.084760    7.194590   -2.062420
     85          1           0       10.837982    2.313524    0.788517
     86          1           0       10.893489   -0.174869   -0.533333
     87          1           0        9.845564    2.362139   -1.885713
     88          1           0       11.235960    1.355900   -1.853493
     89          1           0       11.398588    3.032915   -1.299208
     90          1           0       10.872885   -0.804718    2.286370
     91          1           0       11.768863    0.657369    2.178709
     92          1           0       12.844711   -1.058884    0.171500
     93          1           0       12.741070   -1.923048    1.689132
     94          1           0       13.623143   -0.415203    1.589401
     95          1           0        8.609511   -4.367939    1.689466
     96          1           0        8.369734   -5.070743    0.093237
     97          1           0        7.264800   -5.560344    1.474707
     98          1           0        2.780387   -3.455053    1.203437
     99          1           0       -0.584264   -4.711114   -0.581505
    100          1           0        0.012101   -6.218150   -0.700292
    101          1           0        0.520206   -5.295139   -2.011166
    102          1           0       -3.369783   -3.949349   -0.561519
    103          1           0       -3.576777   -3.139802   -2.123606
    104          1           0       -5.015771   -1.324024   -0.706625
    105          1           0       -5.454232   -5.193667   -0.361844
    106          1           0       -7.136531   -4.762215   -0.956255
    107          1           0       -6.637874   -4.666261    0.800722
    108          1           0       -6.875531   -1.563200    0.846924
    109          1           0       -8.067901   -2.813783    0.333629
    110          1           0       -8.750450   -1.837430   -1.526751
    111          1           0       -7.126420   -1.466309   -2.021537
    112          1           0       -7.583293    0.611099   -1.725572
    113          1           0       -7.344908    0.403049   -0.054208
    114          1           0      -10.034909   -0.212668   -0.023480
    115          1           0      -10.487146   -0.333967   -2.224530
    116          1           0       -9.639789    1.200738   -2.732665
    117          1           0      -11.016477    1.274962   -1.725083
    118          1           0       -9.974039    2.619681   -0.562571
    119          1           0       -8.438536    2.498227    0.034989
    120          1           0       -9.146439    2.144598    2.138396
    121          1           0      -10.379581    0.900965    1.872383
    122          1           0      -11.350295    3.483931    1.027637
    123          1           0      -10.592816    3.630237    2.644408
    124          1           0      -12.209235    1.267521    2.717269
    125          1           0      -12.057742    3.558687    4.324863
    126          1           0      -13.109803    2.252443    4.546962
    127          1           0      -13.615505    3.817669    3.541757
    128          1           0      -13.541750    3.359968    0.899779
    129          1           0      -14.602273    2.505325    1.833345
    130          1           0      -12.696269    0.541842    0.554164
    131          1           0      -13.277361    1.680719   -0.581395
    132          1           0      -15.477687    0.524394    1.087579
    133          1           0      -14.583973   -0.620972    0.212579
    134          1           0      -15.006779    1.658432   -1.588182
    135          1           0      -16.887350    2.595134   -0.791766
    136          1           0      -17.234056    1.225641    0.281945
    137          1           0      -17.689036    1.132316   -1.426090
    138          1           0      -16.723014   -0.590145   -2.283084
    139          1           0      -15.346558   -1.285528   -1.658064
    140          1           0      -15.099328   -0.151137   -2.956435
 ---------------------------------------------------------------------

 SCF Done:  E(RwB97XD) =  -3007.83978634     A.U. after   18 cycles

 Excitation energies and oscillator strengths:

 Excited State   1:      Singlet-A      1.6533 eV  749.93 nm  f=0.3716  <S**2>=0.000
     245 -> 248       -0.19383
     246 -> 247        0.68217
     245 <- 248       -0.12050
 This state for optimization and/or second-order correction.
 Total Energy, E(TD-HF/TD-DFT) =  -3007.77902981
 Copying the excited state density for this state as the 1-particle RhoCI density.

 Excited State   2:      Singlet-A      2.2104 eV  560.92 nm  f=0.0922  <S**2>=0.000
     245 -> 247        0.62948
     246 -> 248        0.31270

 Excited State   3:      Singlet-A      3.5056 eV  353.68 nm  f=0.2909  <S**2>=0.000
     243 -> 247        0.51076
     245 -> 247        0.18595
     246 -> 248       -0.43814

 Excited State   4:      Singlet-A      3.5465 eV  349.60 nm  f=0.2777  <S**2>=0.000
     241 -> 247        0.15796
     242 -> 247        0.38874
     243 -> 247       -0.37465
     245 -> 247        0.17173
     246 -> 248       -0.36732

 Excited State   5:      Singlet-A      3.6648 eV  338.31 nm  f=0.0178  <S**2>=0.000
     240 -> 247        0.49439
     240 -> 249       -0.32958
     240 -> 250       -0.21463
     241 -> 247       -0.13645

 The electronic state is 1-A.
 Alpha  occ. eigenvalues --  -46.93953 -19.31186 -19.30356 -19.25211 -19.24805
 Alpha  occ. eigenvalues --  -19.24616 -19.23736 -14.47143 -14.46020 -14.44503
 Alpha  occ. eigenvalues --  -14.43567 -10.43844 -10.43727 -10.39892 -10.38601
 Alpha  occ. eigenvalues --  -10.36472 -10.35549 -10.35243 -10.35235 -10.35041
 Alpha  occ. eigenvalues --  -10.34658 -10.34452 -10.33657 -10.33396 -10.33389
 Alpha  occ. eigenvalues --  -10.32676 -10.32435 -10.32347 -10.32159 -10.31892
 Alpha  occ. eigenvalues --  -10.31871 -10.31543 -10.31534 -10.31506 -10.31493
 Alpha  occ. eigenvalues --  -10.31284 -10.30889 -10.30766 -10.30615 -10.30380
 Alpha  occ. eigenvalues --  -10.30242 -10.30213 -10.30138 -10.30115 -10.29883
 Alpha  occ. eigenvalues --  -10.29871 -10.29691 -10.29661 -10.29533 -10.29410
 Alpha  occ. eigenvalues --  -10.29376 -10.29220 -10.29199 -10.29168 -10.29069
 Alpha  occ. eigenvalues --  -10.28959 -10.28934 -10.28891 -10.28786 -10.28756
 Alpha  occ. eigenvalues --  -10.28667 -10.28391 -10.28379 -10.28154 -10.28139
 Alpha  occ. eigenvalues --  -10.28104  -3.20114  -1.93709  -1.93238  -1.93119
 Alpha  occ. eigenvalues --   -1.19381  -1.17521  -1.14511  -1.11341  -1.10247
 Alpha  occ. eigenvalues --   -1.09397  -1.05960  -1.05151  -1.05063  -1.04066
 Alpha  occ. eigenvalues --   -0.94567  -0.92720  -0.91679  -0.91032  -0.90958
 Alpha  occ. eigenvalues --   -0.90269  -0.89875  -0.89128  -0.88921  -0.88751
 Alpha  occ. eigenvalues --   -0.88117  -0.87863  -0.86026  -0.85492  -0.84932
 Alpha  occ. eigenvalues --   -0.84224  -0.83947  -0.83422  -0.83019  -0.82322
 Alpha  occ. eigenvalues --   -0.81855  -0.80253  -0.79924  -0.79293  -0.77887
 Alpha  occ. eigenvalues --   -0.77818  -0.76938  -0.76838  -0.76389  -0.75916
 Alpha  occ. eigenvalues --   -0.75262  -0.74484  -0.73668  -0.72604  -0.70586
 Alpha  occ. eigenvalues --   -0.70329  -0.69992  -0.69560  -0.68715  -0.67327
 Alpha  occ. eigenvalues --   -0.67285  -0.67122  -0.66924  -0.66338  -0.66126
 Alpha  occ. eigenvalues --   -0.65527  -0.65294  -0.64984  -0.63871  -0.62121
 Alpha  occ. eigenvalues --   -0.61640  -0.61582  -0.61241  -0.60534  -0.59878
 Alpha  occ. eigenvalues --   -0.59686  -0.59322  -0.58014  -0.57631  -0.57322
 Alpha  occ. eigenvalues --   -0.57285  -0.56646  -0.56332  -0.56192  -0.55670
 Alpha  occ. eigenvalues --   -0.55497  -0.55166  -0.55028  -0.54839  -0.54787
 Alpha  occ. eigenvalues --   -0.54323  -0.54026  -0.53725  -0.53620  -0.53274
 Alpha  occ. eigenvalues --   -0.53266  -0.53156  -0.53097  -0.52749  -0.52627
 Alpha  occ. eigenvalues --   -0.52464  -0.52347  -0.52182  -0.51972  -0.51675
 Alpha  occ. eigenvalues --   -0.51529  -0.51334  -0.51190  -0.51058  -0.50997
 Alpha  occ. eigenvalues --   -0.50777  -0.50593  -0.50195  -0.50113  -0.49783
 Alpha  occ. eigenvalues --   -0.49364  -0.49177  -0.49082  -0.48856  -0.48715
 Alpha  occ. eigenvalues --   -0.48507  -0.48452  -0.48172  -0.47986  -0.47860
 Alpha  occ. eigenvalues --   -0.47760  -0.47641  -0.47559  -0.47345  -0.47025
 Alpha  occ. eigenvalues --   -0.46492  -0.46111  -0.46029  -0.45975  -0.45905
 Alpha  occ. eigenvalues --   -0.45554  -0.45220  -0.45148  -0.45126  -0.44890
 Alpha  occ. eigenvalues --   -0.44659  -0.44537  -0.44338  -0.43912  -0.43715
 Alpha  occ. eigenvalues --   -0.43574  -0.43521  -0.43313  -0.42923  -0.42799
 Alpha  occ. eigenvalues --   -0.42586  -0.42428  -0.42336  -0.42237  -0.42131
 Alpha  occ. eigenvalues --   -0.41674  -0.41487  -0.41250  -0.41039  -0.40664
 Alpha  occ. eigenvalues --   -0.40476  -0.40396  -0.40309  -0.39504  -0.39433
 Alpha  occ. eigenvalues --   -0.38894  -0.38796  -0.38456  -0.38204  -0.38119
 Alpha  occ. eigenvalues --   -0.37930  -0.37449  -0.36540  -0.36141  -0.36053
 Alpha  occ. eigenvalues --   -0.35849  -0.35641  -0.35144  -0.33600  -0.33011
 Alpha  occ. eigenvalues --   -0.32885  -0.32701  -0.31945  -0.31050  -0.26040
 Alpha  occ. eigenvalues --   -0.22877
 Alpha virt. eigenvalues --   -0.06837   0.00139   0.02509   0.04469   0.06739
 Alpha virt. eigenvalues --    0.06962   0.07039   0.07178   0.08042   0.09341
 Alpha virt. eigenvalues --    0.10171   0.11448   0.11947   0.12056   0.12162

 Mulliken charges:
               1
     1  Mg   0.978123
     2  C    0.026536
     3  C   -0.098068
     4  C   -0.089246
     5  C   -0.107546
     6  N   -0.345129
     7  C    0.020333
     8  C   -0.111987
     9  C   -0.063080
    10  C    0.038258
    11  C    0.029558
    12  C   -0.006299
    13  C    0.027004
    14  C    0.183741
    15  O   -0.275615
    16  O   -0.351003
    17  N   -0.539652
    18  C    0.210569
    19  C   -0.177013
    20  C   -0.093876
    21  C    0.192734
    22  C    0.054634
    23  C    0.034781
    24  O   -0.205777
    25  C   -0.001880
    26  N   -0.369988
    27  C    0.081272
    28  C   -0.123544
    29  C   -0.051005
    30  C    0.109124
    31  C    0.008435
    32  C    0.006637
    33  C   -0.060594
    34  N   -0.435291
    35  C    0.129743
    36  C   -0.245675
    37  C   -0.055366
    38  C    0.127175
    39  C    0.086275
    40  C    0.209045
    41  O   -0.205754
    42  C   -0.138830
    43  C    0.273377
    44  O   -0.253716
    45  O   -0.364100
    46  C    0.135292
    47  C    0.266428
    48  C   -0.161114
    49  C   -0.246738
    50  C    0.055117
    51  C    0.041357
    52  C   -0.020210
    53  C    0.001602
    54  C   -0.181253
    55  C    0.012390
    56  C    0.024962
    57  C   -0.050496
    58  C    0.015862
    59  C   -0.201067
    60  C    0.026659
    61  C    0.018041
    62  C   -0.074907
    63  C    0.025662
    64  C   -0.235304
    65  C   -0.000968
    66  C   -0.011636
    67  H   -0.009320
    68  H    0.033056
    69  H    0.011407
    70  H    0.056649
    71  H    0.037351
    72  H    0.042830
    73  H    0.040174
    74  H    0.044514
    75  H    0.049960
    76  H    0.050296
    77  H    0.043436
    78  H    0.055792
    79  H    0.045750
    80  H    0.060218
    81  H    0.038475
    82  H    0.049707
    83  H    0.029058
    84  H    0.078905
    85  H    0.028762
    86  H    0.033126
    87  H    0.044201
    88  H    0.024956
    89  H    0.050836
    90  H    0.030726
    91  H    0.029675
    92  H    0.025190
    93  H    0.036165
    94  H    0.036245
    95  H    0.027838
    96  H    0.054052
    97  H    0.067574
    98  H    0.093137
    99  H    0.055050
   100  H    0.040332
   101  H    0.068182
   102  H    0.056617
   103  H    0.050701
   104  H    0.024886
   105  H    0.032734
   106  H    0.054405
   107  H    0.052717
   108  H    0.056320
   109  H    0.008922
   110  H    0.013736
   111  H    0.025175
   112  H    0.009993
   113  H    0.008958
   114  H    0.027534
   115  H    0.025710
   116  H    0.030141
   117  H    0.015148
   118  H   -0.001667
   119  H    0.020713
   120  H    0.021214
   121  H    0.022950
   122  H    0.013848
   123  H    0.021445
   124  H    0.026158
   125  H    0.011918
   126  H    0.036043
   127  H    0.043466
   128  H    0.015014
   129  H    0.016035
   130  H    0.015026
   131  H    0.028880
   132  H    0.014878
   133  H    0.013213
   134  H    0.030929
   135  H    0.031551
   136  H    0.023003
   137  H    0.026058
   138  H    0.022663
   139  H    0.015050
   140  H    0.036612
 Sum of Mulliken charges =  -0.00000

 Dipole moment (field-independent basis, Debye):
    X=             -4.1759    Y=              4.1458    Z=             -0.3085  Tot=              5.8924
 Quadrupole moment (field-independent basis, Debye-Ang):
   XX=           -380.3017   YY=           -416.5324   ZZ=           -408.8165
   XY=             10.3243   XZ=              9.8987   YZ=              2.2499

 Normal termination of Gaussian 16 at Wed Apr 27 02:09:14 2022.
