 Gaussian 16, Revision A.03,
 Gaussian 16:  ES64L-G16RevA.03 25-Dec-2016

 --------------------
 #p ZINDO=(nstates=5)
 --------------------

 ----------------------------
 step_101_chromophore_4 ZINDO
 ----------------------------
 Symbolic Z-matrix:
 Charge =  0 Multiplicity = 1

                         Standard orientation:
 ---------------------------------------------------------------------
 Center     Atomic      Atomic             Coordinates (Angstroms)
 Number     Number       Type             X           Y           Z
 ---------------------------------------------------------------------
      1         12           0        6.054767    0.690859    0.186903
      2          6           0        3.950541   -2.085760    0.037419
      3          6           0        3.416625    2.691132   -0.439904
      4          6           0        8.253293    3.247223    0.263832
      5          6           0        8.792724   -1.585747    0.550204
      6          7           0        3.887643    0.331137   -0.207762
      7          6           0        3.252256   -0.879825   -0.068838
      8          6           0        1.686469   -0.738866   -0.349853
      9          6           0        1.503451    0.816579   -0.484021
     10          6           0        2.983922    1.334144   -0.375843
     11          6           0        0.745061    1.250717   -1.683453
     12          6           0        0.661375   -1.508452    0.590865
     13          6           0       -0.796587   -1.030762    0.672943
     14          6           0       -1.862799   -2.146160    0.416082
     15          8           0       -2.049953   -3.066553    1.203191
     16          8           0       -2.516942   -2.022444   -0.765729
     17          7           0        5.866651    2.595121   -0.132482
     18          6           0        4.699998    3.279201   -0.247106
     19          6           0        4.986178    4.680305   -0.421646
     20          6           0        6.423535    4.866144   -0.373318
     21          6           0        6.905158    3.522370   -0.020517
     22          6           0        3.886996    5.691353   -0.823631
     23          6           0        7.240149    6.110186   -0.572712
     24          8           0        8.427616    6.122646   -0.548796
     25          6           0        6.612875    7.339432   -1.118809
     26          7           0        8.172891    0.773402    0.587567
     27          6           0        8.797088    1.977530    0.420909
     28          6           0       10.279985    1.647040    0.130813
     29          6           0       10.478960    0.181195    0.409367
     30          6           0        9.069034   -0.261989    0.633014
     31          6           0       10.745625    2.159586   -1.304607
     32          6           0       11.439262   -0.193588    1.583055
     33          6           0       12.723237   -0.926724    1.247283
     34          7           0        6.351297   -1.396712    0.244049
     35          6           0        7.491277   -2.156985    0.566411
     36          6           0        7.054213   -3.515501    0.720159
     37          6           0        5.701731   -3.575270    0.544427
     38          6           0        5.292252   -2.221590    0.266773
     39          6           0        7.860417   -4.773941    1.009780
     40          6           0        4.479726   -4.481233    0.465414
     41          8           0        4.347428   -5.704368    0.606347
     42          6           0        3.345719   -3.467399    0.272017
     43          6           0        2.431286   -3.957162   -0.833686
     44          8           0        2.512201   -3.711552   -2.050659
     45          8           0        1.509633   -4.767450   -0.206584
     46          6           0        0.318760   -5.200982   -0.944232
     47          6           0       -3.575458   -2.993381   -1.043405
     48          6           0       -4.930765   -2.411456   -0.696907
     49          6           0       -6.100161   -3.081154   -0.343833
     50          6           0       -6.336727   -4.566112   -0.242066
     51          6           0       -7.253227   -2.162516    0.018210
     52          6           0       -7.803731   -1.435421   -1.168244
     53          6           0       -8.011191    0.101837   -0.862685
     54          6           0       -9.454148    0.507016   -0.601230
     55          6           0      -10.142746    0.657410   -1.932567
     56          6           0       -9.382549    1.955132    0.066667
     57          6           0       -9.998010    1.860240    1.521361
     58          6           0      -11.068739    2.951676    1.936010
     59          6           0      -12.429359    2.321917    2.550396
     60          6           0      -12.896173    3.056035    3.843288
     61          6           0      -13.564176    2.452442    1.502657
     62          6           0      -13.492469    1.271669    0.406404
     63          6           0      -14.815763    0.443070    0.224940
     64          6           0      -15.537231    0.872352   -1.049313
     65          6           0      -16.939667    1.508494   -0.729070
     66          6           0      -15.688695   -0.329898   -2.057257
     67          1           0        2.560906    3.366366   -0.495062
     68          1           0        9.006504    4.037771    0.236558
     69          1           0        9.613654   -2.301525    0.464565
     70          1           0        1.545473   -1.205385   -1.324319
     71          1           0        0.971580    1.122866    0.417182
     72          1           0        0.383549    2.267085   -1.523996
     73          1           0       -0.074180    0.544320   -1.813510
     74          1           0        1.313297    1.134894   -2.606270
     75          1           0        1.045586   -1.604671    1.606251
     76          1           0        0.537229   -2.482566    0.117434
     77          1           0       -1.102619   -0.204429    0.032320
     78          1           0       -0.919694   -0.695867    1.703542
     79          1           0        4.299600    6.154268   -1.719806
     80          1           0        3.683723    6.382247   -0.005547
     81          1           0        2.918595    5.293689   -1.124302
     82          1           0        7.321427    8.165582   -1.069297
     83          1           0        5.913810    7.580522   -0.317439
     84          1           0        6.084760    7.194590   -2.062420
     85          1           0       10.837982    2.313524    0.788517
     86          1           0       10.893489   -0.174869   -0.533333
     87          1           0        9.845564    2.362139   -1.885713
     88          1           0       11.235960    1.355900   -1.853493
     89          1           0       11.398588    3.032915   -1.299208
     90          1           0       10.872885   -0.804718    2.286370
     91          1           0       11.768863    0.657369    2.178709
     92          1           0       12.844711   -1.058884    0.171500
     93          1           0       12.741070   -1.923048    1.689132
     94          1           0       13.623143   -0.415203    1.589401
     95          1           0        8.609511   -4.367939    1.689466
     96          1           0        8.369734   -5.070743    0.093237
     97          1           0        7.264800   -5.560344    1.474707
     98          1           0        2.780387   -3.455053    1.203437
     99          1           0       -0.584264   -4.711114   -0.581505
    100          1           0        0.012101   -6.218150   -0.700292
    101          1           0        0.520206   -5.295139   -2.011166
    102          1           0       -3.369783   -3.949349   -0.561519
    103          1           0       -3.576777   -3.139802   -2.123606
    104          1           0       -5.015771   -1.324024   -0.706625
    105          1           0       -5.454232   -5.193667   -0.361844
    106          1           0       -7.136531   -4.762215   -0.956255
    107          1           0       -6.637874   -4.666261    0.800722
    108          1           0       -6.875531   -1.563200    0.846924
    109          1           0       -8.067901   -2.813783    0.333629
    110          1           0       -8.750450   -1.837430   -1.526751
    111          1           0       -7.126420   -1.466309   -2.021537
    112          1           0       -7.583293    0.611099   -1.725572
    113          1           0       -7.344908    0.403049   -0.054208
    114          1           0      -10.034909   -0.212668   -0.023480
    115          1           0      -10.487146   -0.333967   -2.224530
    116          1           0       -9.639789    1.200738   -2.732665
    117          1           0      -11.016477    1.274962   -1.725083
    118          1           0       -9.974039    2.619681   -0.562571
    119          1           0       -8.438536    2.498227    0.034989
    120          1           0       -9.146439    2.144598    2.138396
    121          1           0      -10.379581    0.900965    1.872383
    122          1           0      -11.350295    3.483931    1.027637
    123          1           0      -10.592816    3.630237    2.644408
    124          1           0      -12.209235    1.267521    2.717269
    125          1           0      -12.057742    3.558687    4.324863
    126          1           0      -13.109803    2.252443    4.546962
    127          1           0      -13.615505    3.817669    3.541757
    128          1           0      -13.541750    3.359968    0.899779
    129          1           0      -14.602273    2.505325    1.833345
    130          1           0      -12.696269    0.541842    0.554164
    131          1           0      -13.277361    1.680719   -0.581395
    132          1           0      -15.477687    0.524394    1.087579
    133          1           0      -14.583973   -0.620972    0.212579
    134          1           0      -15.006779    1.658432   -1.588182
    135          1           0      -16.887350    2.595134   -0.791766
    136          1           0      -17.234056    1.225641    0.281945
    137          1           0      -17.689036    1.132316   -1.426090
    138          1           0      -16.723014   -0.590145   -2.283084
    139          1           0      -15.346558   -1.285528   -1.658064
    140          1           0      -15.099328   -0.151137   -2.956435
 ---------------------------------------------------------------------

 SCF Done:  E(RZINDO/S) =  -474.186181535     A.U. after   20 cycles

 Excitation energies and oscillator strengths:

 Excited State   1:      Singlet-A      1.2653 eV  979.90 nm  f=0.5819  <S**2>=0.000
     175 ->178        -0.19767
     176 ->177         0.66212
 This state for optimization and/or second-order correction.
 Total Energy, E(CIS/TDA) =  -474.139683526
 Copying the excited state density for this state as the 1-particle RhoCI density.

 Excited State   2:      Singlet-A      1.9263 eV  643.65 nm  f=0.0301  <S**2>=0.000
     175 ->177         0.53610
     176 ->178         0.43824

 Excited State   3:      Singlet-A      2.8538 eV  434.45 nm  f=0.0019  <S**2>=0.000
     169 ->177         0.31710
     169 ->179        -0.38206
     169 ->180         0.30780
     169 ->182        -0.10412
     169 ->186        -0.26010
     169 ->187         0.11032
     169 ->195         0.12244

 Excited State   4:      Singlet-A      3.0079 eV  412.20 nm  f=0.7515  <S**2>=0.000
     175 ->177        -0.32484
     176 ->178         0.43885
     176 ->179         0.36949
     176 ->180         0.10680
     176 ->182        -0.10632

 Excited State   5:      Singlet-A      3.0873 eV  401.60 nm  f=0.4581  <S**2>=0.000
     168 ->177         0.13266
     168 ->179         0.17200
     168 ->180         0.15174
     175 ->177         0.23015
     176 ->178        -0.26821
     176 ->179         0.47283

 The electronic state is 1-A.
 Alpha  occ. eigenvalues --   -1.83552  -1.81823  -1.79522  -1.73446  -1.70234
 Alpha  occ. eigenvalues --   -1.70114  -1.64553  -1.63202  -1.60108  -1.56330
 Alpha  occ. eigenvalues --   -1.54600  -1.51403  -1.49650  -1.48053  -1.47207
 Alpha  occ. eigenvalues --   -1.45060  -1.43129  -1.40383  -1.38359  -1.36264
 Alpha  occ. eigenvalues --   -1.35390  -1.33665  -1.32320  -1.31313  -1.28845
 Alpha  occ. eigenvalues --   -1.27673  -1.25628  -1.22334  -1.21410  -1.18657
 Alpha  occ. eigenvalues --   -1.18084  -1.15287  -1.15174  -1.13494  -1.13133
 Alpha  occ. eigenvalues --   -1.12240  -1.11189  -1.10489  -1.04284  -1.03076
 Alpha  occ. eigenvalues --   -1.02361  -1.00912  -0.98536  -0.97088  -0.95899
 Alpha  occ. eigenvalues --   -0.95589  -0.95390  -0.93756  -0.92836  -0.92437
 Alpha  occ. eigenvalues --   -0.91775  -0.90994  -0.89916  -0.88593  -0.87779
 Alpha  occ. eigenvalues --   -0.86543  -0.84362  -0.82797  -0.81802  -0.80174
 Alpha  occ. eigenvalues --   -0.79586  -0.79157  -0.77148  -0.76412  -0.76342
 Alpha  occ. eigenvalues --   -0.75334  -0.74656  -0.73876  -0.73378  -0.72601
 Alpha  occ. eigenvalues --   -0.72522  -0.71994  -0.71143  -0.70835  -0.70227
 Alpha  occ. eigenvalues --   -0.70077  -0.69302  -0.68479  -0.68186  -0.67423
 Alpha  occ. eigenvalues --   -0.67143  -0.66943  -0.66486  -0.66334  -0.66082
 Alpha  occ. eigenvalues --   -0.65749  -0.65175  -0.64893  -0.64390  -0.63844
 Alpha  occ. eigenvalues --   -0.63520  -0.62780  -0.62623  -0.62585  -0.62507
 Alpha  occ. eigenvalues --   -0.62108  -0.61398  -0.60863  -0.60467  -0.60263
 Alpha  occ. eigenvalues --   -0.59867  -0.59658  -0.59143  -0.58714  -0.58199
 Alpha  occ. eigenvalues --   -0.58140  -0.57909  -0.57187  -0.57068  -0.56986
 Alpha  occ. eigenvalues --   -0.56518  -0.56024  -0.55794  -0.55561  -0.55535
 Alpha  occ. eigenvalues --   -0.54642  -0.54125  -0.53410  -0.53061  -0.53006
 Alpha  occ. eigenvalues --   -0.52314  -0.51800  -0.51796  -0.51435  -0.51338
 Alpha  occ. eigenvalues --   -0.50925  -0.50712  -0.50396  -0.50238  -0.49826
 Alpha  occ. eigenvalues --   -0.49504  -0.49275  -0.49131  -0.48816  -0.48654
 Alpha  occ. eigenvalues --   -0.48564  -0.48505  -0.48071  -0.47747  -0.47673
 Alpha  occ. eigenvalues --   -0.47290  -0.47200  -0.47139  -0.46815  -0.46580
 Alpha  occ. eigenvalues --   -0.46444  -0.46227  -0.45978  -0.45755  -0.45386
 Alpha  occ. eigenvalues --   -0.45162  -0.45003  -0.44491  -0.44327  -0.43517
 Alpha  occ. eigenvalues --   -0.43255  -0.42938  -0.42377  -0.41985  -0.41757
 Alpha  occ. eigenvalues --   -0.41416  -0.41228  -0.40925  -0.39005  -0.38600
 Alpha  occ. eigenvalues --   -0.38495  -0.37254  -0.35425  -0.35012  -0.34617
 Alpha  occ. eigenvalues --   -0.33452  -0.32794  -0.32677  -0.30652  -0.26776
 Alpha  occ. eigenvalues --   -0.21866
 Alpha virt. eigenvalues --   -0.08451  -0.02250  -0.00469   0.01137   0.01963
 Alpha virt. eigenvalues --    0.02555   0.02852   0.03517   0.04608   0.04719
 Alpha virt. eigenvalues --    0.06189   0.06549   0.06885   0.07436   0.07995

 Mulliken charges:
               1
     1  Mg   0.423872
     2  C   -0.026977
     3  C   -0.085710
     4  C   -0.061795
     5  C   -0.054548
     6  N   -0.269807
     7  C    0.096059
     8  C   -0.010135
     9  C    0.014708
    10  C    0.129046
    11  C   -0.042325
    12  C   -0.022718
    13  C    0.004541
    14  C    0.466126
    15  O   -0.526820
    16  O   -0.264218
    17  N   -0.319221
    18  C    0.125623
    19  C    0.007580
    20  C   -0.055542
    21  C    0.143091
    22  C   -0.048579
    23  C    0.336032
    24  O   -0.511320
    25  C   -0.031428
    26  N   -0.279397
    27  C    0.149843
    28  C    0.002908
    29  C    0.007920
    30  C    0.117209
    31  C   -0.056274
    32  C   -0.027638
    33  C   -0.055147
    34  N   -0.321705
    35  C    0.075935
    36  C    0.030750
    37  C   -0.067328
    38  C    0.108575
    39  C   -0.047252
    40  C    0.338232
    41  O   -0.508436
    42  C    0.061542
    43  C    0.489724
    44  O   -0.529368
    45  O   -0.262474
    46  C    0.062968
    47  C    0.111555
    48  C   -0.112683
    49  C   -0.008146
    50  C   -0.038638
    51  C   -0.015065
    52  C   -0.033153
    53  C   -0.037341
    54  C   -0.004514
    55  C   -0.056325
    56  C   -0.042024
    57  C   -0.050998
    58  C   -0.047486
    59  C   -0.013999
    60  C   -0.064640
    61  C   -0.036298
    62  C   -0.054409
    63  C   -0.032292
    64  C   -0.011042
    65  C   -0.062935
    66  C   -0.064098
    67  H    0.019066
    68  H    0.055029
    69  H    0.029166
    70  H    0.039476
    71  H    0.026675
    72  H    0.021547
    73  H    0.018161
    74  H    0.028481
    75  H    0.032862
    76  H    0.034266
    77  H    0.034204
    78  H    0.036018
    79  H    0.029525
    80  H    0.033104
    81  H    0.026584
    82  H    0.039582
    83  H    0.022442
    84  H    0.049241
    85  H    0.020565
    86  H    0.035268
    87  H    0.022667
    88  H    0.017032
    89  H    0.030292
    90  H    0.018196
    91  H    0.019967
    92  H    0.016008
    93  H    0.017709
    94  H    0.018455
    95  H    0.017786
    96  H    0.036097
    97  H    0.043302
    98  H    0.060237
    99  H    0.049727
   100  H    0.027123
   101  H    0.055534
   102  H    0.057847
   103  H    0.035662
   104  H    0.030392
   105  H    0.028302
   106  H    0.037101
   107  H    0.031439
   108  H    0.037522
   109  H    0.011108
   110  H    0.019903
   111  H    0.017130
   112  H    0.013948
   113  H    0.012535
   114  H    0.036619
   115  H    0.013796
   116  H    0.027130
   117  H    0.006860
   118  H    0.012892
   119  H    0.029353
   120  H    0.008144
   121  H    0.033514
   122  H    0.021459
   123  H    0.023225
   124  H    0.029504
   125  H    0.010579
   126  H    0.027460
   127  H    0.035606
   128  H    0.017279
   129  H    0.021193
   130  H    0.017338
   131  H    0.016573
   132  H    0.018639
   133  H    0.015199
   134  H    0.023836
   135  H    0.017939
   136  H    0.019227
   137  H    0.019181
   138  H    0.019683
   139  H    0.012939
   140  H    0.018963
 Sum of Mulliken charges =  -0.00000

 Dipole moment (field-independent basis, Debye):
    X=             -4.8052    Y=              7.2978    Z=              0.2205  Tot=              8.7406
 N-N= 4.229582512685D+03 E-N= 0.000000000000D+00  KE=-9.133494743844D+03
 Leave Link  601 at Wed Apr 27 02:21:04 2022, MaxMem=  6710886400 cpu:               3.1 elap:               0.2
 (Enter /sw/apps/gaussian-16.0/g16/l9999.exe)
 1\1\GINC-BP1-COMPUTE161\SP\RZINDO CIS\STO-3G\C55H74Mg1N4O6\OF15641\27-
 Apr-2022\0\\#p ZINDO=(nstates=5)\\step_101_chromophore_4 ZINDO\\0,1\Mg
 ,0,8.488,3.107,27.121\C,0,10.108,1.497,29.756\C,0,7.076,5.232,29.322\C
 ,0,6.924,4.474,24.464\C,0,9.83,0.595,24.953\N,0,8.553,3.318,29.342\C,0
 ,9.403,2.629,30.174\C,0,9.228,3.103,31.689\C,0,8.259,4.333,31.551\C,0,
 7.929,4.323,30.014\C,0,7.094,4.311,32.47\C,0,10.523,3.301,32.59\C,0,10
 .448,4.194,33.838\C,0,10.956,3.518,35.154\O,0,12.137,3.247,35.337\O,0,

 Normal termination of Gaussian 16 at Wed Apr 27 02:21:04 2022.
