 Gaussian 16, Revision A.03,
 Gaussian 16:  ES64L-G16RevA.03 25-Dec-2016

 ------------------------------
 #p blyp/Def2SVP td=(nstates=5)
 ------------------------------

 -------------------------------------------------
 step_651_chromophore_7 TDDFT with blyp functional
 -------------------------------------------------
 Symbolic Z-matrix:
 Charge =  0 Multiplicity = 1

                         Standard orientation:
 ---------------------------------------------------------------------
 Center     Atomic      Atomic             Coordinates (Angstroms)
 Number     Number       Type             X           Y           Z
 ---------------------------------------------------------------------
      1         12           0        6.161730    0.473723    0.062207
      2          6           0        3.524488   -1.954583    0.047370
      3          6           0        3.858054    2.739843   -0.898195
      4          6           0        8.668978    2.547107    0.192288
      5          6           0        8.478228   -2.264823    0.584660
      6          7           0        3.906411    0.305817   -0.646115
      7          6           0        3.012228   -0.642624   -0.317973
      8          6           0        1.659502   -0.244912   -0.773901
      9          6           0        1.788076    1.255125   -0.959244
     10          6           0        3.308330    1.477639   -0.862186
     11          6           0        1.161880    1.833323   -2.291884
     12          6           0        0.515665   -0.764253    0.211985
     13          6           0       -0.811855   -0.193348   -0.213983
     14          6           0       -2.145324   -0.885752    0.208460
     15          8           0       -2.474176   -1.124840    1.339004
     16          8           0       -2.978998   -1.153140   -0.859139
     17          7           0        6.292920    2.399787   -0.232056
     18          6           0        5.223402    3.238509   -0.674247
     19          6           0        5.814585    4.578526   -0.834079
     20          6           0        7.209172    4.534115   -0.448631
     21          6           0        7.438543    3.101073   -0.083919
     22          6           0        4.894058    5.771975   -1.192656
     23          6           0        8.177157    5.657032   -0.276218
     24          8           0        9.334698    5.422449    0.103403
     25          6           0        7.733639    6.989530   -0.561414
     26          7           0        8.253221    0.151350    0.228085
     27          6           0        9.040190    1.254132    0.434872
     28          6           0       10.408671    0.873933    1.071969
     29          6           0       10.350106   -0.679616    1.223542
     30          6           0        8.935466   -0.975139    0.732154
     31          6           0       11.646363    1.368689    0.114430
     32          6           0       10.561974   -1.258939    2.570306
     33          6           0       11.463971   -2.520820    2.739199
     34          7           0        6.080431   -1.614107    0.339623
     35          6           0        7.091962   -2.570433    0.464619
     36          6           0        6.474457   -3.942380    0.491723
     37          6           0        5.033541   -3.733022    0.388218
     38          6           0        4.886779   -2.265435    0.238756
     39          6           0        7.174196   -5.302041    0.572329
     40          6           0        3.735514   -4.357455    0.284439
     41          8           0        3.361130   -5.516922    0.273355
     42          6           0        2.676581   -3.247898    0.063849
     43          6           0        1.981623   -3.568274   -1.201750
     44          8           0        2.323336   -3.227044   -2.310423
     45          8           0        0.824070   -4.257631   -0.991348
     46          6           0       -0.073541   -4.390250   -2.151958
     47          6           0       -4.117701   -2.013253   -0.548380
     48          6           0       -5.364649   -1.125900   -0.520999
     49          6           0       -6.613694   -1.664929   -0.221774
     50          6           0       -6.895684   -3.093027    0.104941
     51          6           0       -7.729069   -0.710908   -0.208466
     52          6           0       -8.796399   -0.832261   -1.420824
     53          6           0       -9.021110    0.521414   -2.057849
     54          6           0      -10.495431    0.718094   -2.407029
     55          6           0      -10.570252    1.754309   -3.486371
     56          6           0      -11.493540    0.926529   -1.209208
     57          6           0      -12.390074   -0.358741   -1.088041
     58          6           0      -13.864813   -0.010145   -0.937399
     59          6           0      -14.340292    0.020138    0.565423
     60          6           0      -15.795916   -0.466758    0.805895
     61          6           0      -14.067262    1.431223    1.180312
     62          6           0      -13.626604    1.402111    2.673705
     63          6           0      -12.027128    1.108055    2.746764
     64          6           0      -11.080608    2.384020    2.812938
     65          6           0       -9.623197    2.019533    2.449744
     66          6           0      -11.278300    3.142834    4.189572
     67          1           0        3.219573    3.579389   -1.181510
     68          1           0        9.517307    3.201453   -0.019289
     69          1           0        9.214278   -3.050780    0.763384
     70          1           0        1.536836   -0.751032   -1.731357
     71          1           0        1.293301    1.786438   -0.146035
     72          1           0        1.915565    2.128032   -3.022672
     73          1           0        0.398332    2.596807   -2.141330
     74          1           0        0.690465    1.044787   -2.879681
     75          1           0        0.711339   -0.329157    1.192323
     76          1           0        0.467904   -1.851902    0.273431
     77          1           0       -0.749165   -0.140163   -1.300275
     78          1           0       -0.870999    0.829709    0.160036
     79          1           0        4.069354    5.389385   -1.792325
     80          1           0        5.444057    6.540755   -1.736375
     81          1           0        4.647295    6.273643   -0.257050
     82          1           0        6.743016    7.213270   -0.165774
     83          1           0        7.617245    7.006833   -1.644991
     84          1           0        8.453908    7.758686   -0.283193
     85          1           0       10.335088    1.466648    1.983884
     86          1           0       11.072133   -0.981644    0.464621
     87          1           0       11.264426    2.007271   -0.682250
     88          1           0       12.239361    0.599062   -0.379523
     89          1           0       12.362304    1.877193    0.761357
     90          1           0        9.582463   -1.415450    3.020719
     91          1           0       11.041335   -0.468160    3.146796
     92          1           0       11.837208   -2.904169    1.789641
     93          1           0       10.828653   -3.324607    3.109363
     94          1           0       12.305848   -2.293403    3.393910
     95          1           0        6.840559   -5.762362    1.502441
     96          1           0        8.256663   -5.179840    0.605602
     97          1           0        6.913854   -5.960340   -0.255931
     98          1           0        1.959094   -3.247641    0.884604
     99          1           0       -0.589525   -3.438903   -2.021013
    100          1           0       -0.788305   -5.209226   -2.076946
    101          1           0        0.424058   -4.347884   -3.120000
    102          1           0       -4.054804   -2.442648    0.451229
    103          1           0       -4.345511   -2.815538   -1.250923
    104          1           0       -5.200820   -0.054646   -0.635211
    105          1           0       -7.317105   -3.769283   -0.638242
    106          1           0       -7.589373   -3.156655    0.943539
    107          1           0       -5.977689   -3.514378    0.515328
    108          1           0       -7.293371    0.286828   -0.143932
    109          1           0       -8.289832   -0.883900    0.710328
    110          1           0       -9.763445   -1.280620   -1.193074
    111          1           0       -8.418603   -1.390565   -2.277717
    112          1           0       -8.306476    0.639617   -2.872849
    113          1           0       -8.794473    1.319642   -1.350390
    114          1           0      -10.742599   -0.224152   -2.895876
    115          1           0       -9.646520    2.024537   -3.996400
    116          1           0      -11.215413    2.565749   -3.147954
    117          1           0      -11.128089    1.369359   -4.339430
    118          1           0      -12.119064    1.816032   -1.287075
    119          1           0      -10.899644    1.096706   -0.310805
    120          1           0      -11.954129   -0.768474   -0.177056
    121          1           0      -12.373888   -1.109500   -1.877600
    122          1           0      -14.375825   -0.712300   -1.597614
    123          1           0      -14.130295    0.917541   -1.445077
    124          1           0      -13.677354   -0.632748    1.133963
    125          1           0      -15.815982   -1.403830    1.362595
    126          1           0      -16.279247   -0.668830   -0.149210
    127          1           0      -16.388622    0.170619    1.462550
    128          1           0      -14.966876    2.038117    1.077191
    129          1           0      -13.269660    1.928002    0.628016
    130          1           0      -14.229122    0.599401    3.098969
    131          1           0      -13.882163    2.358273    3.129748
    132          1           0      -11.838138    0.575741    1.814188
    133          1           0      -11.830400    0.409277    3.560027
    134          1           0      -11.384613    3.071764    2.024168
    135          1           0       -8.990735    1.932366    3.332506
    136          1           0       -9.228338    2.792647    1.790798
    137          1           0       -9.553324    1.047324    1.961574
    138          1           0      -10.385642    3.762266    4.280984
    139          1           0      -11.464737    2.418207    4.982830
    140          1           0      -12.104637    3.852404    4.203946
 ---------------------------------------------------------------------

 SCF Done:  E(RB-LYP) =  -3007.36175864     A.U. after   22 cycles

 Excitation energies and oscillator strengths:

 Excited State   1:      Singlet-A      1.7479 eV  709.35 nm  f=0.3006  <S**2>=0.000
     245 -> 248        0.19838
     246 -> 247        0.68523
     246 <- 247       -0.15396
 This state for optimization and/or second-order correction.
 Total Energy, E(TD-HF/TD-DFT) =  -3007.29752574
 Copying the excited state density for this state as the 1-particle RhoCI density.

 Excited State   2:      Singlet-A      1.8713 eV  662.54 nm  f=0.0155  <S**2>=0.000
     243 -> 247        0.33367
     244 -> 247        0.45088
     245 -> 247        0.41270
     246 -> 248       -0.11672

 Excited State   3:      Singlet-A      1.9159 eV  647.12 nm  f=0.0145  <S**2>=0.000
     243 -> 247       -0.46138
     244 -> 247        0.49867
     245 -> 247       -0.15827

 Excited State   4:      Singlet-A      2.0009 eV  619.63 nm  f=0.0000  <S**2>=0.000
     242 -> 247        0.70696

 Excited State   5:      Singlet-A      2.0175 eV  614.54 nm  f=0.0410  <S**2>=0.000
     243 -> 247       -0.40506
     244 -> 247       -0.20250
     245 -> 247        0.47465
     246 -> 248       -0.24724

 The electronic state is 1-A.
 Alpha  occ. eigenvalues --  -46.27032 -18.82278 -18.81595 -18.77145 -18.76241
 Alpha  occ. eigenvalues --  -18.75262 -18.75076 -14.02983 -14.02903 -14.01677
 Alpha  occ. eigenvalues --  -14.01332 -10.04503 -10.03540  -9.99482  -9.99476
 Alpha  occ. eigenvalues --   -9.97594  -9.97525  -9.96678  -9.96664  -9.96585
 Alpha  occ. eigenvalues --   -9.96317  -9.96094  -9.95819  -9.95748  -9.95574
 Alpha  occ. eigenvalues --   -9.94886  -9.94698  -9.94367  -9.94200  -9.94137
 Alpha  occ. eigenvalues --   -9.94099  -9.93842  -9.93760  -9.93716  -9.93619
 Alpha  occ. eigenvalues --   -9.93511  -9.93352  -9.92817  -9.92786  -9.92731
 Alpha  occ. eigenvalues --   -9.92689  -9.92604  -9.92548  -9.92405  -9.92389
 Alpha  occ. eigenvalues --   -9.92255  -9.92244  -9.92135  -9.92003  -9.91941
 Alpha  occ. eigenvalues --   -9.91720  -9.91615  -9.91533  -9.91479  -9.91467
 Alpha  occ. eigenvalues --   -9.91262  -9.91171  -9.91151  -9.91064  -9.91002
 Alpha  occ. eigenvalues --   -9.90955  -9.90855  -9.90772  -9.90724  -9.90338
 Alpha  occ. eigenvalues --   -9.89993  -2.91771  -1.72175  -1.71698  -1.71465
 Alpha  occ. eigenvalues --   -0.98457  -0.98011  -0.91366  -0.90639  -0.90551
 Alpha  occ. eigenvalues --   -0.89656  -0.87498  -0.85212  -0.84460  -0.83802
 Alpha  occ. eigenvalues --   -0.75010  -0.73657  -0.73474  -0.72944  -0.72604
 Alpha  occ. eigenvalues --   -0.71624  -0.71435  -0.70608  -0.70380  -0.70157
 Alpha  occ. eigenvalues --   -0.69215  -0.68848  -0.67730  -0.67457  -0.67058
 Alpha  occ. eigenvalues --   -0.66408  -0.66242  -0.65554  -0.64834  -0.64279
 Alpha  occ. eigenvalues --   -0.63956  -0.62513  -0.62289  -0.61831  -0.61000
 Alpha  occ. eigenvalues --   -0.60918  -0.60211  -0.59828  -0.59478  -0.58458
 Alpha  occ. eigenvalues --   -0.57913  -0.57548  -0.56739  -0.55429  -0.54892
 Alpha  occ. eigenvalues --   -0.54022  -0.53864  -0.52755  -0.52357  -0.51547
 Alpha  occ. eigenvalues --   -0.51259  -0.50827  -0.50721  -0.50248  -0.49753
 Alpha  occ. eigenvalues --   -0.49532  -0.49404  -0.48263  -0.47770  -0.46614
 Alpha  occ. eigenvalues --   -0.46487  -0.46164  -0.45770  -0.45181  -0.44627
 Alpha  occ. eigenvalues --   -0.44282  -0.44108  -0.43217  -0.42548  -0.42303
 Alpha  occ. eigenvalues --   -0.42147  -0.41611  -0.41436  -0.41198  -0.41132
 Alpha  occ. eigenvalues --   -0.40906  -0.40596  -0.40456  -0.40259  -0.40147
 Alpha  occ. eigenvalues --   -0.39896  -0.39400  -0.39361  -0.39235  -0.39058
 Alpha  occ. eigenvalues --   -0.38867  -0.38551  -0.38321  -0.38243  -0.38086
 Alpha  occ. eigenvalues --   -0.37969  -0.37810  -0.37717  -0.37440  -0.37353
 Alpha  occ. eigenvalues --   -0.37284  -0.36974  -0.36681  -0.36669  -0.36492
 Alpha  occ. eigenvalues --   -0.36326  -0.35956  -0.35890  -0.35821  -0.35656
 Alpha  occ. eigenvalues --   -0.35385  -0.35163  -0.34962  -0.34898  -0.34654
 Alpha  occ. eigenvalues --   -0.34566  -0.34442  -0.34303  -0.33923  -0.33868
 Alpha  occ. eigenvalues --   -0.33709  -0.33463  -0.33385  -0.33252  -0.33154
 Alpha  occ. eigenvalues --   -0.33143  -0.32934  -0.32615  -0.32561  -0.32382
 Alpha  occ. eigenvalues --   -0.32317  -0.32039  -0.31979  -0.31786  -0.31347
 Alpha  occ. eigenvalues --   -0.31273  -0.31055  -0.30923  -0.30672  -0.30588
 Alpha  occ. eigenvalues --   -0.30350  -0.30198  -0.29909  -0.29788  -0.29720
 Alpha  occ. eigenvalues --   -0.29563  -0.29528  -0.29450  -0.29334  -0.29055
 Alpha  occ. eigenvalues --   -0.28953  -0.28888  -0.28877  -0.28443  -0.27496
 Alpha  occ. eigenvalues --   -0.27369  -0.27260  -0.26953  -0.26308  -0.26298
 Alpha  occ. eigenvalues --   -0.26100  -0.26012  -0.25636  -0.25310  -0.25131
 Alpha  occ. eigenvalues --   -0.24668  -0.24325  -0.24275  -0.23760  -0.23746
 Alpha  occ. eigenvalues --   -0.23453  -0.22312  -0.21881  -0.21658  -0.20708
 Alpha  occ. eigenvalues --   -0.20529  -0.18973  -0.18609  -0.18489  -0.17261
 Alpha  occ. eigenvalues --   -0.15687
 Alpha virt. eigenvalues --   -0.11620  -0.07089  -0.06537  -0.04817  -0.02908
 Alpha virt. eigenvalues --   -0.02256  -0.02218  -0.01909  -0.01707  -0.00139
 Alpha virt. eigenvalues --    0.00954   0.01540   0.02378   0.02469   0.02848

 Mulliken charges:
               1
     1  Mg   0.694929
     2  C   -0.035443
     3  C   -0.028034
     4  C   -0.059379
     5  C   -0.057990
     6  N   -0.157757
     7  C   -0.077583
     8  C    0.034266
     9  C   -0.012042
    10  C    0.049265
    11  C    0.123862
    12  C    0.086023
    13  C    0.119888
    14  C    0.077032
    15  O   -0.162214
    16  O   -0.267480
    17  N   -0.380043
    18  C    0.096881
    19  C   -0.146356
    20  C    0.016693
    21  C    0.121648
    22  C    0.153501
    23  C   -0.072305
    24  O   -0.179494
    25  C    0.155109
    26  N   -0.245924
    27  C    0.025098
    28  C   -0.022142
    29  C    0.112429
    30  C   -0.009412
    31  C    0.095630
    32  C    0.099447
    33  C    0.074101
    34  N   -0.256102
    35  C    0.128273
    36  C   -0.183898
    37  C    0.070597
    38  C    0.119122
    39  C    0.168317
    40  C   -0.072871
    41  O   -0.125453
    42  C    0.066231
    43  C    0.097227
    44  O   -0.176620
    45  O   -0.267991
    46  C    0.216343
    47  C    0.289609
    48  C   -0.126940
    49  C   -0.148449
    50  C    0.150786
    51  C    0.144944
    52  C    0.078879
    53  C    0.055886
    54  C   -0.071516
    55  C    0.136912
    56  C    0.085400
    57  C    0.035651
    58  C    0.107432
    59  C   -0.055780
    60  C    0.130325
    61  C    0.054076
    62  C    0.086981
    63  C    0.065672
    64  C   -0.082340
    65  C    0.102092
    66  C    0.101498
    67  H   -0.067883
    68  H   -0.025331
    69  H   -0.057113
    70  H    0.000272
    71  H   -0.022318
    72  H   -0.011086
    73  H   -0.003956
    74  H   -0.016481
    75  H   -0.025705
    76  H    0.010254
    77  H   -0.018747
    78  H    0.000825
    79  H    0.011081
    80  H   -0.018848
    81  H    0.017839
    82  H   -0.002841
    83  H    0.015868
    84  H   -0.006522
    85  H   -0.009659
    86  H   -0.030641
    87  H    0.011714
    88  H   -0.010439
    89  H    0.001419
    90  H   -0.014981
    91  H   -0.028717
    92  H   -0.012032
    93  H   -0.004051
    94  H    0.002254
    95  H    0.012823
    96  H   -0.021268
    97  H    0.020316
    98  H    0.013742
    99  H   -0.003151
   100  H    0.026727
   101  H    0.027820
   102  H    0.023352
   103  H    0.008540
   104  H   -0.029541
   105  H    0.010702
   106  H   -0.019444
   107  H   -0.025152
   108  H   -0.027066
   109  H   -0.020738
   110  H   -0.026506
   111  H   -0.031611
   112  H   -0.030345
   113  H   -0.034888
   114  H   -0.041774
   115  H   -0.023991
   116  H   -0.028735
   117  H   -0.042159
   118  H   -0.009213
   119  H   -0.023012
   120  H   -0.007320
   121  H   -0.014568
   122  H   -0.054074
   123  H   -0.035614
   124  H   -0.040784
   125  H   -0.027040
   126  H   -0.014636
   127  H   -0.019663
   128  H   -0.039569
   129  H   -0.035270
   130  H   -0.035681
   131  H   -0.030995
   132  H   -0.040918
   133  H   -0.030906
   134  H   -0.034818
   135  H   -0.019559
   136  H   -0.009613
   137  H   -0.009352
   138  H   -0.017652
   139  H   -0.006107
   140  H   -0.011959
 Sum of Mulliken charges =  -0.00000

 Dipole moment (field-independent basis, Debye):
    X=             -1.2144    Y=              2.6577    Z=             -0.4391  Tot=              2.9548
 Quadrupole moment (field-independent basis, Debye-Ang):
   XX=           -379.3696   YY=           -412.5441   ZZ=           -408.5929
   XY=             -1.7529   XZ=             14.8240   YZ=             -3.0724

 Normal termination of Gaussian 16 at Sat Apr 30 09:52:56 2022.
