 Gaussian 16, Revision A.03,
 Gaussian 16:  ES64L-G16RevA.03 25-Dec-2016

 -----------------------------------
 #p cam-b3lyp/Def2SVP td=(nstates=5)
 -----------------------------------

 ------------------------------------------------------
 step_651_chromophore_7 TDDFT with cam-b3lyp functional
 ------------------------------------------------------
 Symbolic Z-matrix:
 Charge =  0 Multiplicity = 1

                         Standard orientation:
 ---------------------------------------------------------------------
 Center     Atomic      Atomic             Coordinates (Angstroms)
 Number     Number       Type             X           Y           Z
 ---------------------------------------------------------------------
      1         12           0        6.161730    0.473723    0.062207
      2          6           0        3.524488   -1.954583    0.047370
      3          6           0        3.858054    2.739843   -0.898195
      4          6           0        8.668978    2.547107    0.192288
      5          6           0        8.478228   -2.264823    0.584660
      6          7           0        3.906411    0.305817   -0.646115
      7          6           0        3.012228   -0.642624   -0.317973
      8          6           0        1.659502   -0.244912   -0.773901
      9          6           0        1.788076    1.255125   -0.959244
     10          6           0        3.308330    1.477639   -0.862186
     11          6           0        1.161880    1.833323   -2.291884
     12          6           0        0.515665   -0.764253    0.211985
     13          6           0       -0.811855   -0.193348   -0.213983
     14          6           0       -2.145324   -0.885752    0.208460
     15          8           0       -2.474176   -1.124840    1.339004
     16          8           0       -2.978998   -1.153140   -0.859139
     17          7           0        6.292920    2.399787   -0.232056
     18          6           0        5.223402    3.238509   -0.674247
     19          6           0        5.814585    4.578526   -0.834079
     20          6           0        7.209172    4.534115   -0.448631
     21          6           0        7.438543    3.101073   -0.083919
     22          6           0        4.894058    5.771975   -1.192656
     23          6           0        8.177157    5.657032   -0.276218
     24          8           0        9.334698    5.422449    0.103403
     25          6           0        7.733639    6.989530   -0.561414
     26          7           0        8.253221    0.151350    0.228085
     27          6           0        9.040190    1.254132    0.434872
     28          6           0       10.408671    0.873933    1.071969
     29          6           0       10.350106   -0.679616    1.223542
     30          6           0        8.935466   -0.975139    0.732154
     31          6           0       11.646363    1.368689    0.114430
     32          6           0       10.561974   -1.258939    2.570306
     33          6           0       11.463971   -2.520820    2.739199
     34          7           0        6.080431   -1.614107    0.339623
     35          6           0        7.091962   -2.570433    0.464619
     36          6           0        6.474457   -3.942380    0.491723
     37          6           0        5.033541   -3.733022    0.388218
     38          6           0        4.886779   -2.265435    0.238756
     39          6           0        7.174196   -5.302041    0.572329
     40          6           0        3.735514   -4.357455    0.284439
     41          8           0        3.361130   -5.516922    0.273355
     42          6           0        2.676581   -3.247898    0.063849
     43          6           0        1.981623   -3.568274   -1.201750
     44          8           0        2.323336   -3.227044   -2.310423
     45          8           0        0.824070   -4.257631   -0.991348
     46          6           0       -0.073541   -4.390250   -2.151958
     47          6           0       -4.117701   -2.013253   -0.548380
     48          6           0       -5.364649   -1.125900   -0.520999
     49          6           0       -6.613694   -1.664929   -0.221774
     50          6           0       -6.895684   -3.093027    0.104941
     51          6           0       -7.729069   -0.710908   -0.208466
     52          6           0       -8.796399   -0.832261   -1.420824
     53          6           0       -9.021110    0.521414   -2.057849
     54          6           0      -10.495431    0.718094   -2.407029
     55          6           0      -10.570252    1.754309   -3.486371
     56          6           0      -11.493540    0.926529   -1.209208
     57          6           0      -12.390074   -0.358741   -1.088041
     58          6           0      -13.864813   -0.010145   -0.937399
     59          6           0      -14.340292    0.020138    0.565423
     60          6           0      -15.795916   -0.466758    0.805895
     61          6           0      -14.067262    1.431223    1.180312
     62          6           0      -13.626604    1.402111    2.673705
     63          6           0      -12.027128    1.108055    2.746764
     64          6           0      -11.080608    2.384020    2.812938
     65          6           0       -9.623197    2.019533    2.449744
     66          6           0      -11.278300    3.142834    4.189572
     67          1           0        3.219573    3.579389   -1.181510
     68          1           0        9.517307    3.201453   -0.019289
     69          1           0        9.214278   -3.050780    0.763384
     70          1           0        1.536836   -0.751032   -1.731357
     71          1           0        1.293301    1.786438   -0.146035
     72          1           0        1.915565    2.128032   -3.022672
     73          1           0        0.398332    2.596807   -2.141330
     74          1           0        0.690465    1.044787   -2.879681
     75          1           0        0.711339   -0.329157    1.192323
     76          1           0        0.467904   -1.851902    0.273431
     77          1           0       -0.749165   -0.140163   -1.300275
     78          1           0       -0.870999    0.829709    0.160036
     79          1           0        4.069354    5.389385   -1.792325
     80          1           0        5.444057    6.540755   -1.736375
     81          1           0        4.647295    6.273643   -0.257050
     82          1           0        6.743016    7.213270   -0.165774
     83          1           0        7.617245    7.006833   -1.644991
     84          1           0        8.453908    7.758686   -0.283193
     85          1           0       10.335088    1.466648    1.983884
     86          1           0       11.072133   -0.981644    0.464621
     87          1           0       11.264426    2.007271   -0.682250
     88          1           0       12.239361    0.599062   -0.379523
     89          1           0       12.362304    1.877193    0.761357
     90          1           0        9.582463   -1.415450    3.020719
     91          1           0       11.041335   -0.468160    3.146796
     92          1           0       11.837208   -2.904169    1.789641
     93          1           0       10.828653   -3.324607    3.109363
     94          1           0       12.305848   -2.293403    3.393910
     95          1           0        6.840559   -5.762362    1.502441
     96          1           0        8.256663   -5.179840    0.605602
     97          1           0        6.913854   -5.960340   -0.255931
     98          1           0        1.959094   -3.247641    0.884604
     99          1           0       -0.589525   -3.438903   -2.021013
    100          1           0       -0.788305   -5.209226   -2.076946
    101          1           0        0.424058   -4.347884   -3.120000
    102          1           0       -4.054804   -2.442648    0.451229
    103          1           0       -4.345511   -2.815538   -1.250923
    104          1           0       -5.200820   -0.054646   -0.635211
    105          1           0       -7.317105   -3.769283   -0.638242
    106          1           0       -7.589373   -3.156655    0.943539
    107          1           0       -5.977689   -3.514378    0.515328
    108          1           0       -7.293371    0.286828   -0.143932
    109          1           0       -8.289832   -0.883900    0.710328
    110          1           0       -9.763445   -1.280620   -1.193074
    111          1           0       -8.418603   -1.390565   -2.277717
    112          1           0       -8.306476    0.639617   -2.872849
    113          1           0       -8.794473    1.319642   -1.350390
    114          1           0      -10.742599   -0.224152   -2.895876
    115          1           0       -9.646520    2.024537   -3.996400
    116          1           0      -11.215413    2.565749   -3.147954
    117          1           0      -11.128089    1.369359   -4.339430
    118          1           0      -12.119064    1.816032   -1.287075
    119          1           0      -10.899644    1.096706   -0.310805
    120          1           0      -11.954129   -0.768474   -0.177056
    121          1           0      -12.373888   -1.109500   -1.877600
    122          1           0      -14.375825   -0.712300   -1.597614
    123          1           0      -14.130295    0.917541   -1.445077
    124          1           0      -13.677354   -0.632748    1.133963
    125          1           0      -15.815982   -1.403830    1.362595
    126          1           0      -16.279247   -0.668830   -0.149210
    127          1           0      -16.388622    0.170619    1.462550
    128          1           0      -14.966876    2.038117    1.077191
    129          1           0      -13.269660    1.928002    0.628016
    130          1           0      -14.229122    0.599401    3.098969
    131          1           0      -13.882163    2.358273    3.129748
    132          1           0      -11.838138    0.575741    1.814188
    133          1           0      -11.830400    0.409277    3.560027
    134          1           0      -11.384613    3.071764    2.024168
    135          1           0       -8.990735    1.932366    3.332506
    136          1           0       -9.228338    2.792647    1.790798
    137          1           0       -9.553324    1.047324    1.961574
    138          1           0      -10.385642    3.762266    4.280984
    139          1           0      -11.464737    2.418207    4.982830
    140          1           0      -12.104637    3.852404    4.203946
 ---------------------------------------------------------------------

 SCF Done:  E(RCAM-B3LYP) =  -3007.15028089     A.U. after   17 cycles

 Excitation energies and oscillator strengths:

 Excited State   1:      Singlet-A      1.6318 eV  759.80 nm  f=0.3870  <S**2>=0.000
     245 -> 248        0.18573
     246 -> 247        0.68472
     245 <- 248        0.11337
 This state for optimization and/or second-order correction.
 Total Energy, E(TD-HF/TD-DFT) =  -3007.09031301
 Copying the excited state density for this state as the 1-particle RhoCI density.

 Excited State   2:      Singlet-A      2.1941 eV  565.08 nm  f=0.0883  <S**2>=0.000
     245 -> 247        0.62925
     246 -> 248       -0.31214

 Excited State   3:      Singlet-A      3.3800 eV  366.82 nm  f=0.3001  <S**2>=0.000
     240 -> 247        0.30707
     240 -> 249        0.18906
     242 -> 247        0.27643
     243 -> 247        0.12077
     245 -> 247        0.19348
     246 -> 248        0.44656

 Excited State   4:      Singlet-A      3.4270 eV  361.79 nm  f=0.1273  <S**2>=0.000
     240 -> 247       -0.26528
     240 -> 249       -0.13953
     240 -> 250        0.10652
     242 -> 247       -0.22214
     243 -> 247        0.48508
     245 -> 247        0.13497
     246 -> 248        0.25550

 Excited State   5:      Singlet-A      3.4710 eV  357.20 nm  f=0.1591  <S**2>=0.000
     240 -> 247        0.33305
     240 -> 249        0.19187
     241 -> 247        0.20660
     242 -> 247       -0.22069
     243 -> 247        0.36924
     245 -> 247       -0.13117
     246 -> 248       -0.28559

 The electronic state is 1-A.
 Alpha  occ. eigenvalues --  -46.88542 -19.25165 -19.24587 -19.20229 -19.19490
 Alpha  occ. eigenvalues --  -19.18720 -19.18130 -14.41934 -14.41649 -14.40240
 Alpha  occ. eigenvalues --  -14.39720 -10.39870 -10.39089 -10.34993 -10.34537
 Alpha  occ. eigenvalues --  -10.31642 -10.31579 -10.31250 -10.31230 -10.30895
 Alpha  occ. eigenvalues --  -10.30603 -10.30597 -10.30170 -10.30144 -10.30044
 Alpha  occ. eigenvalues --  -10.29699 -10.29277 -10.28694 -10.28364 -10.28213
 Alpha  occ. eigenvalues --  -10.28171 -10.28057 -10.27956 -10.27831 -10.27719
 Alpha  occ. eigenvalues --  -10.27515 -10.27192 -10.26989 -10.26829 -10.26554
 Alpha  occ. eigenvalues --  -10.26532 -10.26498 -10.26421 -10.26385 -10.26215
 Alpha  occ. eigenvalues --  -10.26056 -10.26050 -10.25920 -10.25875 -10.25766
 Alpha  occ. eigenvalues --  -10.25721 -10.25408 -10.25284 -10.25225 -10.25214
 Alpha  occ. eigenvalues --  -10.24968 -10.24834 -10.24788 -10.24747 -10.24633
 Alpha  occ. eigenvalues --  -10.24615 -10.24578 -10.24427 -10.24375 -10.23965
 Alpha  occ. eigenvalues --  -10.23546  -3.17192  -1.92070  -1.91673  -1.91496
 Alpha  occ. eigenvalues --   -1.17017  -1.16706  -1.10020  -1.08877  -1.08473
 Alpha  occ. eigenvalues --   -1.07698  -1.05343  -1.02831  -1.01994  -1.01204
 Alpha  occ. eigenvalues --   -0.92281  -0.90581  -0.90369  -0.89634  -0.89425
 Alpha  occ. eigenvalues --   -0.88331  -0.88032  -0.87177  -0.86992  -0.86701
 Alpha  occ. eigenvalues --   -0.85759  -0.85273  -0.83983  -0.83684  -0.83240
 Alpha  occ. eigenvalues --   -0.82472  -0.82250  -0.81478  -0.80656  -0.80127
 Alpha  occ. eigenvalues --   -0.79768  -0.78209  -0.78005  -0.77329  -0.76489
 Alpha  occ. eigenvalues --   -0.76354  -0.75567  -0.75059  -0.74768  -0.73675
 Alpha  occ. eigenvalues --   -0.72966  -0.72570  -0.71638  -0.70213  -0.69503
 Alpha  occ. eigenvalues --   -0.68736  -0.68487  -0.67154  -0.66752  -0.65741
 Alpha  occ. eigenvalues --   -0.65374  -0.64995  -0.64756  -0.64137  -0.63827
 Alpha  occ. eigenvalues --   -0.63560  -0.63216  -0.62003  -0.61546  -0.60252
 Alpha  occ. eigenvalues --   -0.60052  -0.59737  -0.59358  -0.58726  -0.58260
 Alpha  occ. eigenvalues --   -0.57635  -0.57567  -0.56590  -0.55781  -0.55453
 Alpha  occ. eigenvalues --   -0.55365  -0.54908  -0.54446  -0.54353  -0.53981
 Alpha  occ. eigenvalues --   -0.53773  -0.53404  -0.53221  -0.52923  -0.52842
 Alpha  occ. eigenvalues --   -0.52640  -0.52330  -0.51952  -0.51750  -0.51662
 Alpha  occ. eigenvalues --   -0.51273  -0.51061  -0.50937  -0.50908  -0.50635
 Alpha  occ. eigenvalues --   -0.50427  -0.50058  -0.50044  -0.49926  -0.49703
 Alpha  occ. eigenvalues --   -0.49643  -0.49448  -0.49024  -0.48874  -0.48743
 Alpha  occ. eigenvalues --   -0.48628  -0.48429  -0.48245  -0.47879  -0.47780
 Alpha  occ. eigenvalues --   -0.47435  -0.47239  -0.46862  -0.46716  -0.46589
 Alpha  occ. eigenvalues --   -0.46417  -0.46304  -0.46223  -0.45801  -0.45533
 Alpha  occ. eigenvalues --   -0.45430  -0.45320  -0.45105  -0.45007  -0.44909
 Alpha  occ. eigenvalues --   -0.44772  -0.44736  -0.44585  -0.44099  -0.43910
 Alpha  occ. eigenvalues --   -0.43900  -0.43808  -0.43552  -0.43478  -0.42935
 Alpha  occ. eigenvalues --   -0.42874  -0.42742  -0.42271  -0.42178  -0.41968
 Alpha  occ. eigenvalues --   -0.41860  -0.41572  -0.41463  -0.41177  -0.41055
 Alpha  occ. eigenvalues --   -0.40960  -0.40873  -0.40713  -0.40473  -0.40450
 Alpha  occ. eigenvalues --   -0.40187  -0.40047  -0.39882  -0.39421  -0.38405
 Alpha  occ. eigenvalues --   -0.38238  -0.38141  -0.37716  -0.37550  -0.37105
 Alpha  occ. eigenvalues --   -0.36854  -0.36817  -0.36246  -0.36189  -0.35960
 Alpha  occ. eigenvalues --   -0.35804  -0.35667  -0.34864  -0.34674  -0.34342
 Alpha  occ. eigenvalues --   -0.34242  -0.34230  -0.33076  -0.31316  -0.30824
 Alpha  occ. eigenvalues --   -0.30575  -0.29928  -0.29823  -0.28368  -0.24055
 Alpha  occ. eigenvalues --   -0.20896
 Alpha virt. eigenvalues --   -0.08753  -0.02020  -0.00165   0.02087   0.03096
 Alpha virt. eigenvalues --    0.04768   0.05128   0.05156   0.05493   0.06753
 Alpha virt. eigenvalues --    0.07435   0.08544   0.08772   0.08844   0.09051

 Mulliken charges:
               1
     1  Mg   0.828433
     2  C   -0.052658
     3  C   -0.038900
     4  C   -0.080027
     5  C   -0.066020
     6  N   -0.222287
     7  C   -0.027956
     8  C   -0.025203
     9  C   -0.072126
    10  C    0.064158
    11  C    0.062232
    12  C    0.038931
    13  C    0.053025
    14  C    0.159572
    15  O   -0.202197
    16  O   -0.332985
    17  N   -0.471502
    18  C    0.102346
    19  C   -0.152433
    20  C   -0.050936
    21  C    0.152989
    22  C    0.098308
    23  C    0.009799
    24  O   -0.223257
    25  C    0.063376
    26  N   -0.316030
    27  C    0.046220
    28  C   -0.072652
    29  C    0.048206
    30  C    0.012905
    31  C    0.040463
    32  C    0.037511
    33  C    0.012389
    34  N   -0.344457
    35  C    0.134218
    36  C   -0.177658
    37  C   -0.010015
    38  C    0.154909
    39  C    0.121586
    40  C    0.029333
    41  O   -0.162039
    42  C   -0.014601
    43  C    0.183107
    44  O   -0.212767
    45  O   -0.331128
    46  C    0.178249
    47  C    0.250798
    48  C   -0.140340
    49  C   -0.169177
    50  C    0.088268
    51  C    0.085276
    52  C    0.023177
    53  C    0.011623
    54  C   -0.128839
    55  C    0.075728
    56  C    0.040896
    57  C   -0.020482
    58  C    0.052646
    59  C   -0.112891
    60  C    0.070073
    61  C    0.008370
    62  C    0.033608
    63  C    0.019059
    64  C   -0.137712
    65  C    0.045323
    66  C    0.042660
    67  H   -0.033433
    68  H    0.011484
    69  H   -0.023498
    70  H    0.035127
    71  H    0.012001
    72  H    0.017198
    73  H    0.020983
    74  H    0.008326
    75  H    0.007771
    76  H    0.033900
    77  H    0.014712
    78  H    0.031346
    79  H    0.035551
    80  H    0.007867
    81  H    0.043493
    82  H    0.025841
    83  H    0.043079
    84  H    0.029937
    85  H    0.025083
    86  H    0.005680
    87  H    0.034640
    88  H    0.013653
    89  H    0.025018
    90  H    0.016129
    91  H    0.001967
    92  H    0.010303
    93  H    0.018265
    94  H    0.026476
    95  H    0.038725
    96  H    0.003594
    97  H    0.046529
    98  H    0.057395
    99  H    0.015508
   100  H    0.049700
   101  H    0.054881
   102  H    0.054452
   103  H    0.035338
   104  H    0.004905
   105  H    0.035538
   106  H    0.007365
   107  H   -0.000738
   108  H    0.002341
   109  H    0.004999
   110  H   -0.000268
   111  H   -0.002059
   112  H   -0.000986
   113  H   -0.009391
   114  H   -0.010032
   115  H    0.002561
   116  H   -0.004223
   117  H   -0.015859
   118  H    0.015695
   119  H   -0.002076
   120  H    0.016810
   121  H    0.013710
   122  H   -0.022073
   123  H   -0.006510
   124  H   -0.008929
   125  H   -0.001952
   126  H    0.009668
   127  H    0.004599
   128  H   -0.009585
   129  H   -0.012101
   130  H   -0.007524
   131  H   -0.002604
   132  H   -0.022301
   133  H   -0.002132
   134  H   -0.004948
   135  H    0.006108
   136  H    0.013582
   137  H    0.008646
   138  H    0.006676
   139  H    0.016399
   140  H    0.011173
 Sum of Mulliken charges =  -0.00000

 Dipole moment (field-independent basis, Debye):
    X=             -1.4428    Y=              2.7487    Z=             -0.5240  Tot=              3.1483
 Quadrupole moment (field-independent basis, Debye-Ang):
   XX=           -379.7468   YY=           -408.2566   ZZ=           -408.7931
   XY=             -1.7770   XZ=             15.6739   YZ=             -3.8098

 Normal termination of Gaussian 16 at Sat Apr 30 08:32:04 2022.
