 Gaussian 16, Revision A.03,
 Gaussian 16:  ES64L-G16RevA.03 25-Dec-2016

 ---------------------------------
 #p PBE1PBE/Def2SVP td=(nstates=5)
 ---------------------------------

 ----------------------------------------------------
 step_651_chromophore_7 TDDFT with PBE1PBE functional
 ----------------------------------------------------
 Symbolic Z-matrix:
 Charge =  0 Multiplicity = 1

                         Standard orientation:
 ---------------------------------------------------------------------
 Center     Atomic      Atomic             Coordinates (Angstroms)
 Number     Number       Type             X           Y           Z
 ---------------------------------------------------------------------
      1         12           0        6.161730    0.473723    0.062207
      2          6           0        3.524488   -1.954583    0.047370
      3          6           0        3.858054    2.739843   -0.898195
      4          6           0        8.668978    2.547107    0.192288
      5          6           0        8.478228   -2.264823    0.584660
      6          7           0        3.906411    0.305817   -0.646115
      7          6           0        3.012228   -0.642624   -0.317973
      8          6           0        1.659502   -0.244912   -0.773901
      9          6           0        1.788076    1.255125   -0.959244
     10          6           0        3.308330    1.477639   -0.862186
     11          6           0        1.161880    1.833323   -2.291884
     12          6           0        0.515665   -0.764253    0.211985
     13          6           0       -0.811855   -0.193348   -0.213983
     14          6           0       -2.145324   -0.885752    0.208460
     15          8           0       -2.474176   -1.124840    1.339004
     16          8           0       -2.978998   -1.153140   -0.859139
     17          7           0        6.292920    2.399787   -0.232056
     18          6           0        5.223402    3.238509   -0.674247
     19          6           0        5.814585    4.578526   -0.834079
     20          6           0        7.209172    4.534115   -0.448631
     21          6           0        7.438543    3.101073   -0.083919
     22          6           0        4.894058    5.771975   -1.192656
     23          6           0        8.177157    5.657032   -0.276218
     24          8           0        9.334698    5.422449    0.103403
     25          6           0        7.733639    6.989530   -0.561414
     26          7           0        8.253221    0.151350    0.228085
     27          6           0        9.040190    1.254132    0.434872
     28          6           0       10.408671    0.873933    1.071969
     29          6           0       10.350106   -0.679616    1.223542
     30          6           0        8.935466   -0.975139    0.732154
     31          6           0       11.646363    1.368689    0.114430
     32          6           0       10.561974   -1.258939    2.570306
     33          6           0       11.463971   -2.520820    2.739199
     34          7           0        6.080431   -1.614107    0.339623
     35          6           0        7.091962   -2.570433    0.464619
     36          6           0        6.474457   -3.942380    0.491723
     37          6           0        5.033541   -3.733022    0.388218
     38          6           0        4.886779   -2.265435    0.238756
     39          6           0        7.174196   -5.302041    0.572329
     40          6           0        3.735514   -4.357455    0.284439
     41          8           0        3.361130   -5.516922    0.273355
     42          6           0        2.676581   -3.247898    0.063849
     43          6           0        1.981623   -3.568274   -1.201750
     44          8           0        2.323336   -3.227044   -2.310423
     45          8           0        0.824070   -4.257631   -0.991348
     46          6           0       -0.073541   -4.390250   -2.151958
     47          6           0       -4.117701   -2.013253   -0.548380
     48          6           0       -5.364649   -1.125900   -0.520999
     49          6           0       -6.613694   -1.664929   -0.221774
     50          6           0       -6.895684   -3.093027    0.104941
     51          6           0       -7.729069   -0.710908   -0.208466
     52          6           0       -8.796399   -0.832261   -1.420824
     53          6           0       -9.021110    0.521414   -2.057849
     54          6           0      -10.495431    0.718094   -2.407029
     55          6           0      -10.570252    1.754309   -3.486371
     56          6           0      -11.493540    0.926529   -1.209208
     57          6           0      -12.390074   -0.358741   -1.088041
     58          6           0      -13.864813   -0.010145   -0.937399
     59          6           0      -14.340292    0.020138    0.565423
     60          6           0      -15.795916   -0.466758    0.805895
     61          6           0      -14.067262    1.431223    1.180312
     62          6           0      -13.626604    1.402111    2.673705
     63          6           0      -12.027128    1.108055    2.746764
     64          6           0      -11.080608    2.384020    2.812938
     65          6           0       -9.623197    2.019533    2.449744
     66          6           0      -11.278300    3.142834    4.189572
     67          1           0        3.219573    3.579389   -1.181510
     68          1           0        9.517307    3.201453   -0.019289
     69          1           0        9.214278   -3.050780    0.763384
     70          1           0        1.536836   -0.751032   -1.731357
     71          1           0        1.293301    1.786438   -0.146035
     72          1           0        1.915565    2.128032   -3.022672
     73          1           0        0.398332    2.596807   -2.141330
     74          1           0        0.690465    1.044787   -2.879681
     75          1           0        0.711339   -0.329157    1.192323
     76          1           0        0.467904   -1.851902    0.273431
     77          1           0       -0.749165   -0.140163   -1.300275
     78          1           0       -0.870999    0.829709    0.160036
     79          1           0        4.069354    5.389385   -1.792325
     80          1           0        5.444057    6.540755   -1.736375
     81          1           0        4.647295    6.273643   -0.257050
     82          1           0        6.743016    7.213270   -0.165774
     83          1           0        7.617245    7.006833   -1.644991
     84          1           0        8.453908    7.758686   -0.283193
     85          1           0       10.335088    1.466648    1.983884
     86          1           0       11.072133   -0.981644    0.464621
     87          1           0       11.264426    2.007271   -0.682250
     88          1           0       12.239361    0.599062   -0.379523
     89          1           0       12.362304    1.877193    0.761357
     90          1           0        9.582463   -1.415450    3.020719
     91          1           0       11.041335   -0.468160    3.146796
     92          1           0       11.837208   -2.904169    1.789641
     93          1           0       10.828653   -3.324607    3.109363
     94          1           0       12.305848   -2.293403    3.393910
     95          1           0        6.840559   -5.762362    1.502441
     96          1           0        8.256663   -5.179840    0.605602
     97          1           0        6.913854   -5.960340   -0.255931
     98          1           0        1.959094   -3.247641    0.884604
     99          1           0       -0.589525   -3.438903   -2.021013
    100          1           0       -0.788305   -5.209226   -2.076946
    101          1           0        0.424058   -4.347884   -3.120000
    102          1           0       -4.054804   -2.442648    0.451229
    103          1           0       -4.345511   -2.815538   -1.250923
    104          1           0       -5.200820   -0.054646   -0.635211
    105          1           0       -7.317105   -3.769283   -0.638242
    106          1           0       -7.589373   -3.156655    0.943539
    107          1           0       -5.977689   -3.514378    0.515328
    108          1           0       -7.293371    0.286828   -0.143932
    109          1           0       -8.289832   -0.883900    0.710328
    110          1           0       -9.763445   -1.280620   -1.193074
    111          1           0       -8.418603   -1.390565   -2.277717
    112          1           0       -8.306476    0.639617   -2.872849
    113          1           0       -8.794473    1.319642   -1.350390
    114          1           0      -10.742599   -0.224152   -2.895876
    115          1           0       -9.646520    2.024537   -3.996400
    116          1           0      -11.215413    2.565749   -3.147954
    117          1           0      -11.128089    1.369359   -4.339430
    118          1           0      -12.119064    1.816032   -1.287075
    119          1           0      -10.899644    1.096706   -0.310805
    120          1           0      -11.954129   -0.768474   -0.177056
    121          1           0      -12.373888   -1.109500   -1.877600
    122          1           0      -14.375825   -0.712300   -1.597614
    123          1           0      -14.130295    0.917541   -1.445077
    124          1           0      -13.677354   -0.632748    1.133963
    125          1           0      -15.815982   -1.403830    1.362595
    126          1           0      -16.279247   -0.668830   -0.149210
    127          1           0      -16.388622    0.170619    1.462550
    128          1           0      -14.966876    2.038117    1.077191
    129          1           0      -13.269660    1.928002    0.628016
    130          1           0      -14.229122    0.599401    3.098969
    131          1           0      -13.882163    2.358273    3.129748
    132          1           0      -11.838138    0.575741    1.814188
    133          1           0      -11.830400    0.409277    3.560027
    134          1           0      -11.384613    3.071764    2.024168
    135          1           0       -8.990735    1.932366    3.332506
    136          1           0       -9.228338    2.792647    1.790798
    137          1           0       -9.553324    1.047324    1.961574
    138          1           0      -10.385642    3.762266    4.280984
    139          1           0      -11.464737    2.418207    4.982830
    140          1           0      -12.104637    3.852404    4.203946
 ---------------------------------------------------------------------

 SCF Done:  E(RPBE1PBE) =  -3005.33974179     A.U. after   16 cycles

 Excitation energies and oscillator strengths:

 Excited State   1:      Singlet-A      1.7930 eV  691.50 nm  f=0.3755  <S**2>=0.000
     245 -> 248        0.17919
     246 -> 247        0.69324
     246 <- 247       -0.11206
 This state for optimization and/or second-order correction.
 Total Energy, E(TD-HF/TD-DFT) =  -3005.27385121
 Copying the excited state density for this state as the 1-particle RhoCI density.

 Excited State   2:      Singlet-A      2.1965 eV  564.47 nm  f=0.0858  <S**2>=0.000
     245 -> 247        0.64279
     246 -> 248       -0.28574

 Excited State   3:      Singlet-A      2.9400 eV  421.71 nm  f=0.0005  <S**2>=0.000
     241 -> 247        0.37205
     241 -> 249        0.12405
     242 -> 247       -0.14874
     243 -> 247        0.53146
     243 -> 249        0.12289

 Excited State   4:      Singlet-A      3.0243 eV  409.97 nm  f=0.0033  <S**2>=0.000
     240 -> 247        0.22287
     241 -> 247       -0.11003
     242 -> 247        0.58933
     243 -> 247        0.19377

 Excited State   5:      Singlet-A      3.1091 eV  398.78 nm  f=0.0000  <S**2>=0.000
     244 -> 247        0.70703

 The electronic state is 1-A.
 Alpha  occ. eigenvalues --  -46.91963 -19.25876 -19.25186 -19.20485 -19.19626
 Alpha  occ. eigenvalues --  -19.18822 -19.18467 -14.41352 -14.41286 -14.39870
 Alpha  occ. eigenvalues --  -14.39467 -10.36904 -10.36011 -10.32026 -10.31705
 Alpha  occ. eigenvalues --  -10.29086 -10.28904 -10.28896 -10.28829 -10.28768
 Alpha  occ. eigenvalues --  -10.28371 -10.28321 -10.27960 -10.27792 -10.27788
 Alpha  occ. eigenvalues --  -10.27333 -10.27072 -10.26451 -10.26181 -10.25966
 Alpha  occ. eigenvalues --  -10.25957 -10.25771 -10.25427 -10.25410 -10.25356
 Alpha  occ. eigenvalues --  -10.25014 -10.25008 -10.24864 -10.24497 -10.24167
 Alpha  occ. eigenvalues --  -10.24097 -10.24065 -10.24016 -10.23913 -10.23796
 Alpha  occ. eigenvalues --  -10.23669 -10.23439 -10.23383 -10.23348 -10.23318
 Alpha  occ. eigenvalues --  -10.23285 -10.23004 -10.22843 -10.22828 -10.22768
 Alpha  occ. eigenvalues --  -10.22534 -10.22469 -10.22422 -10.22377 -10.22219
 Alpha  occ. eigenvalues --  -10.22174 -10.21998 -10.21995 -10.21763 -10.21525
 Alpha  occ. eigenvalues --  -10.20938  -3.14190  -1.87010  -1.86590  -1.86419
 Alpha  occ. eigenvalues --   -1.11834  -1.11397  -1.04654  -1.03677  -1.03359
 Alpha  occ. eigenvalues --   -1.02449  -0.99956  -0.97447  -0.96654  -0.95899
 Alpha  occ. eigenvalues --   -0.86551  -0.84744  -0.84508  -0.83965  -0.83531
 Alpha  occ. eigenvalues --   -0.82427  -0.82391  -0.81509  -0.81291  -0.80782
 Alpha  occ. eigenvalues --   -0.80026  -0.79524  -0.78235  -0.77896  -0.77503
 Alpha  occ. eigenvalues --   -0.76748  -0.76463  -0.75760  -0.74908  -0.74428
 Alpha  occ. eigenvalues --   -0.73911  -0.72543  -0.72240  -0.71637  -0.70759
 Alpha  occ. eigenvalues --   -0.70516  -0.69642  -0.69442  -0.68924  -0.67815
 Alpha  occ. eigenvalues --   -0.67287  -0.67018  -0.66087  -0.64519  -0.63884
 Alpha  occ. eigenvalues --   -0.63163  -0.62677  -0.61613  -0.61081  -0.60149
 Alpha  occ. eigenvalues --   -0.59825  -0.59344  -0.59188  -0.58731  -0.57946
 Alpha  occ. eigenvalues --   -0.57737  -0.57683  -0.56555  -0.55767  -0.54768
 Alpha  occ. eigenvalues --   -0.54566  -0.54141  -0.53903  -0.53176  -0.52813
 Alpha  occ. eigenvalues --   -0.52128  -0.51970  -0.51158  -0.50349  -0.50034
 Alpha  occ. eigenvalues --   -0.49899  -0.49544  -0.48924  -0.48804  -0.48412
 Alpha  occ. eigenvalues --   -0.48287  -0.47896  -0.47761  -0.47493  -0.47277
 Alpha  occ. eigenvalues --   -0.47139  -0.46870  -0.46593  -0.46273  -0.46218
 Alpha  occ. eigenvalues --   -0.45798  -0.45617  -0.45532  -0.45401  -0.45204
 Alpha  occ. eigenvalues --   -0.45003  -0.44690  -0.44636  -0.44531  -0.44306
 Alpha  occ. eigenvalues --   -0.44159  -0.43922  -0.43662  -0.43450  -0.43331
 Alpha  occ. eigenvalues --   -0.43179  -0.43054  -0.42964  -0.42523  -0.42446
 Alpha  occ. eigenvalues --   -0.42122  -0.41939  -0.41434  -0.41316  -0.41235
 Alpha  occ. eigenvalues --   -0.41080  -0.40980  -0.40924  -0.40538  -0.40224
 Alpha  occ. eigenvalues --   -0.40207  -0.40043  -0.39808  -0.39713  -0.39644
 Alpha  occ. eigenvalues --   -0.39474  -0.39417  -0.39359  -0.38797  -0.38677
 Alpha  occ. eigenvalues --   -0.38608  -0.38573  -0.38266  -0.38226  -0.37785
 Alpha  occ. eigenvalues --   -0.37738  -0.37566  -0.37174  -0.37016  -0.36823
 Alpha  occ. eigenvalues --   -0.36686  -0.36402  -0.36259  -0.35999  -0.35909
 Alpha  occ. eigenvalues --   -0.35809  -0.35769  -0.35506  -0.35332  -0.35198
 Alpha  occ. eigenvalues --   -0.35061  -0.34904  -0.34843  -0.34224  -0.33186
 Alpha  occ. eigenvalues --   -0.33147  -0.33004  -0.32599  -0.32545  -0.31981
 Alpha  occ. eigenvalues --   -0.31891  -0.31701  -0.31321  -0.31105  -0.30821
 Alpha  occ. eigenvalues --   -0.30705  -0.30518  -0.29752  -0.29716  -0.29228
 Alpha  occ. eigenvalues --   -0.29174  -0.29046  -0.28672  -0.26732  -0.25838
 Alpha  occ. eigenvalues --   -0.25702  -0.25401  -0.25361  -0.23730  -0.20999
 Alpha  occ. eigenvalues --   -0.18584
 Alpha virt. eigenvalues --   -0.11226  -0.05491  -0.04332  -0.02297   0.00279
 Alpha virt. eigenvalues --    0.00353   0.00712   0.00749   0.01034   0.02854
 Alpha virt. eigenvalues --    0.03640   0.04534   0.05230   0.05344   0.05784

 Mulliken charges:
               1
     1  Mg   0.981007
     2  C   -0.040930
     3  C   -0.038149
     4  C   -0.067500
     5  C   -0.049588
     6  N   -0.324736
     7  C    0.050799
     8  C   -0.102719
     9  C   -0.157352
    10  C    0.100381
    11  C    0.007307
    12  C   -0.012743
    13  C   -0.026745
    14  C    0.232361
    15  O   -0.236024
    16  O   -0.365538
    17  N   -0.590373
    18  C    0.136855
    19  C   -0.179769
    20  C   -0.096965
    21  C    0.189604
    22  C    0.036221
    23  C    0.056226
    24  O   -0.261772
    25  C   -0.010452
    26  N   -0.408932
    27  C    0.073831
    28  C   -0.142492
    29  C   -0.031867
    30  C    0.039733
    31  C   -0.016989
    32  C   -0.022219
    33  C   -0.059141
    34  N   -0.468437
    35  C    0.144705
    36  C   -0.186099
    37  C   -0.050537
    38  C    0.188995
    39  C    0.067825
    40  C    0.117238
    41  O   -0.208547
    42  C   -0.131285
    43  C    0.274028
    44  O   -0.249381
    45  O   -0.363520
    46  C    0.120642
    47  C    0.205663
    48  C   -0.145715
    49  C   -0.210698
    50  C    0.027022
    51  C    0.014415
    52  C   -0.040084
    53  C   -0.040136
    54  C   -0.219202
    55  C    0.019156
    56  C   -0.013876
    57  C   -0.085734
    58  C   -0.001951
    59  C   -0.198762
    60  C    0.011692
    61  C   -0.050933
    62  C   -0.028825
    63  C   -0.046812
    64  C   -0.224514
    65  C   -0.020794
    66  C   -0.019401
    67  H   -0.001000
    68  H    0.042587
    69  H    0.010278
    70  H    0.074130
    71  H    0.049905
    72  H    0.044694
    73  H    0.047887
    74  H    0.034936
    75  H    0.041365
    76  H    0.070571
    77  H    0.049185
    78  H    0.062926
    79  H    0.062253
    80  H    0.037161
    81  H    0.072139
    82  H    0.053913
    83  H    0.070990
    84  H    0.057732
    85  H    0.060887
    86  H    0.043163
    87  H    0.060710
    88  H    0.040241
    89  H    0.052678
    90  H    0.049366
    91  H    0.036265
    92  H    0.036944
    93  H    0.045646
    94  H    0.053727
    95  H    0.065868
    96  H    0.030652
    97  H    0.072807
    98  H    0.092135
    99  H    0.040428
   100  H    0.070961
   101  H    0.075804
   102  H    0.081132
   103  H    0.063133
   104  H    0.033576
   105  H    0.061483
   106  H    0.034784
   107  H    0.026899
   108  H    0.033008
   109  H    0.039750
   110  H    0.035406
   111  H    0.031571
   112  H    0.030680
   113  H    0.024280
   114  H    0.030208
   115  H    0.028864
   116  H    0.023656
   117  H    0.012753
   118  H    0.043998
   119  H    0.037163
   120  H    0.048249
   121  H    0.043297
   122  H    0.010765
   123  H    0.026449
   124  H    0.030200
   125  H    0.025830
   126  H    0.036801
   127  H    0.030876
   128  H    0.023694
   129  H    0.027086
   130  H    0.026619
   131  H    0.030301
   132  H    0.016920
   133  H    0.030408
   134  H    0.032574
   135  H    0.034180
   136  H    0.040606
   137  H    0.038855
   138  H    0.034948
   139  H    0.043593
   140  H    0.038006
 Sum of Mulliken charges =  -0.00000

 Dipole moment (field-independent basis, Debye):
    X=             -1.3362    Y=              2.9412    Z=             -0.5472  Tot=              3.2765
 Quadrupole moment (field-independent basis, Debye-Ang):
   XX=           -372.5112   YY=           -405.2713   ZZ=           -406.3583
   XY=             -1.1827   XZ=             16.3673   YZ=             -4.0572

 Normal termination of Gaussian 16 at Sat Apr 30 08:56:07 2022.
