 Gaussian 16, Revision A.03,
 Gaussian 16:  ES64L-G16RevA.03 25-Dec-2016

 --------------------------------
 #p wB97XD/Def2SVP td=(nstates=5)
 --------------------------------

 ---------------------------------------------------
 step_651_chromophore_7 TDDFT with wB97XD functional
 ---------------------------------------------------
 Symbolic Z-matrix:
 Charge =  0 Multiplicity = 1

                         Standard orientation:
 ---------------------------------------------------------------------
 Center     Atomic      Atomic             Coordinates (Angstroms)
 Number     Number       Type             X           Y           Z
 ---------------------------------------------------------------------
      1         12           0        6.161730    0.473723    0.062207
      2          6           0        3.524488   -1.954583    0.047370
      3          6           0        3.858054    2.739843   -0.898195
      4          6           0        8.668978    2.547107    0.192288
      5          6           0        8.478228   -2.264823    0.584660
      6          7           0        3.906411    0.305817   -0.646115
      7          6           0        3.012228   -0.642624   -0.317973
      8          6           0        1.659502   -0.244912   -0.773901
      9          6           0        1.788076    1.255125   -0.959244
     10          6           0        3.308330    1.477639   -0.862186
     11          6           0        1.161880    1.833323   -2.291884
     12          6           0        0.515665   -0.764253    0.211985
     13          6           0       -0.811855   -0.193348   -0.213983
     14          6           0       -2.145324   -0.885752    0.208460
     15          8           0       -2.474176   -1.124840    1.339004
     16          8           0       -2.978998   -1.153140   -0.859139
     17          7           0        6.292920    2.399787   -0.232056
     18          6           0        5.223402    3.238509   -0.674247
     19          6           0        5.814585    4.578526   -0.834079
     20          6           0        7.209172    4.534115   -0.448631
     21          6           0        7.438543    3.101073   -0.083919
     22          6           0        4.894058    5.771975   -1.192656
     23          6           0        8.177157    5.657032   -0.276218
     24          8           0        9.334698    5.422449    0.103403
     25          6           0        7.733639    6.989530   -0.561414
     26          7           0        8.253221    0.151350    0.228085
     27          6           0        9.040190    1.254132    0.434872
     28          6           0       10.408671    0.873933    1.071969
     29          6           0       10.350106   -0.679616    1.223542
     30          6           0        8.935466   -0.975139    0.732154
     31          6           0       11.646363    1.368689    0.114430
     32          6           0       10.561974   -1.258939    2.570306
     33          6           0       11.463971   -2.520820    2.739199
     34          7           0        6.080431   -1.614107    0.339623
     35          6           0        7.091962   -2.570433    0.464619
     36          6           0        6.474457   -3.942380    0.491723
     37          6           0        5.033541   -3.733022    0.388218
     38          6           0        4.886779   -2.265435    0.238756
     39          6           0        7.174196   -5.302041    0.572329
     40          6           0        3.735514   -4.357455    0.284439
     41          8           0        3.361130   -5.516922    0.273355
     42          6           0        2.676581   -3.247898    0.063849
     43          6           0        1.981623   -3.568274   -1.201750
     44          8           0        2.323336   -3.227044   -2.310423
     45          8           0        0.824070   -4.257631   -0.991348
     46          6           0       -0.073541   -4.390250   -2.151958
     47          6           0       -4.117701   -2.013253   -0.548380
     48          6           0       -5.364649   -1.125900   -0.520999
     49          6           0       -6.613694   -1.664929   -0.221774
     50          6           0       -6.895684   -3.093027    0.104941
     51          6           0       -7.729069   -0.710908   -0.208466
     52          6           0       -8.796399   -0.832261   -1.420824
     53          6           0       -9.021110    0.521414   -2.057849
     54          6           0      -10.495431    0.718094   -2.407029
     55          6           0      -10.570252    1.754309   -3.486371
     56          6           0      -11.493540    0.926529   -1.209208
     57          6           0      -12.390074   -0.358741   -1.088041
     58          6           0      -13.864813   -0.010145   -0.937399
     59          6           0      -14.340292    0.020138    0.565423
     60          6           0      -15.795916   -0.466758    0.805895
     61          6           0      -14.067262    1.431223    1.180312
     62          6           0      -13.626604    1.402111    2.673705
     63          6           0      -12.027128    1.108055    2.746764
     64          6           0      -11.080608    2.384020    2.812938
     65          6           0       -9.623197    2.019533    2.449744
     66          6           0      -11.278300    3.142834    4.189572
     67          1           0        3.219573    3.579389   -1.181510
     68          1           0        9.517307    3.201453   -0.019289
     69          1           0        9.214278   -3.050780    0.763384
     70          1           0        1.536836   -0.751032   -1.731357
     71          1           0        1.293301    1.786438   -0.146035
     72          1           0        1.915565    2.128032   -3.022672
     73          1           0        0.398332    2.596807   -2.141330
     74          1           0        0.690465    1.044787   -2.879681
     75          1           0        0.711339   -0.329157    1.192323
     76          1           0        0.467904   -1.851902    0.273431
     77          1           0       -0.749165   -0.140163   -1.300275
     78          1           0       -0.870999    0.829709    0.160036
     79          1           0        4.069354    5.389385   -1.792325
     80          1           0        5.444057    6.540755   -1.736375
     81          1           0        4.647295    6.273643   -0.257050
     82          1           0        6.743016    7.213270   -0.165774
     83          1           0        7.617245    7.006833   -1.644991
     84          1           0        8.453908    7.758686   -0.283193
     85          1           0       10.335088    1.466648    1.983884
     86          1           0       11.072133   -0.981644    0.464621
     87          1           0       11.264426    2.007271   -0.682250
     88          1           0       12.239361    0.599062   -0.379523
     89          1           0       12.362304    1.877193    0.761357
     90          1           0        9.582463   -1.415450    3.020719
     91          1           0       11.041335   -0.468160    3.146796
     92          1           0       11.837208   -2.904169    1.789641
     93          1           0       10.828653   -3.324607    3.109363
     94          1           0       12.305848   -2.293403    3.393910
     95          1           0        6.840559   -5.762362    1.502441
     96          1           0        8.256663   -5.179840    0.605602
     97          1           0        6.913854   -5.960340   -0.255931
     98          1           0        1.959094   -3.247641    0.884604
     99          1           0       -0.589525   -3.438903   -2.021013
    100          1           0       -0.788305   -5.209226   -2.076946
    101          1           0        0.424058   -4.347884   -3.120000
    102          1           0       -4.054804   -2.442648    0.451229
    103          1           0       -4.345511   -2.815538   -1.250923
    104          1           0       -5.200820   -0.054646   -0.635211
    105          1           0       -7.317105   -3.769283   -0.638242
    106          1           0       -7.589373   -3.156655    0.943539
    107          1           0       -5.977689   -3.514378    0.515328
    108          1           0       -7.293371    0.286828   -0.143932
    109          1           0       -8.289832   -0.883900    0.710328
    110          1           0       -9.763445   -1.280620   -1.193074
    111          1           0       -8.418603   -1.390565   -2.277717
    112          1           0       -8.306476    0.639617   -2.872849
    113          1           0       -8.794473    1.319642   -1.350390
    114          1           0      -10.742599   -0.224152   -2.895876
    115          1           0       -9.646520    2.024537   -3.996400
    116          1           0      -11.215413    2.565749   -3.147954
    117          1           0      -11.128089    1.369359   -4.339430
    118          1           0      -12.119064    1.816032   -1.287075
    119          1           0      -10.899644    1.096706   -0.310805
    120          1           0      -11.954129   -0.768474   -0.177056
    121          1           0      -12.373888   -1.109500   -1.877600
    122          1           0      -14.375825   -0.712300   -1.597614
    123          1           0      -14.130295    0.917541   -1.445077
    124          1           0      -13.677354   -0.632748    1.133963
    125          1           0      -15.815982   -1.403830    1.362595
    126          1           0      -16.279247   -0.668830   -0.149210
    127          1           0      -16.388622    0.170619    1.462550
    128          1           0      -14.966876    2.038117    1.077191
    129          1           0      -13.269660    1.928002    0.628016
    130          1           0      -14.229122    0.599401    3.098969
    131          1           0      -13.882163    2.358273    3.129748
    132          1           0      -11.838138    0.575741    1.814188
    133          1           0      -11.830400    0.409277    3.560027
    134          1           0      -11.384613    3.071764    2.024168
    135          1           0       -8.990735    1.932366    3.332506
    136          1           0       -9.228338    2.792647    1.790798
    137          1           0       -9.553324    1.047324    1.961574
    138          1           0      -10.385642    3.762266    4.280984
    139          1           0      -11.464737    2.418207    4.982830
    140          1           0      -12.104637    3.852404    4.203946
 ---------------------------------------------------------------------

 SCF Done:  E(RwB97XD) =  -3007.85260078     A.U. after   19 cycles

 Excitation energies and oscillator strengths:

 Excited State   1:      Singlet-A      1.5699 eV  789.74 nm  f=0.3846  <S**2>=0.000
     245 -> 248        0.19169
     246 -> 247        0.68251
     245 <- 248        0.12355
 This state for optimization and/or second-order correction.
 Total Energy, E(TD-HF/TD-DFT) =  -3007.79490662
 Copying the excited state density for this state as the 1-particle RhoCI density.

 Excited State   2:      Singlet-A      2.1391 eV  579.61 nm  f=0.0857  <S**2>=0.000
     245 -> 247        0.62735
     246 -> 248       -0.31465

 Excited State   3:      Singlet-A      3.3922 eV  365.50 nm  f=0.3424  <S**2>=0.000
     240 -> 247        0.26018
     240 -> 249        0.18344
     242 -> 247        0.28896
     243 -> 247        0.11730
     245 -> 247        0.20405
     246 -> 248        0.46778

 Excited State   4:      Singlet-A      3.4512 eV  359.25 nm  f=0.1493  <S**2>=0.000
     240 -> 247       -0.24938
     240 -> 249       -0.15181
     240 -> 250        0.11461
     242 -> 247       -0.28148
     243 -> 247        0.43454
     245 -> 247        0.14425
     246 -> 248        0.27214

 Excited State   5:      Singlet-A      3.4856 eV  355.70 nm  f=0.1082  <S**2>=0.000
     240 -> 247        0.37613
     240 -> 249        0.21985
     241 -> 247        0.17061
     242 -> 247       -0.23684
     243 -> 247        0.36193
     245 -> 247       -0.10428
     246 -> 248       -0.23325

 The electronic state is 1-A.
 Alpha  occ. eigenvalues --  -46.94884 -19.30445 -19.29836 -19.25192 -19.24441
 Alpha  occ. eigenvalues --  -19.23829 -19.23137 -14.46528 -14.46256 -14.44885
 Alpha  occ. eigenvalues --  -14.44319 -10.43716 -10.42948 -10.39053 -10.38445
 Alpha  occ. eigenvalues --  -10.35569 -10.35355 -10.35333 -10.35275 -10.34938
 Alpha  occ. eigenvalues --  -10.34648 -10.34585 -10.34225 -10.34150 -10.34038
 Alpha  occ. eigenvalues --  -10.33930 -10.33418 -10.32886 -10.32421 -10.32304
 Alpha  occ. eigenvalues --  -10.32248 -10.32103 -10.31907 -10.31842 -10.31806
 Alpha  occ. eigenvalues --  -10.31448 -10.31222 -10.31048 -10.30852 -10.30567
 Alpha  occ. eigenvalues --  -10.30539 -10.30467 -10.30396 -10.30350 -10.30087
 Alpha  occ. eigenvalues --  -10.29975 -10.29881 -10.29759 -10.29735 -10.29723
 Alpha  occ. eigenvalues --  -10.29703 -10.29371 -10.29236 -10.29200 -10.29144
 Alpha  occ. eigenvalues --  -10.28914 -10.28781 -10.28742 -10.28612 -10.28576
 Alpha  occ. eigenvalues --  -10.28572 -10.28428 -10.28362 -10.28200 -10.27893
 Alpha  occ. eigenvalues --  -10.27366  -3.20965  -1.94534  -1.94117  -1.93939
 Alpha  occ. eigenvalues --   -1.19225  -1.18886  -1.12311  -1.11051  -1.10718
 Alpha  occ. eigenvalues --   -1.09911  -1.07362  -1.04832  -1.04033  -1.03226
 Alpha  occ. eigenvalues --   -0.94295  -0.92421  -0.92181  -0.91516  -0.91218
 Alpha  occ. eigenvalues --   -0.90106  -0.89951  -0.89105  -0.88907  -0.88465
 Alpha  occ. eigenvalues --   -0.87730  -0.87196  -0.85894  -0.85560  -0.85149
 Alpha  occ. eigenvalues --   -0.84354  -0.84115  -0.83425  -0.82547  -0.82059
 Alpha  occ. eigenvalues --   -0.81596  -0.80165  -0.79931  -0.79256  -0.78437
 Alpha  occ. eigenvalues --   -0.78203  -0.77352  -0.76998  -0.76597  -0.75501
 Alpha  occ. eigenvalues --   -0.74915  -0.74576  -0.73618  -0.72139  -0.71432
 Alpha  occ. eigenvalues --   -0.70764  -0.70347  -0.69124  -0.68674  -0.67689
 Alpha  occ. eigenvalues --   -0.67323  -0.66871  -0.66727  -0.66156  -0.65637
 Alpha  occ. eigenvalues --   -0.65385  -0.65201  -0.64023  -0.63386  -0.62225
 Alpha  occ. eigenvalues --   -0.62010  -0.61666  -0.61348  -0.60689  -0.60277
 Alpha  occ. eigenvalues --   -0.59589  -0.59526  -0.58554  -0.57759  -0.57438
 Alpha  occ. eigenvalues --   -0.57308  -0.56913  -0.56368  -0.56272  -0.55848
 Alpha  occ. eigenvalues --   -0.55692  -0.55318  -0.55122  -0.54846  -0.54732
 Alpha  occ. eigenvalues --   -0.54584  -0.54281  -0.53889  -0.53627  -0.53577
 Alpha  occ. eigenvalues --   -0.53173  -0.53025  -0.52867  -0.52778  -0.52563
 Alpha  occ. eigenvalues --   -0.52334  -0.51973  -0.51932  -0.51857  -0.51606
 Alpha  occ. eigenvalues --   -0.51547  -0.51373  -0.50973  -0.50784  -0.50645
 Alpha  occ. eigenvalues --   -0.50560  -0.50350  -0.50199  -0.49755  -0.49712
 Alpha  occ. eigenvalues --   -0.49339  -0.49166  -0.48719  -0.48581  -0.48545
 Alpha  occ. eigenvalues --   -0.48326  -0.48196  -0.48163  -0.47750  -0.47436
 Alpha  occ. eigenvalues --   -0.47375  -0.47258  -0.47032  -0.46871  -0.46850
 Alpha  occ. eigenvalues --   -0.46717  -0.46639  -0.46515  -0.45968  -0.45798
 Alpha  occ. eigenvalues --   -0.45770  -0.45743  -0.45480  -0.45409  -0.44885
 Alpha  occ. eigenvalues --   -0.44846  -0.44699  -0.44147  -0.44101  -0.43945
 Alpha  occ. eigenvalues --   -0.43850  -0.43445  -0.43361  -0.43123  -0.42987
 Alpha  occ. eigenvalues --   -0.42887  -0.42778  -0.42598  -0.42347  -0.42316
 Alpha  occ. eigenvalues --   -0.42089  -0.41946  -0.41777  -0.41276  -0.40264
 Alpha  occ. eigenvalues --   -0.40078  -0.40046  -0.39551  -0.39486  -0.38999
 Alpha  occ. eigenvalues --   -0.38893  -0.38700  -0.38279  -0.38037  -0.37978
 Alpha  occ. eigenvalues --   -0.37712  -0.37528  -0.36724  -0.36641  -0.36277
 Alpha  occ. eigenvalues --   -0.36209  -0.36092  -0.35352  -0.33398  -0.32845
 Alpha  occ. eigenvalues --   -0.32638  -0.32148  -0.31978  -0.30415  -0.25986
 Alpha  occ. eigenvalues --   -0.22693
 Alpha virt. eigenvalues --   -0.07117  -0.00109   0.01894   0.04200   0.06135
 Alpha virt. eigenvalues --    0.07090   0.07376   0.07420   0.07789   0.09476
 Alpha virt. eigenvalues --    0.09936   0.11398   0.11754   0.12110   0.12596

 Mulliken charges:
               1
     1  Mg   0.970353
     2  C   -0.052984
     3  C   -0.049599
     4  C   -0.087202
     5  C   -0.073228
     6  N   -0.287502
     7  C    0.017193
     8  C   -0.070906
     9  C   -0.130139
    10  C    0.087072
    11  C    0.015070
    12  C   -0.000408
    13  C   -0.003697
    14  C    0.220121
    15  O   -0.233427
    16  O   -0.364699
    17  N   -0.559757
    18  C    0.120891
    19  C   -0.170115
    20  C   -0.091939
    21  C    0.178156
    22  C    0.051142
    23  C    0.054277
    24  O   -0.255901
    25  C    0.000539
    26  N   -0.383952
    27  C    0.069370
    28  C   -0.122920
    29  C   -0.005667
    30  C    0.038495
    31  C   -0.004739
    32  C   -0.009398
    33  C   -0.044147
    34  N   -0.432734
    35  C    0.144648
    36  C   -0.188010
    37  C   -0.050441
    38  C    0.179440
    39  C    0.081045
    40  C    0.104397
    41  O   -0.198143
    42  C   -0.088004
    43  C    0.248029
    44  O   -0.242156
    45  O   -0.361940
    46  C    0.137179
    47  C    0.224171
    48  C   -0.157150
    49  C   -0.198565
    50  C    0.039412
    51  C    0.040713
    52  C   -0.023544
    53  C   -0.024279
    54  C   -0.181467
    55  C    0.029675
    56  C    0.009256
    57  C   -0.066738
    58  C    0.015090
    59  C   -0.168967
    60  C    0.021267
    61  C   -0.025248
    62  C   -0.014174
    63  C   -0.015029
    64  C   -0.198017
    65  C   -0.003436
    66  C   -0.007792
    67  H   -0.009108
    68  H    0.034579
    69  H    0.002503
    70  H    0.059729
    71  H    0.038481
    72  H    0.039418
    73  H    0.043622
    74  H    0.028639
    75  H    0.034907
    76  H    0.055128
    77  H    0.038421
    78  H    0.056541
    79  H    0.057589
    80  H    0.030005
    81  H    0.066578
    82  H    0.046867
    83  H    0.064256
    84  H    0.056898
    85  H    0.051685
    86  H    0.030510
    87  H    0.054473
    88  H    0.034793
    89  H    0.046929
    90  H    0.040466
    91  H    0.028141
    92  H    0.030605
    93  H    0.039478
    94  H    0.049427
    95  H    0.061314
    96  H    0.025475
    97  H    0.069183
    98  H    0.087198
    99  H    0.034968
   100  H    0.068353
   101  H    0.072382
   102  H    0.073448
   103  H    0.058046
   104  H    0.031185
   105  H    0.057660
   106  H    0.029842
   107  H    0.020166
   108  H    0.023271
   109  H    0.028822
   110  H    0.022484
   111  H    0.022939
   112  H    0.023414
   113  H    0.011277
   114  H    0.013363
   115  H    0.023702
   116  H    0.017215
   117  H    0.006705
   118  H    0.033184
   119  H    0.014309
   120  H    0.036970
   121  H    0.036447
   122  H    0.003478
   123  H    0.016353
   124  H    0.014231
   125  H    0.020429
   126  H    0.031329
   127  H    0.025205
   128  H    0.015751
   129  H    0.005816
   130  H    0.017286
   131  H    0.022287
   132  H   -0.010387
   133  H    0.022924
   134  H    0.021360
   135  H    0.028865
   136  H    0.035544
   137  H    0.026972
   138  H    0.029047
   139  H    0.037303
   140  H    0.032486
 Sum of Mulliken charges =  -0.00000

 Dipole moment (field-independent basis, Debye):
    X=             -1.5224    Y=              2.7129    Z=             -0.5493  Tot=              3.1590
 Quadrupole moment (field-independent basis, Debye-Ang):
   XX=           -374.7953   YY=           -403.6224   ZZ=           -405.9775
   XY=             -2.2340   XZ=             16.3359   YZ=             -4.0553

 Normal termination of Gaussian 16 at Sat Apr 30 09:33:10 2022.
