 Gaussian 16, Revision A.03,
 Gaussian 16:  ES64L-G16RevA.03 25-Dec-2016

 --------------------
 #p ZINDO=(nstates=5)
 --------------------

 ----------------------------
 step_651_chromophore_7 ZINDO
 ----------------------------
 Symbolic Z-matrix:
 Charge =  0 Multiplicity = 1

                         Standard orientation:
 ---------------------------------------------------------------------
 Center     Atomic      Atomic             Coordinates (Angstroms)
 Number     Number       Type             X           Y           Z
 ---------------------------------------------------------------------
      1         12           0        6.161730    0.473723    0.062207
      2          6           0        3.524488   -1.954583    0.047370
      3          6           0        3.858054    2.739843   -0.898195
      4          6           0        8.668978    2.547107    0.192288
      5          6           0        8.478228   -2.264823    0.584660
      6          7           0        3.906411    0.305817   -0.646115
      7          6           0        3.012228   -0.642624   -0.317973
      8          6           0        1.659502   -0.244912   -0.773901
      9          6           0        1.788076    1.255125   -0.959244
     10          6           0        3.308330    1.477639   -0.862186
     11          6           0        1.161880    1.833323   -2.291884
     12          6           0        0.515665   -0.764253    0.211985
     13          6           0       -0.811855   -0.193348   -0.213983
     14          6           0       -2.145324   -0.885752    0.208460
     15          8           0       -2.474176   -1.124840    1.339004
     16          8           0       -2.978998   -1.153140   -0.859139
     17          7           0        6.292920    2.399787   -0.232056
     18          6           0        5.223402    3.238509   -0.674247
     19          6           0        5.814585    4.578526   -0.834079
     20          6           0        7.209172    4.534115   -0.448631
     21          6           0        7.438543    3.101073   -0.083919
     22          6           0        4.894058    5.771975   -1.192656
     23          6           0        8.177157    5.657032   -0.276218
     24          8           0        9.334698    5.422449    0.103403
     25          6           0        7.733639    6.989530   -0.561414
     26          7           0        8.253221    0.151350    0.228085
     27          6           0        9.040190    1.254132    0.434872
     28          6           0       10.408671    0.873933    1.071969
     29          6           0       10.350106   -0.679616    1.223542
     30          6           0        8.935466   -0.975139    0.732154
     31          6           0       11.646363    1.368689    0.114430
     32          6           0       10.561974   -1.258939    2.570306
     33          6           0       11.463971   -2.520820    2.739199
     34          7           0        6.080431   -1.614107    0.339623
     35          6           0        7.091962   -2.570433    0.464619
     36          6           0        6.474457   -3.942380    0.491723
     37          6           0        5.033541   -3.733022    0.388218
     38          6           0        4.886779   -2.265435    0.238756
     39          6           0        7.174196   -5.302041    0.572329
     40          6           0        3.735514   -4.357455    0.284439
     41          8           0        3.361130   -5.516922    0.273355
     42          6           0        2.676581   -3.247898    0.063849
     43          6           0        1.981623   -3.568274   -1.201750
     44          8           0        2.323336   -3.227044   -2.310423
     45          8           0        0.824070   -4.257631   -0.991348
     46          6           0       -0.073541   -4.390250   -2.151958
     47          6           0       -4.117701   -2.013253   -0.548380
     48          6           0       -5.364649   -1.125900   -0.520999
     49          6           0       -6.613694   -1.664929   -0.221774
     50          6           0       -6.895684   -3.093027    0.104941
     51          6           0       -7.729069   -0.710908   -0.208466
     52          6           0       -8.796399   -0.832261   -1.420824
     53          6           0       -9.021110    0.521414   -2.057849
     54          6           0      -10.495431    0.718094   -2.407029
     55          6           0      -10.570252    1.754309   -3.486371
     56          6           0      -11.493540    0.926529   -1.209208
     57          6           0      -12.390074   -0.358741   -1.088041
     58          6           0      -13.864813   -0.010145   -0.937399
     59          6           0      -14.340292    0.020138    0.565423
     60          6           0      -15.795916   -0.466758    0.805895
     61          6           0      -14.067262    1.431223    1.180312
     62          6           0      -13.626604    1.402111    2.673705
     63          6           0      -12.027128    1.108055    2.746764
     64          6           0      -11.080608    2.384020    2.812938
     65          6           0       -9.623197    2.019533    2.449744
     66          6           0      -11.278300    3.142834    4.189572
     67          1           0        3.219573    3.579389   -1.181510
     68          1           0        9.517307    3.201453   -0.019289
     69          1           0        9.214278   -3.050780    0.763384
     70          1           0        1.536836   -0.751032   -1.731357
     71          1           0        1.293301    1.786438   -0.146035
     72          1           0        1.915565    2.128032   -3.022672
     73          1           0        0.398332    2.596807   -2.141330
     74          1           0        0.690465    1.044787   -2.879681
     75          1           0        0.711339   -0.329157    1.192323
     76          1           0        0.467904   -1.851902    0.273431
     77          1           0       -0.749165   -0.140163   -1.300275
     78          1           0       -0.870999    0.829709    0.160036
     79          1           0        4.069354    5.389385   -1.792325
     80          1           0        5.444057    6.540755   -1.736375
     81          1           0        4.647295    6.273643   -0.257050
     82          1           0        6.743016    7.213270   -0.165774
     83          1           0        7.617245    7.006833   -1.644991
     84          1           0        8.453908    7.758686   -0.283193
     85          1           0       10.335088    1.466648    1.983884
     86          1           0       11.072133   -0.981644    0.464621
     87          1           0       11.264426    2.007271   -0.682250
     88          1           0       12.239361    0.599062   -0.379523
     89          1           0       12.362304    1.877193    0.761357
     90          1           0        9.582463   -1.415450    3.020719
     91          1           0       11.041335   -0.468160    3.146796
     92          1           0       11.837208   -2.904169    1.789641
     93          1           0       10.828653   -3.324607    3.109363
     94          1           0       12.305848   -2.293403    3.393910
     95          1           0        6.840559   -5.762362    1.502441
     96          1           0        8.256663   -5.179840    0.605602
     97          1           0        6.913854   -5.960340   -0.255931
     98          1           0        1.959094   -3.247641    0.884604
     99          1           0       -0.589525   -3.438903   -2.021013
    100          1           0       -0.788305   -5.209226   -2.076946
    101          1           0        0.424058   -4.347884   -3.120000
    102          1           0       -4.054804   -2.442648    0.451229
    103          1           0       -4.345511   -2.815538   -1.250923
    104          1           0       -5.200820   -0.054646   -0.635211
    105          1           0       -7.317105   -3.769283   -0.638242
    106          1           0       -7.589373   -3.156655    0.943539
    107          1           0       -5.977689   -3.514378    0.515328
    108          1           0       -7.293371    0.286828   -0.143932
    109          1           0       -8.289832   -0.883900    0.710328
    110          1           0       -9.763445   -1.280620   -1.193074
    111          1           0       -8.418603   -1.390565   -2.277717
    112          1           0       -8.306476    0.639617   -2.872849
    113          1           0       -8.794473    1.319642   -1.350390
    114          1           0      -10.742599   -0.224152   -2.895876
    115          1           0       -9.646520    2.024537   -3.996400
    116          1           0      -11.215413    2.565749   -3.147954
    117          1           0      -11.128089    1.369359   -4.339430
    118          1           0      -12.119064    1.816032   -1.287075
    119          1           0      -10.899644    1.096706   -0.310805
    120          1           0      -11.954129   -0.768474   -0.177056
    121          1           0      -12.373888   -1.109500   -1.877600
    122          1           0      -14.375825   -0.712300   -1.597614
    123          1           0      -14.130295    0.917541   -1.445077
    124          1           0      -13.677354   -0.632748    1.133963
    125          1           0      -15.815982   -1.403830    1.362595
    126          1           0      -16.279247   -0.668830   -0.149210
    127          1           0      -16.388622    0.170619    1.462550
    128          1           0      -14.966876    2.038117    1.077191
    129          1           0      -13.269660    1.928002    0.628016
    130          1           0      -14.229122    0.599401    3.098969
    131          1           0      -13.882163    2.358273    3.129748
    132          1           0      -11.838138    0.575741    1.814188
    133          1           0      -11.830400    0.409277    3.560027
    134          1           0      -11.384613    3.071764    2.024168
    135          1           0       -8.990735    1.932366    3.332506
    136          1           0       -9.228338    2.792647    1.790798
    137          1           0       -9.553324    1.047324    1.961574
    138          1           0      -10.385642    3.762266    4.280984
    139          1           0      -11.464737    2.418207    4.982830
    140          1           0      -12.104637    3.852404    4.203946
 ---------------------------------------------------------------------

 SCF Done:  E(RZINDO/S) =  -474.089169799     A.U. after   18 cycles

 Excitation energies and oscillator strengths:

 Excited State   1:      Singlet-A      1.1938 eV 1038.57 nm  f=0.5959  <S**2>=0.000
     175 ->178         0.19230
     176 ->177         0.66166
 This state for optimization and/or second-order correction.
 Total Energy, E(CIS/TDA) =  -474.045298587
 Copying the excited state density for this state as the 1-particle RhoCI density.

 Excited State   2:      Singlet-A      1.8408 eV  673.53 nm  f=0.0408  <S**2>=0.000
     175 ->177         0.54743
     176 ->178        -0.41541

 Excited State   3:      Singlet-A      2.8324 eV  437.74 nm  f=0.3972  <S**2>=0.000
     168 ->177         0.21117
     168 ->179        -0.21719
     168 ->180         0.11034
     171 ->177        -0.10703
     175 ->177         0.24250
     176 ->178         0.39621
     176 ->179         0.31187

 Excited State   4:      Singlet-A      2.9115 eV  425.84 nm  f=0.1995  <S**2>=0.000
     168 ->177         0.31554
     168 ->178        -0.14002
     168 ->179        -0.33664
     168 ->180         0.18340
     168 ->185        -0.16125
     175 ->177        -0.16042
     176 ->178        -0.25791
     176 ->179        -0.22350

 Excited State   5:      Singlet-A      2.9806 eV  415.97 nm  f=0.2898  <S**2>=0.000
     170 ->177        -0.17638
     170 ->179        -0.17408
     170 ->180        -0.27016
     170 ->185        -0.10619
     170 ->187        -0.14259
     172 ->177         0.10904
     175 ->177        -0.19518
     176 ->178        -0.19235
     176 ->179         0.39563
     176 ->180         0.17938

 The electronic state is 1-A.
 Alpha  occ. eigenvalues --   -1.83320  -1.80216  -1.78168  -1.74204  -1.73521
 Alpha  occ. eigenvalues --   -1.69184  -1.66784  -1.60100  -1.59379  -1.58465
 Alpha  occ. eigenvalues --   -1.53292  -1.50993  -1.49401  -1.48459  -1.47886
 Alpha  occ. eigenvalues --   -1.45077  -1.42706  -1.39324  -1.38045  -1.37911
 Alpha  occ. eigenvalues --   -1.34870  -1.32579  -1.32184  -1.30688  -1.27930
 Alpha  occ. eigenvalues --   -1.27288  -1.24806  -1.22261  -1.20475  -1.17922
 Alpha  occ. eigenvalues --   -1.17034  -1.16121  -1.15820  -1.14869  -1.13238
 Alpha  occ. eigenvalues --   -1.12264  -1.10361  -1.09709  -1.04424  -1.04067
 Alpha  occ. eigenvalues --   -1.01590  -1.01298  -0.99398  -0.97726  -0.97071
 Alpha  occ. eigenvalues --   -0.96331  -0.94124  -0.93331  -0.92270  -0.91952
 Alpha  occ. eigenvalues --   -0.91103  -0.90081  -0.89344  -0.87836  -0.86203
 Alpha  occ. eigenvalues --   -0.84500  -0.84081  -0.83541  -0.82629  -0.80366
 Alpha  occ. eigenvalues --   -0.79875  -0.79548  -0.77511  -0.77379  -0.76629
 Alpha  occ. eigenvalues --   -0.75863  -0.75764  -0.74441  -0.73758  -0.73380
 Alpha  occ. eigenvalues --   -0.72340  -0.71861  -0.71654  -0.71076  -0.69988
 Alpha  occ. eigenvalues --   -0.69632  -0.68930  -0.68528  -0.68096  -0.67812
 Alpha  occ. eigenvalues --   -0.67318  -0.67174  -0.66485  -0.66360  -0.65743
 Alpha  occ. eigenvalues --   -0.65379  -0.65245  -0.64155  -0.63677  -0.63289
 Alpha  occ. eigenvalues --   -0.62976  -0.62819  -0.62544  -0.61906  -0.61320
 Alpha  occ. eigenvalues --   -0.61060  -0.60733  -0.60497  -0.60270  -0.59814
 Alpha  occ. eigenvalues --   -0.59660  -0.59280  -0.58822  -0.58453  -0.58173
 Alpha  occ. eigenvalues --   -0.57635  -0.57280  -0.57165  -0.56984  -0.56684
 Alpha  occ. eigenvalues --   -0.56265  -0.55902  -0.55697  -0.55492  -0.55053
 Alpha  occ. eigenvalues --   -0.54900  -0.54105  -0.53915  -0.53421  -0.53093
 Alpha  occ. eigenvalues --   -0.52766  -0.52467  -0.51880  -0.51832  -0.51382
 Alpha  occ. eigenvalues --   -0.51373  -0.50747  -0.50531  -0.50195  -0.49918
 Alpha  occ. eigenvalues --   -0.49793  -0.49659  -0.49532  -0.49339  -0.49188
 Alpha  occ. eigenvalues --   -0.49077  -0.48936  -0.48829  -0.48227  -0.47856
 Alpha  occ. eigenvalues --   -0.47764  -0.47459  -0.47082  -0.46475  -0.46439
 Alpha  occ. eigenvalues --   -0.46131  -0.46004  -0.45931  -0.45422  -0.45265
 Alpha  occ. eigenvalues --   -0.45173  -0.44855  -0.44738  -0.43988  -0.43443
 Alpha  occ. eigenvalues --   -0.43355  -0.43197  -0.42704  -0.42314  -0.42101
 Alpha  occ. eigenvalues --   -0.41487  -0.41468  -0.41196  -0.38879  -0.38501
 Alpha  occ. eigenvalues --   -0.38134  -0.37431  -0.35631  -0.34799  -0.34259
 Alpha  occ. eigenvalues --   -0.33225  -0.32198  -0.31790  -0.30801  -0.26450
 Alpha  occ. eigenvalues --   -0.21510
 Alpha virt. eigenvalues --   -0.08611  -0.02248  -0.00785   0.01282   0.02203
 Alpha virt. eigenvalues --    0.02695   0.02805   0.03329   0.04454   0.04466
 Alpha virt. eigenvalues --    0.06466   0.06590   0.07116   0.07699   0.07959

 Mulliken charges:
               1
     1  Mg   0.433904
     2  C   -0.059642
     3  C   -0.068354
     4  C   -0.070743
     5  C   -0.074586
     6  N   -0.270906
     7  C    0.140564
     8  C    0.014681
     9  C    0.007078
    10  C    0.116583
    11  C   -0.060382
    12  C   -0.025272
    13  C    0.004303
    14  C    0.464717
    15  O   -0.506746
    16  O   -0.273703
    17  N   -0.315806
    18  C    0.051575
    19  C   -0.004720
    20  C   -0.073629
    21  C    0.149635
    22  C   -0.049345
    23  C    0.341391
    24  O   -0.554505
    25  C   -0.022969
    26  N   -0.291847
    27  C    0.134048
    28  C   -0.009384
    29  C    0.011950
    30  C    0.143293
    31  C   -0.059174
    32  C   -0.022902
    33  C   -0.057941
    34  N   -0.322928
    35  C    0.123119
    36  C    0.034674
    37  C   -0.064342
    38  C    0.126460
    39  C   -0.032834
    40  C    0.345987
    41  O   -0.515488
    42  C    0.055722
    43  C    0.500570
    44  O   -0.532302
    45  O   -0.269285
    46  C    0.072137
    47  C    0.095552
    48  C   -0.102983
    49  C   -0.007945
    50  C   -0.040494
    51  C   -0.021376
    52  C   -0.042354
    53  C   -0.031310
    54  C   -0.011427
    55  C   -0.063146
    56  C   -0.033165
    57  C   -0.040028
    58  C   -0.035742
    59  C   -0.010243
    60  C   -0.058659
    61  C   -0.037623
    62  C   -0.046983
    63  C   -0.042597
    64  C   -0.012146
    65  C   -0.054653
    66  C   -0.059004
    67  H    0.021930
    68  H    0.047150
    69  H    0.032781
    70  H    0.051754
    71  H    0.027787
    72  H    0.026922
    73  H    0.024845
    74  H    0.013952
    75  H    0.025352
    76  H    0.038223
    77  H    0.029252
    78  H    0.041460
    79  H    0.032929
    80  H    0.021204
    81  H    0.034645
    82  H    0.035821
    83  H    0.040536
    84  H    0.035305
    85  H    0.044341
    86  H    0.038699
    87  H    0.033757
    88  H    0.022247
    89  H    0.020780
    90  H    0.024695
    91  H    0.012843
    92  H    0.019021
    93  H    0.019759
    94  H    0.027745
    95  H    0.036595
    96  H    0.021544
    97  H    0.043473
    98  H    0.059393
    99  H    0.025805
   100  H    0.044534
   101  H    0.057336
   102  H    0.059682
   103  H    0.046363
   104  H    0.046407
   105  H    0.037074
   106  H    0.019426
   107  H    0.018870
   108  H    0.025481
   109  H    0.019342
   110  H    0.029417
   111  H    0.016820
   112  H    0.021702
   113  H    0.009536
   114  H    0.013301
   115  H    0.025712
   116  H    0.019389
   117  H    0.001985
   118  H    0.026478
   119  H    0.020490
   120  H    0.019381
   121  H    0.029116
   122  H    0.008634
   123  H    0.017955
   124  H    0.019899
   125  H    0.011525
   126  H    0.022225
   127  H    0.022195
   128  H    0.012769
   129  H    0.016784
   130  H    0.022343
   131  H    0.021824
   132  H    0.016856
   133  H    0.020552
   134  H    0.017660
   135  H    0.018507
   136  H    0.019502
   137  H    0.019484
   138  H    0.018602
   139  H    0.027555
   140  H    0.018417
 Sum of Mulliken charges =  -0.00000

 Dipole moment (field-independent basis, Debye):
    X=             -2.8933    Y=              2.3751    Z=              0.1267  Tot=              3.7454
 N-N= 4.259285672256D+03 E-N= 0.000000000000D+00  KE=-9.192908629138D+03
 Leave Link  601 at Sat Apr 30 09:53:03 2022, MaxMem=  6710886400 cpu:               0.8 elap:               0.1
 (Enter /sw/apps/gaussian-16.0/g16/l9999.exe)
 1\1\GINC-BP1-COMPUTE190\SP\RZINDO CIS\STO-3G\C55H74Mg1N4O6\OF15641\30-
 Apr-2022\0\\#p ZINDO=(nstates=5)\\step_651_chromophore_7 ZINDO\\0,1\Mg
 ,0,25.311,-0.017,29.033\C,0,27.258,0.015,32.043\C,0,22.574,0.11,30.997
 \C,0,23.715,0.009,26.195\C,0,28.386,-0.669,27.228\N,0,24.971,-0.215,31
 .37\C,0,25.838,0.083,32.353\C,0,25.15,0.048,33.665\C,0,23.687,0.184,33
 .288\C,0,23.712,-0.018,31.762\C,0,22.698,-0.805,34.027\C,0,25.745,1.12
 3,34.685\C,0,24.903,1.15,35.934\C,0,25.489,1.695,37.274\O,0,25.968,2.7

 Normal termination of Gaussian 16 at Sat Apr 30 09:53:03 2022.
