 Gaussian 16, Revision A.03,
 Gaussian 16:  ES64L-G16RevA.03 25-Dec-2016

 ------------------------------
 #p blyp/Def2SVP td=(nstates=5)
 ------------------------------

 --------------------------------------------------
 step_651_chromophore_16 TDDFT with blyp functional
 --------------------------------------------------
 Symbolic Z-matrix:
 Charge =  0 Multiplicity = 1

                         Standard orientation:
 ---------------------------------------------------------------------
 Center     Atomic      Atomic             Coordinates (Angstroms)
 Number     Number       Type             X           Y           Z
 ---------------------------------------------------------------------
      1         12           0        6.058573    0.557775    0.001522
      2          6           0        3.766154   -2.251001   -0.089714
      3          6           0        3.451077    2.536352   -0.748331
      4          6           0        8.240412    3.080249    0.113248
      5          6           0        8.584784   -1.666087    0.401625
      6          7           0        3.898331    0.150517   -0.412412
      7          6           0        3.170585   -0.991966   -0.333801
      8          6           0        1.666452   -0.706900   -0.569314
      9          6           0        1.608680    0.824769   -0.757539
     10          6           0        3.080418    1.216860   -0.663045
     11          6           0        0.997455    1.291194   -2.177648
     12          6           0        0.672145   -1.163100    0.583645
     13          6           0       -0.698318   -0.412582    0.717461
     14          6           0       -1.915973   -1.245151    0.986944
     15          8           0       -2.716744   -1.048545    1.889833
     16          8           0       -2.051527   -2.409057    0.109388
     17          7           0        5.884987    2.448745   -0.339906
     18          6           0        4.729845    3.114710   -0.571807
     19          6           0        5.045066    4.619380   -0.700056
     20          6           0        6.417966    4.783276   -0.470109
     21          6           0        6.892574    3.395672   -0.250889
     22          6           0        3.920944    5.705788   -0.976274
     23          6           0        7.323207    6.044187   -0.381282
     24          8           0        8.560975    6.077269   -0.293910
     25          6           0        6.704792    7.436992   -0.399339
     26          7           0        8.131729    0.707001    0.004119
     27          6           0        8.836975    1.848273    0.133622
     28          6           0       10.315074    1.656431    0.376030
     29          6           0       10.335887    0.154854    0.796349
     30          6           0        8.888699   -0.320916    0.398204
     31          6           0       11.158285    2.085193   -0.851147
     32          6           0       10.670227   -0.057056    2.261804
     33          6           0        9.712777    0.358655    3.365271
     34          7           0        6.289900   -1.546181   -0.029940
     35          6           0        7.382341   -2.305438    0.243819
     36          6           0        7.023297   -3.682486    0.296895
     37          6           0        5.610135   -3.699128    0.169965
     38          6           0        5.196793   -2.363313    0.023681
     39          6           0        7.926337   -4.837201    0.443490
     40          6           0        4.411629   -4.581250    0.194663
     41          8           0        4.387705   -5.797038    0.321029
     42          6           0        3.168458   -3.653067    0.030523
     43          6           0        2.398359   -4.212867   -1.194627
     44          8           0        2.800435   -4.280190   -2.351297
     45          8           0        1.285717   -4.873246   -0.718961
     46          6           0        0.404223   -5.614000   -1.642620
     47          6           0       -3.179162   -3.181833    0.446089
     48          6           0       -4.377984   -2.625536   -0.249807
     49          6           0       -5.652516   -2.972833   -0.054510
     50          6           0       -6.069799   -4.036441    1.036856
     51          6           0       -6.782726   -2.223375   -0.855513
     52          6           0       -7.127742   -0.779045   -0.343624
     53          6           0       -8.581585   -0.705813    0.137136
     54          6           0       -9.218453    0.723573   -0.030959
     55          6           0       -8.914455    1.675751    1.230804
     56          6           0      -10.642130    0.754355   -0.541733
     57          6           0      -11.006993    1.524668   -1.826920
     58          6           0      -12.503537    2.026120   -1.887365
     59          6           0      -13.588099    0.882266   -1.838873
     60          6           0      -13.954739    0.484238   -3.281722
     61          6           0      -14.851381    1.327567   -0.985791
     62          6           0      -14.844439    0.905498    0.517398
     63          6           0      -14.836784    1.948462    1.590558
     64          6           0      -13.458360    1.916830    2.388332
     65          6           0      -13.095429    3.349641    2.934280
     66          6           0      -13.467004    0.815989    3.490372
     67          1           0        2.620105    3.242019   -0.805572
     68          1           0        8.849134    3.951575    0.364042
     69          1           0        9.368238   -2.318348    0.790106
     70          1           0        1.547630   -1.278961   -1.489855
     71          1           0        1.028066    1.458673   -0.088829
     72          1           0        1.731710    1.619045   -2.913688
     73          1           0        0.365335    2.176789   -2.110250
     74          1           0        0.344332    0.518380   -2.582976
     75          1           0        1.151502   -0.967760    1.542699
     76          1           0        0.640453   -2.241928    0.433297
     77          1           0       -0.873360   -0.031074   -0.288766
     78          1           0       -0.690555    0.368995    1.476854
     79          1           0        2.883268    5.373298   -0.969502
     80          1           0        4.104103    6.155682   -1.952289
     81          1           0        3.949080    6.477664   -0.207195
     82          1           0        6.024378    7.476888   -1.249333
     83          1           0        7.447939    8.235052   -0.409298
     84          1           0        6.144304    7.406428    0.535635
     85          1           0       10.598676    2.266566    1.233716
     86          1           0       11.021584   -0.393452    0.149988
     87          1           0       10.507255    2.672730   -1.498144
     88          1           0       11.501177    1.207467   -1.398452
     89          1           0       12.054589    2.603153   -0.507958
     90          1           0       11.581946    0.516400    2.427749
     91          1           0       10.895854   -1.115032    2.392683
     92          1           0       10.041091    1.252821    3.894573
     93          1           0        9.671082   -0.415812    4.130262
     94          1           0        8.717721    0.646368    3.025165
     95          1           0        8.759191   -4.616981    1.111319
     96          1           0        8.372556   -5.179740   -0.491017
     97          1           0        7.340145   -5.580120    0.984781
     98          1           0        2.567438   -3.732817    0.937375
     99          1           0        0.811084   -6.076598   -2.541800
    100          1           0       -0.269468   -4.869427   -2.068242
    101          1           0       -0.172275   -6.394972   -1.148064
    102          1           0       -3.263865   -3.377383    1.514670
    103          1           0       -2.955274   -4.169604    0.044156
    104          1           0       -4.130782   -1.883022   -1.007973
    105          1           0       -5.224446   -4.473887    1.569147
    106          1           0       -6.646123   -4.855782    0.606127
    107          1           0       -6.823651   -3.607522    1.696469
    108          1           0       -7.669576   -2.848509   -0.754767
    109          1           0       -6.618994   -2.104543   -1.926505
    110          1           0       -6.893895   -0.105446   -1.167504
    111          1           0       -6.465049   -0.532329    0.486598
    112          1           0       -8.668571   -1.057267    1.164321
    113          1           0       -9.201055   -1.458015   -0.353957
    114          1           0       -8.652362    1.104166   -0.881115
    115          1           0       -8.615775    1.021666    2.049301
    116          1           0       -9.782276    2.258479    1.538349
    117          1           0       -8.119566    2.403291    1.061196
    118          1           0      -11.207010    1.256355    0.243011
    119          1           0      -10.988728   -0.270295   -0.675114
    120          1           0      -10.623583    0.992800   -2.697522
    121          1           0      -10.403702    2.431790   -1.848813
    122          1           0      -12.635619    2.561493   -2.827677
    123          1           0      -12.641798    2.494582   -0.914203
    124          1           0      -13.098840    0.115745   -1.236840
    125          1           0      -13.199762   -0.168093   -3.720827
    126          1           0      -14.055811    1.357317   -3.925159
    127          1           0      -14.846009   -0.125876   -3.131856
    128          1           0      -15.725098    0.933490   -1.504850
    129          1           0      -14.952040    2.403823   -1.129235
    130          1           0      -13.986421    0.254852    0.684676
    131          1           0      -15.667807    0.206184    0.663679
    132          1           0      -15.606375    1.787725    2.345608
    133          1           0      -14.971346    2.952839    1.188727
    134          1           0      -12.624908    1.659935    1.733891
    135          1           0      -13.308335    4.122202    2.195578
    136          1           0      -12.030217    3.440458    3.149747
    137          1           0      -13.745122    3.546924    3.786428
    138          1           0      -13.690887   -0.176026    3.097473
    139          1           0      -14.307630    1.123902    4.112506
    140          1           0      -12.523632    0.806744    4.035056
 ---------------------------------------------------------------------

 SCF Done:  E(RB-LYP) =  -3007.40991409     A.U. after   21 cycles

 Excitation energies and oscillator strengths:

 Excited State   1:      Singlet-A      1.8220 eV  680.48 nm  f=0.3116  <S**2>=0.000
     245 -> 248       -0.14523
     245 -> 249        0.12412
     246 -> 247        0.69083
     246 <- 247       -0.15285
 This state for optimization and/or second-order correction.
 Total Energy, E(TD-HF/TD-DFT) =  -3007.34295686
 Copying the excited state density for this state as the 1-particle RhoCI density.

 Excited State   2:      Singlet-A      2.0229 eV  612.90 nm  f=0.0508  <S**2>=0.000
     243 -> 247       -0.44680
     245 -> 247        0.51109
     246 -> 248        0.13701
     246 -> 249       -0.10602

 Excited State   3:      Singlet-A      2.0663 eV  600.03 nm  f=0.0010  <S**2>=0.000
     244 -> 247        0.70532

 Excited State   4:      Singlet-A      2.1266 eV  583.02 nm  f=0.0349  <S**2>=0.000
     243 -> 247        0.54108
     245 -> 247        0.39739
     246 -> 248        0.15258
     246 -> 249       -0.11934

 Excited State   5:      Singlet-A      2.2439 eV  552.54 nm  f=0.0000  <S**2>=0.000
     242 -> 247        0.70696

 The electronic state is 1-A.
 Alpha  occ. eigenvalues --  -46.26110 -18.82446 -18.81375 -18.78064 -18.77001
 Alpha  occ. eigenvalues --  -18.76433 -18.75954 -14.03421 -14.02818 -14.02005
 Alpha  occ. eigenvalues --  -14.00299 -10.04801 -10.04581 -10.01173  -9.99956
 Alpha  occ. eigenvalues --   -9.97874  -9.96913  -9.96879  -9.96636  -9.96544
 Alpha  occ. eigenvalues --   -9.96336  -9.95962  -9.95592  -9.95411  -9.95159
 Alpha  occ. eigenvalues --   -9.94903  -9.94786  -9.94684  -9.94428  -9.94416
 Alpha  occ. eigenvalues --   -9.94328  -9.94100  -9.94052  -9.94032  -9.93360
 Alpha  occ. eigenvalues --   -9.93217  -9.92925  -9.92896  -9.92774  -9.92753
 Alpha  occ. eigenvalues --   -9.92583  -9.92521  -9.92430  -9.92073  -9.92056
 Alpha  occ. eigenvalues --   -9.91995  -9.91923  -9.91903  -9.91870  -9.91719
 Alpha  occ. eigenvalues --   -9.91644  -9.91453  -9.91377  -9.91258  -9.91224
 Alpha  occ. eigenvalues --   -9.91212  -9.91155  -9.91021  -9.91002  -9.90972
 Alpha  occ. eigenvalues --   -9.90931  -9.90886  -9.90852  -9.90828  -9.90819
 Alpha  occ. eigenvalues --   -9.90678  -2.91108  -1.71513  -1.70980  -1.70848
 Alpha  occ. eigenvalues --   -0.97139  -0.97104  -0.91468  -0.91390  -0.90418
 Alpha  occ. eigenvalues --   -0.89546  -0.87254  -0.86445  -0.85823  -0.85226
 Alpha  occ. eigenvalues --   -0.75240  -0.73241  -0.72735  -0.72519  -0.72086
 Alpha  occ. eigenvalues --   -0.71902  -0.71293  -0.71192  -0.70359  -0.70195
 Alpha  occ. eigenvalues --   -0.69719  -0.69158  -0.67862  -0.67673  -0.67297
 Alpha  occ. eigenvalues --   -0.65873  -0.65676  -0.65454  -0.64866  -0.64264
 Alpha  occ. eigenvalues --   -0.63410  -0.62868  -0.62420  -0.61981  -0.60965
 Alpha  occ. eigenvalues --   -0.60054  -0.59978  -0.59960  -0.59280  -0.58988
 Alpha  occ. eigenvalues --   -0.58197  -0.57490  -0.57081  -0.56219  -0.55272
 Alpha  occ. eigenvalues --   -0.53983  -0.53730  -0.52931  -0.52211  -0.51781
 Alpha  occ. eigenvalues --   -0.51218  -0.51166  -0.50932  -0.50416  -0.49796
 Alpha  occ. eigenvalues --   -0.49023  -0.48671  -0.48668  -0.47712  -0.46767
 Alpha  occ. eigenvalues --   -0.46736  -0.46107  -0.45751  -0.45274  -0.44285
 Alpha  occ. eigenvalues --   -0.43835  -0.43524  -0.42798  -0.42450  -0.42412
 Alpha  occ. eigenvalues --   -0.41959  -0.41727  -0.41468  -0.41337  -0.41138
 Alpha  occ. eigenvalues --   -0.41097  -0.40888  -0.40141  -0.40023  -0.39935
 Alpha  occ. eigenvalues --   -0.39783  -0.39626  -0.39546  -0.39236  -0.38806
 Alpha  occ. eigenvalues --   -0.38657  -0.38526  -0.38416  -0.38301  -0.38141
 Alpha  occ. eigenvalues --   -0.38116  -0.37907  -0.37647  -0.37491  -0.37276
 Alpha  occ. eigenvalues --   -0.37179  -0.36764  -0.36720  -0.36452  -0.36414
 Alpha  occ. eigenvalues --   -0.36342  -0.36021  -0.35980  -0.35916  -0.35863
 Alpha  occ. eigenvalues --   -0.35464  -0.35248  -0.35089  -0.34852  -0.34693
 Alpha  occ. eigenvalues --   -0.34603  -0.34200  -0.34054  -0.34020  -0.33861
 Alpha  occ. eigenvalues --   -0.33739  -0.33689  -0.33356  -0.33273  -0.33005
 Alpha  occ. eigenvalues --   -0.32956  -0.32902  -0.32802  -0.32556  -0.32352
 Alpha  occ. eigenvalues --   -0.32298  -0.32139  -0.32124  -0.32003  -0.31967
 Alpha  occ. eigenvalues --   -0.31344  -0.31189  -0.31118  -0.30910  -0.30717
 Alpha  occ. eigenvalues --   -0.30608  -0.30477  -0.30336  -0.30053  -0.30038
 Alpha  occ. eigenvalues --   -0.29991  -0.29840  -0.29600  -0.29043  -0.29002
 Alpha  occ. eigenvalues --   -0.28805  -0.28658  -0.28379  -0.28330  -0.27963
 Alpha  occ. eigenvalues --   -0.27486  -0.27434  -0.27026  -0.26733  -0.26525
 Alpha  occ. eigenvalues --   -0.26511  -0.25945  -0.25657  -0.25526  -0.25047
 Alpha  occ. eigenvalues --   -0.24968  -0.24576  -0.24298  -0.24104  -0.23809
 Alpha  occ. eigenvalues --   -0.23510  -0.22742  -0.22642  -0.22199  -0.21728
 Alpha  occ. eigenvalues --   -0.20119  -0.19704  -0.19014  -0.18947  -0.17398
 Alpha  occ. eigenvalues --   -0.15728
 Alpha virt. eigenvalues --   -0.11458  -0.06863  -0.06202  -0.05018  -0.04103
 Alpha virt. eigenvalues --   -0.02954  -0.02579  -0.01271  -0.01138   0.00130
 Alpha virt. eigenvalues --    0.01286   0.01595   0.02076   0.02152   0.02455

 Mulliken charges:
               1
     1  Mg   0.709729
     2  C   -0.034911
     3  C   -0.066621
     4  C   -0.062477
     5  C   -0.087703
     6  N   -0.190458
     7  C   -0.119818
     8  C    0.087633
     9  C   -0.045908
    10  C    0.053421
    11  C    0.083776
    12  C    0.091680
    13  C    0.171230
    14  C    0.071531
    15  O   -0.169352
    16  O   -0.303792
    17  N   -0.329159
    18  C    0.141637
    19  C   -0.143252
    20  C    0.037752
    21  C    0.088741
    22  C    0.131655
    23  C   -0.053060
    24  O   -0.174205
    25  C    0.132220
    26  N   -0.200247
    27  C    0.010133
    28  C    0.018362
    29  C    0.045466
    30  C    0.034657
    31  C    0.153933
    32  C    0.094320
    33  C    0.065407
    34  N   -0.249902
    35  C    0.129189
    36  C   -0.170877
    37  C    0.064366
    38  C    0.094036
    39  C    0.175337
    40  C   -0.059888
    41  O   -0.124836
    42  C    0.087366
    43  C    0.133892
    44  O   -0.176115
    45  O   -0.274060
    46  C    0.218261
    47  C    0.322616
    48  C   -0.106042
    49  C   -0.119965
    50  C    0.127066
    51  C    0.111047
    52  C    0.088008
    53  C    0.063925
    54  C   -0.051113
    55  C    0.096626
    56  C    0.086822
    57  C    0.057851
    58  C    0.113528
    59  C   -0.106264
    60  C    0.121736
    61  C    0.102828
    62  C    0.087383
    63  C    0.125660
    64  C   -0.124433
    65  C    0.079715
    66  C    0.092404
    67  H   -0.072664
    68  H   -0.045973
    69  H   -0.073174
    70  H   -0.009126
    71  H   -0.007175
    72  H    0.000324
    73  H   -0.021869
    74  H   -0.000658
    75  H   -0.020894
    76  H    0.011116
    77  H    0.002592
    78  H    0.010025
    79  H   -0.013067
    80  H    0.016249
    81  H    0.003842
    82  H    0.003608
    83  H    0.004895
    84  H    0.010211
    85  H   -0.030398
    86  H   -0.039324
    87  H    0.007251
    88  H   -0.017438
    89  H   -0.001979
    90  H   -0.023082
    91  H   -0.021586
    92  H   -0.017037
    93  H   -0.006092
    94  H   -0.000643
    95  H   -0.026123
    96  H    0.014822
    97  H    0.006106
    98  H    0.006444
    99  H    0.017308
   100  H    0.006098
   101  H    0.022380
   102  H   -0.001686
   103  H   -0.016158
   104  H   -0.043511
   105  H   -0.007434
   106  H   -0.011340
   107  H   -0.006172
   108  H   -0.041569
   109  H   -0.021122
   110  H   -0.029008
   111  H   -0.010991
   112  H   -0.032611
   113  H   -0.040232
   114  H   -0.044622
   115  H   -0.012048
   116  H   -0.014700
   117  H   -0.009477
   118  H   -0.040225
   119  H   -0.020057
   120  H   -0.036948
   121  H   -0.043365
   122  H   -0.030209
   123  H   -0.028802
   124  H   -0.037190
   125  H   -0.020256
   126  H   -0.007787
   127  H   -0.014757
   128  H   -0.050207
   129  H   -0.039671
   130  H   -0.029027
   131  H   -0.040210
   132  H   -0.039166
   133  H   -0.036168
   134  H   -0.013879
   135  H   -0.019091
   136  H   -0.008310
   137  H   -0.017988
   138  H   -0.013115
   139  H   -0.017932
   140  H   -0.006418
 Sum of Mulliken charges =  -0.00000

 Dipole moment (field-independent basis, Debye):
    X=             -1.4924    Y=              3.0692    Z=              1.0597  Tot=              3.5736
 Quadrupole moment (field-independent basis, Debye-Ang):
   XX=           -399.3509   YY=           -419.7944   ZZ=           -410.4342
   XY=             11.7946   XZ=             23.1815   YZ=             -3.8816

 Normal termination of Gaussian 16 at Sat Apr 30 07:47:54 2022.
