 Gaussian 16, Revision A.03,
 Gaussian 16:  ES64L-G16RevA.03 25-Dec-2016

 -----------------------------------
 #p cam-b3lyp/Def2SVP td=(nstates=5)
 -----------------------------------

 -------------------------------------------------------
 step_651_chromophore_16 TDDFT with cam-b3lyp functional
 -------------------------------------------------------
 Symbolic Z-matrix:
 Charge =  0 Multiplicity = 1

                         Standard orientation:
 ---------------------------------------------------------------------
 Center     Atomic      Atomic             Coordinates (Angstroms)
 Number     Number       Type             X           Y           Z
 ---------------------------------------------------------------------
      1         12           0        6.058573    0.557775    0.001522
      2          6           0        3.766154   -2.251001   -0.089714
      3          6           0        3.451077    2.536352   -0.748331
      4          6           0        8.240412    3.080249    0.113248
      5          6           0        8.584784   -1.666087    0.401625
      6          7           0        3.898331    0.150517   -0.412412
      7          6           0        3.170585   -0.991966   -0.333801
      8          6           0        1.666452   -0.706900   -0.569314
      9          6           0        1.608680    0.824769   -0.757539
     10          6           0        3.080418    1.216860   -0.663045
     11          6           0        0.997455    1.291194   -2.177648
     12          6           0        0.672145   -1.163100    0.583645
     13          6           0       -0.698318   -0.412582    0.717461
     14          6           0       -1.915973   -1.245151    0.986944
     15          8           0       -2.716744   -1.048545    1.889833
     16          8           0       -2.051527   -2.409057    0.109388
     17          7           0        5.884987    2.448745   -0.339906
     18          6           0        4.729845    3.114710   -0.571807
     19          6           0        5.045066    4.619380   -0.700056
     20          6           0        6.417966    4.783276   -0.470109
     21          6           0        6.892574    3.395672   -0.250889
     22          6           0        3.920944    5.705788   -0.976274
     23          6           0        7.323207    6.044187   -0.381282
     24          8           0        8.560975    6.077269   -0.293910
     25          6           0        6.704792    7.436992   -0.399339
     26          7           0        8.131729    0.707001    0.004119
     27          6           0        8.836975    1.848273    0.133622
     28          6           0       10.315074    1.656431    0.376030
     29          6           0       10.335887    0.154854    0.796349
     30          6           0        8.888699   -0.320916    0.398204
     31          6           0       11.158285    2.085193   -0.851147
     32          6           0       10.670227   -0.057056    2.261804
     33          6           0        9.712777    0.358655    3.365271
     34          7           0        6.289900   -1.546181   -0.029940
     35          6           0        7.382341   -2.305438    0.243819
     36          6           0        7.023297   -3.682486    0.296895
     37          6           0        5.610135   -3.699128    0.169965
     38          6           0        5.196793   -2.363313    0.023681
     39          6           0        7.926337   -4.837201    0.443490
     40          6           0        4.411629   -4.581250    0.194663
     41          8           0        4.387705   -5.797038    0.321029
     42          6           0        3.168458   -3.653067    0.030523
     43          6           0        2.398359   -4.212867   -1.194627
     44          8           0        2.800435   -4.280190   -2.351297
     45          8           0        1.285717   -4.873246   -0.718961
     46          6           0        0.404223   -5.614000   -1.642620
     47          6           0       -3.179162   -3.181833    0.446089
     48          6           0       -4.377984   -2.625536   -0.249807
     49          6           0       -5.652516   -2.972833   -0.054510
     50          6           0       -6.069799   -4.036441    1.036856
     51          6           0       -6.782726   -2.223375   -0.855513
     52          6           0       -7.127742   -0.779045   -0.343624
     53          6           0       -8.581585   -0.705813    0.137136
     54          6           0       -9.218453    0.723573   -0.030959
     55          6           0       -8.914455    1.675751    1.230804
     56          6           0      -10.642130    0.754355   -0.541733
     57          6           0      -11.006993    1.524668   -1.826920
     58          6           0      -12.503537    2.026120   -1.887365
     59          6           0      -13.588099    0.882266   -1.838873
     60          6           0      -13.954739    0.484238   -3.281722
     61          6           0      -14.851381    1.327567   -0.985791
     62          6           0      -14.844439    0.905498    0.517398
     63          6           0      -14.836784    1.948462    1.590558
     64          6           0      -13.458360    1.916830    2.388332
     65          6           0      -13.095429    3.349641    2.934280
     66          6           0      -13.467004    0.815989    3.490372
     67          1           0        2.620105    3.242019   -0.805572
     68          1           0        8.849134    3.951575    0.364042
     69          1           0        9.368238   -2.318348    0.790106
     70          1           0        1.547630   -1.278961   -1.489855
     71          1           0        1.028066    1.458673   -0.088829
     72          1           0        1.731710    1.619045   -2.913688
     73          1           0        0.365335    2.176789   -2.110250
     74          1           0        0.344332    0.518380   -2.582976
     75          1           0        1.151502   -0.967760    1.542699
     76          1           0        0.640453   -2.241928    0.433297
     77          1           0       -0.873360   -0.031074   -0.288766
     78          1           0       -0.690555    0.368995    1.476854
     79          1           0        2.883268    5.373298   -0.969502
     80          1           0        4.104103    6.155682   -1.952289
     81          1           0        3.949080    6.477664   -0.207195
     82          1           0        6.024378    7.476888   -1.249333
     83          1           0        7.447939    8.235052   -0.409298
     84          1           0        6.144304    7.406428    0.535635
     85          1           0       10.598676    2.266566    1.233716
     86          1           0       11.021584   -0.393452    0.149988
     87          1           0       10.507255    2.672730   -1.498144
     88          1           0       11.501177    1.207467   -1.398452
     89          1           0       12.054589    2.603153   -0.507958
     90          1           0       11.581946    0.516400    2.427749
     91          1           0       10.895854   -1.115032    2.392683
     92          1           0       10.041091    1.252821    3.894573
     93          1           0        9.671082   -0.415812    4.130262
     94          1           0        8.717721    0.646368    3.025165
     95          1           0        8.759191   -4.616981    1.111319
     96          1           0        8.372556   -5.179740   -0.491017
     97          1           0        7.340145   -5.580120    0.984781
     98          1           0        2.567438   -3.732817    0.937375
     99          1           0        0.811084   -6.076598   -2.541800
    100          1           0       -0.269468   -4.869427   -2.068242
    101          1           0       -0.172275   -6.394972   -1.148064
    102          1           0       -3.263865   -3.377383    1.514670
    103          1           0       -2.955274   -4.169604    0.044156
    104          1           0       -4.130782   -1.883022   -1.007973
    105          1           0       -5.224446   -4.473887    1.569147
    106          1           0       -6.646123   -4.855782    0.606127
    107          1           0       -6.823651   -3.607522    1.696469
    108          1           0       -7.669576   -2.848509   -0.754767
    109          1           0       -6.618994   -2.104543   -1.926505
    110          1           0       -6.893895   -0.105446   -1.167504
    111          1           0       -6.465049   -0.532329    0.486598
    112          1           0       -8.668571   -1.057267    1.164321
    113          1           0       -9.201055   -1.458015   -0.353957
    114          1           0       -8.652362    1.104166   -0.881115
    115          1           0       -8.615775    1.021666    2.049301
    116          1           0       -9.782276    2.258479    1.538349
    117          1           0       -8.119566    2.403291    1.061196
    118          1           0      -11.207010    1.256355    0.243011
    119          1           0      -10.988728   -0.270295   -0.675114
    120          1           0      -10.623583    0.992800   -2.697522
    121          1           0      -10.403702    2.431790   -1.848813
    122          1           0      -12.635619    2.561493   -2.827677
    123          1           0      -12.641798    2.494582   -0.914203
    124          1           0      -13.098840    0.115745   -1.236840
    125          1           0      -13.199762   -0.168093   -3.720827
    126          1           0      -14.055811    1.357317   -3.925159
    127          1           0      -14.846009   -0.125876   -3.131856
    128          1           0      -15.725098    0.933490   -1.504850
    129          1           0      -14.952040    2.403823   -1.129235
    130          1           0      -13.986421    0.254852    0.684676
    131          1           0      -15.667807    0.206184    0.663679
    132          1           0      -15.606375    1.787725    2.345608
    133          1           0      -14.971346    2.952839    1.188727
    134          1           0      -12.624908    1.659935    1.733891
    135          1           0      -13.308335    4.122202    2.195578
    136          1           0      -12.030217    3.440458    3.149747
    137          1           0      -13.745122    3.546924    3.786428
    138          1           0      -13.690887   -0.176026    3.097473
    139          1           0      -14.307630    1.123902    4.112506
    140          1           0      -12.523632    0.806744    4.035056
 ---------------------------------------------------------------------

 SCF Done:  E(RCAM-B3LYP) =  -3007.19799813     A.U. after   19 cycles

 Excitation energies and oscillator strengths:

 Excited State   1:      Singlet-A      1.7093 eV  725.35 nm  f=0.3883  <S**2>=0.000
     245 -> 248       -0.17559
     246 -> 247        0.68707
     245 <- 248       -0.10789
 This state for optimization and/or second-order correction.
 Total Energy, E(TD-HF/TD-DFT) =  -3007.13518224
 Copying the excited state density for this state as the 1-particle RhoCI density.

 Excited State   2:      Singlet-A      2.3023 eV  538.52 nm  f=0.1066  <S**2>=0.000
     245 -> 247        0.63206
     246 -> 248        0.30520

 Excited State   3:      Singlet-A      3.3642 eV  368.54 nm  f=0.0008  <S**2>=0.000
     244 -> 247        0.67366
     246 -> 248       -0.13206

 Excited State   4:      Singlet-A      3.5816 eV  346.17 nm  f=0.6691  <S**2>=0.000
     241 -> 247        0.15012
     241 -> 249       -0.11137
     244 -> 247        0.10277
     245 -> 247       -0.28221
     246 -> 248        0.57017
     245 <- 247        0.10124

 Excited State   5:      Singlet-A      3.6020 eV  344.21 nm  f=0.0061  <S**2>=0.000
     242 -> 247        0.56791
     242 -> 249        0.23863
     242 -> 250       -0.26404

 The electronic state is 1-A.
 Alpha  occ. eigenvalues --  -46.87580 -19.25341 -19.24286 -19.21238 -19.20126
 Alpha  occ. eigenvalues --  -19.19749 -19.19139 -14.42260 -14.41661 -14.40636
 Alpha  occ. eigenvalues --  -14.38590 -10.40345 -10.40124 -10.36542 -10.35271
 Alpha  occ. eigenvalues --  -10.31836 -10.31428 -10.31199 -10.31084 -10.30847
 Alpha  occ. eigenvalues --  -10.30744 -10.30290 -10.30241 -10.29972 -10.29328
 Alpha  occ. eigenvalues --  -10.29225 -10.28891 -10.28756 -10.28689 -10.28659
 Alpha  occ. eigenvalues --  -10.28435 -10.28359 -10.28347 -10.28155 -10.27250
 Alpha  occ. eigenvalues --  -10.27209 -10.27083 -10.26903 -10.26869 -10.26710
 Alpha  occ. eigenvalues --  -10.26567 -10.26210 -10.26204 -10.25867 -10.25860
 Alpha  occ. eigenvalues --  -10.25760 -10.25760 -10.25678 -10.25660 -10.25460
 Alpha  occ. eigenvalues --  -10.25325 -10.25239 -10.25033 -10.24993 -10.24909
 Alpha  occ. eigenvalues --  -10.24863 -10.24847 -10.24836 -10.24807 -10.24693
 Alpha  occ. eigenvalues --  -10.24686 -10.24638 -10.24576 -10.24503 -10.24432
 Alpha  occ. eigenvalues --  -10.24343  -3.16498  -1.91372  -1.90940  -1.90845
 Alpha  occ. eigenvalues --   -1.15639  -1.15630  -1.09940  -1.09771  -1.08334
 Alpha  occ. eigenvalues --   -1.07469  -1.04995  -1.04155  -1.03422  -1.02732
 Alpha  occ. eigenvalues --   -0.92354  -0.90080  -0.89558  -0.89159  -0.88853
 Alpha  occ. eigenvalues --   -0.88594  -0.87934  -0.87843  -0.87187  -0.86767
 Alpha  occ. eigenvalues --   -0.86147  -0.85548  -0.84031  -0.83885  -0.83471
 Alpha  occ. eigenvalues --   -0.81921  -0.81809  -0.81407  -0.80752  -0.80109
 Alpha  occ. eigenvalues --   -0.79129  -0.78627  -0.78010  -0.77472  -0.76376
 Alpha  occ. eigenvalues --   -0.75359  -0.75333  -0.75245  -0.74559  -0.74251
 Alpha  occ. eigenvalues --   -0.73275  -0.72471  -0.71995  -0.71065  -0.69894
 Alpha  occ. eigenvalues --   -0.68609  -0.68336  -0.67446  -0.66577  -0.65965
 Alpha  occ. eigenvalues --   -0.65418  -0.65164  -0.64974  -0.64399  -0.63854
 Alpha  occ. eigenvalues --   -0.62806  -0.62608  -0.62326  -0.61542  -0.60427
 Alpha  occ. eigenvalues --   -0.60336  -0.59728  -0.59311  -0.58612  -0.57888
 Alpha  occ. eigenvalues --   -0.57254  -0.56843  -0.56096  -0.55707  -0.55346
 Alpha  occ. eigenvalues --   -0.55098  -0.55004  -0.54540  -0.54322  -0.53975
 Alpha  occ. eigenvalues --   -0.53908  -0.53615  -0.53101  -0.52820  -0.52625
 Alpha  occ. eigenvalues --   -0.52546  -0.52333  -0.52303  -0.51891  -0.51392
 Alpha  occ. eigenvalues --   -0.51212  -0.51196  -0.50824  -0.50716  -0.50570
 Alpha  occ. eigenvalues --   -0.50429  -0.50360  -0.50093  -0.49860  -0.49710
 Alpha  occ. eigenvalues --   -0.49585  -0.49228  -0.49062  -0.48905  -0.48487
 Alpha  occ. eigenvalues --   -0.48483  -0.48376  -0.48139  -0.48016  -0.48005
 Alpha  occ. eigenvalues --   -0.47934  -0.47446  -0.46958  -0.46764  -0.46659
 Alpha  occ. eigenvalues --   -0.46487  -0.46041  -0.45884  -0.45787  -0.45618
 Alpha  occ. eigenvalues --   -0.45536  -0.45428  -0.45206  -0.45026  -0.44941
 Alpha  occ. eigenvalues --   -0.44752  -0.44551  -0.44528  -0.44251  -0.44024
 Alpha  occ. eigenvalues --   -0.43765  -0.43714  -0.43690  -0.43618  -0.43387
 Alpha  occ. eigenvalues --   -0.42851  -0.42737  -0.42541  -0.42275  -0.42230
 Alpha  occ. eigenvalues --   -0.42055  -0.41905  -0.41789  -0.41628  -0.41529
 Alpha  occ. eigenvalues --   -0.41326  -0.41154  -0.41032  -0.40262  -0.40141
 Alpha  occ. eigenvalues --   -0.40036  -0.39683  -0.39409  -0.39311  -0.38853
 Alpha  occ. eigenvalues --   -0.38404  -0.38262  -0.37984  -0.37911  -0.37269
 Alpha  occ. eigenvalues --   -0.37236  -0.36753  -0.36534  -0.36425  -0.36147
 Alpha  occ. eigenvalues --   -0.35842  -0.35371  -0.35083  -0.34893  -0.34622
 Alpha  occ. eigenvalues --   -0.34347  -0.34236  -0.33445  -0.31981  -0.31469
 Alpha  occ. eigenvalues --   -0.31013  -0.30883  -0.29330  -0.29302  -0.24216
 Alpha  occ. eigenvalues --   -0.20969
 Alpha virt. eigenvalues --   -0.08507  -0.01441   0.00248   0.01968   0.02383
 Alpha virt. eigenvalues --    0.03727   0.04650   0.06030   0.06279   0.06614
 Alpha virt. eigenvalues --    0.07808   0.08215   0.08261   0.08770   0.08910

 Mulliken charges:
               1
     1  Mg   0.846682
     2  C   -0.061979
     3  C   -0.080559
     4  C   -0.077676
     5  C   -0.084797
     6  N   -0.264389
     7  C   -0.069966
     8  C    0.036855
     9  C   -0.107586
    10  C    0.075380
    11  C    0.029718
    12  C    0.047827
    13  C    0.088459
    14  C    0.160801
    15  O   -0.207806
    16  O   -0.366896
    17  N   -0.419942
    18  C    0.151615
    19  C   -0.149871
    20  C   -0.031831
    21  C    0.112587
    22  C    0.081586
    23  C    0.024827
    24  O   -0.214427
    25  C    0.056973
    26  N   -0.272096
    27  C    0.021653
    28  C   -0.035338
    29  C   -0.009571
    30  C    0.043479
    31  C    0.096900
    32  C    0.039802
    33  C    0.003415
    34  N   -0.337702
    35  C    0.128805
    36  C   -0.168515
    37  C   -0.014272
    38  C    0.125151
    39  C    0.124477
    40  C    0.041494
    41  O   -0.163096
    42  C    0.018234
    43  C    0.217018
    44  O   -0.212974
    45  O   -0.339194
    46  C    0.180647
    47  C    0.282401
    48  C   -0.123176
    49  C   -0.149500
    50  C    0.070033
    51  C    0.056790
    52  C    0.032557
    53  C    0.015472
    54  C   -0.108575
    55  C    0.046243
    56  C    0.037359
    57  C    0.010705
    58  C    0.060438
    59  C   -0.161437
    60  C    0.065047
    61  C    0.049387
    62  C    0.031924
    63  C    0.067421
    64  C   -0.183317
    65  C    0.028017
    66  C    0.040035
    67  H   -0.038979
    68  H   -0.003479
    69  H   -0.039074
    70  H    0.025255
    71  H    0.026673
    72  H    0.027783
    73  H    0.002612
    74  H    0.022634
    75  H    0.010800
    76  H    0.038788
    77  H    0.032313
    78  H    0.043556
    79  H    0.015202
    80  H    0.041159
    81  H    0.028738
    82  H    0.028603
    83  H    0.039330
    84  H    0.034753
    85  H    0.005052
    86  H   -0.001659
    87  H    0.032800
    88  H    0.007195
    89  H    0.021937
    90  H    0.005654
    91  H    0.006063
    92  H    0.006940
    93  H    0.018816
    94  H    0.020062
    95  H   -0.001306
    96  H    0.041027
    97  H    0.032516
    98  H    0.049676
    99  H    0.042356
   100  H    0.027225
   101  H    0.044371
   102  H    0.028067
   103  H    0.012344
   104  H   -0.009294
   105  H    0.015697
   106  H    0.012823
   107  H    0.016576
   108  H   -0.012167
   109  H    0.009382
   110  H   -0.000693
   111  H    0.017470
   112  H   -0.005680
   113  H   -0.011412
   114  H   -0.012592
   115  H    0.010206
   116  H    0.004542
   117  H    0.014110
   118  H   -0.019889
   119  H    0.005383
   120  H   -0.010130
   121  H   -0.013577
   122  H   -0.001600
   123  H   -0.003417
   124  H   -0.006895
   125  H    0.004696
   126  H    0.014691
   127  H    0.008983
   128  H   -0.018421
   129  H   -0.010663
   130  H   -0.003683
   131  H   -0.009020
   132  H   -0.009101
   133  H   -0.007008
   134  H    0.008949
   135  H    0.004619
   136  H    0.013823
   137  H    0.004918
   138  H    0.010606
   139  H    0.003320
   140  H    0.016924
 Sum of Mulliken charges =  -0.00000

 Dipole moment (field-independent basis, Debye):
    X=             -1.6819    Y=              3.7632    Z=              1.1027  Tot=              4.2669
 Quadrupole moment (field-independent basis, Debye-Ang):
   XX=           -399.6310   YY=           -415.3012   ZZ=           -410.7150
   XY=             14.9842   XZ=             24.5703   YZ=             -4.5514

 Normal termination of Gaussian 16 at Sat Apr 30 06:51:32 2022.
