 Gaussian 16, Revision A.03,
 Gaussian 16:  ES64L-G16RevA.03 25-Dec-2016

 ---------------------------------
 #p PBE1PBE/Def2SVP td=(nstates=5)
 ---------------------------------

 -----------------------------------------------------
 step_651_chromophore_16 TDDFT with PBE1PBE functional
 -----------------------------------------------------
 Symbolic Z-matrix:
 Charge =  0 Multiplicity = 1

                         Standard orientation:
 ---------------------------------------------------------------------
 Center     Atomic      Atomic             Coordinates (Angstroms)
 Number     Number       Type             X           Y           Z
 ---------------------------------------------------------------------
      1         12           0        6.058573    0.557775    0.001522
      2          6           0        3.766154   -2.251001   -0.089714
      3          6           0        3.451077    2.536352   -0.748331
      4          6           0        8.240412    3.080249    0.113248
      5          6           0        8.584784   -1.666087    0.401625
      6          7           0        3.898331    0.150517   -0.412412
      7          6           0        3.170585   -0.991966   -0.333801
      8          6           0        1.666452   -0.706900   -0.569314
      9          6           0        1.608680    0.824769   -0.757539
     10          6           0        3.080418    1.216860   -0.663045
     11          6           0        0.997455    1.291194   -2.177648
     12          6           0        0.672145   -1.163100    0.583645
     13          6           0       -0.698318   -0.412582    0.717461
     14          6           0       -1.915973   -1.245151    0.986944
     15          8           0       -2.716744   -1.048545    1.889833
     16          8           0       -2.051527   -2.409057    0.109388
     17          7           0        5.884987    2.448745   -0.339906
     18          6           0        4.729845    3.114710   -0.571807
     19          6           0        5.045066    4.619380   -0.700056
     20          6           0        6.417966    4.783276   -0.470109
     21          6           0        6.892574    3.395672   -0.250889
     22          6           0        3.920944    5.705788   -0.976274
     23          6           0        7.323207    6.044187   -0.381282
     24          8           0        8.560975    6.077269   -0.293910
     25          6           0        6.704792    7.436992   -0.399339
     26          7           0        8.131729    0.707001    0.004119
     27          6           0        8.836975    1.848273    0.133622
     28          6           0       10.315074    1.656431    0.376030
     29          6           0       10.335887    0.154854    0.796349
     30          6           0        8.888699   -0.320916    0.398204
     31          6           0       11.158285    2.085193   -0.851147
     32          6           0       10.670227   -0.057056    2.261804
     33          6           0        9.712777    0.358655    3.365271
     34          7           0        6.289900   -1.546181   -0.029940
     35          6           0        7.382341   -2.305438    0.243819
     36          6           0        7.023297   -3.682486    0.296895
     37          6           0        5.610135   -3.699128    0.169965
     38          6           0        5.196793   -2.363313    0.023681
     39          6           0        7.926337   -4.837201    0.443490
     40          6           0        4.411629   -4.581250    0.194663
     41          8           0        4.387705   -5.797038    0.321029
     42          6           0        3.168458   -3.653067    0.030523
     43          6           0        2.398359   -4.212867   -1.194627
     44          8           0        2.800435   -4.280190   -2.351297
     45          8           0        1.285717   -4.873246   -0.718961
     46          6           0        0.404223   -5.614000   -1.642620
     47          6           0       -3.179162   -3.181833    0.446089
     48          6           0       -4.377984   -2.625536   -0.249807
     49          6           0       -5.652516   -2.972833   -0.054510
     50          6           0       -6.069799   -4.036441    1.036856
     51          6           0       -6.782726   -2.223375   -0.855513
     52          6           0       -7.127742   -0.779045   -0.343624
     53          6           0       -8.581585   -0.705813    0.137136
     54          6           0       -9.218453    0.723573   -0.030959
     55          6           0       -8.914455    1.675751    1.230804
     56          6           0      -10.642130    0.754355   -0.541733
     57          6           0      -11.006993    1.524668   -1.826920
     58          6           0      -12.503537    2.026120   -1.887365
     59          6           0      -13.588099    0.882266   -1.838873
     60          6           0      -13.954739    0.484238   -3.281722
     61          6           0      -14.851381    1.327567   -0.985791
     62          6           0      -14.844439    0.905498    0.517398
     63          6           0      -14.836784    1.948462    1.590558
     64          6           0      -13.458360    1.916830    2.388332
     65          6           0      -13.095429    3.349641    2.934280
     66          6           0      -13.467004    0.815989    3.490372
     67          1           0        2.620105    3.242019   -0.805572
     68          1           0        8.849134    3.951575    0.364042
     69          1           0        9.368238   -2.318348    0.790106
     70          1           0        1.547630   -1.278961   -1.489855
     71          1           0        1.028066    1.458673   -0.088829
     72          1           0        1.731710    1.619045   -2.913688
     73          1           0        0.365335    2.176789   -2.110250
     74          1           0        0.344332    0.518380   -2.582976
     75          1           0        1.151502   -0.967760    1.542699
     76          1           0        0.640453   -2.241928    0.433297
     77          1           0       -0.873360   -0.031074   -0.288766
     78          1           0       -0.690555    0.368995    1.476854
     79          1           0        2.883268    5.373298   -0.969502
     80          1           0        4.104103    6.155682   -1.952289
     81          1           0        3.949080    6.477664   -0.207195
     82          1           0        6.024378    7.476888   -1.249333
     83          1           0        7.447939    8.235052   -0.409298
     84          1           0        6.144304    7.406428    0.535635
     85          1           0       10.598676    2.266566    1.233716
     86          1           0       11.021584   -0.393452    0.149988
     87          1           0       10.507255    2.672730   -1.498144
     88          1           0       11.501177    1.207467   -1.398452
     89          1           0       12.054589    2.603153   -0.507958
     90          1           0       11.581946    0.516400    2.427749
     91          1           0       10.895854   -1.115032    2.392683
     92          1           0       10.041091    1.252821    3.894573
     93          1           0        9.671082   -0.415812    4.130262
     94          1           0        8.717721    0.646368    3.025165
     95          1           0        8.759191   -4.616981    1.111319
     96          1           0        8.372556   -5.179740   -0.491017
     97          1           0        7.340145   -5.580120    0.984781
     98          1           0        2.567438   -3.732817    0.937375
     99          1           0        0.811084   -6.076598   -2.541800
    100          1           0       -0.269468   -4.869427   -2.068242
    101          1           0       -0.172275   -6.394972   -1.148064
    102          1           0       -3.263865   -3.377383    1.514670
    103          1           0       -2.955274   -4.169604    0.044156
    104          1           0       -4.130782   -1.883022   -1.007973
    105          1           0       -5.224446   -4.473887    1.569147
    106          1           0       -6.646123   -4.855782    0.606127
    107          1           0       -6.823651   -3.607522    1.696469
    108          1           0       -7.669576   -2.848509   -0.754767
    109          1           0       -6.618994   -2.104543   -1.926505
    110          1           0       -6.893895   -0.105446   -1.167504
    111          1           0       -6.465049   -0.532329    0.486598
    112          1           0       -8.668571   -1.057267    1.164321
    113          1           0       -9.201055   -1.458015   -0.353957
    114          1           0       -8.652362    1.104166   -0.881115
    115          1           0       -8.615775    1.021666    2.049301
    116          1           0       -9.782276    2.258479    1.538349
    117          1           0       -8.119566    2.403291    1.061196
    118          1           0      -11.207010    1.256355    0.243011
    119          1           0      -10.988728   -0.270295   -0.675114
    120          1           0      -10.623583    0.992800   -2.697522
    121          1           0      -10.403702    2.431790   -1.848813
    122          1           0      -12.635619    2.561493   -2.827677
    123          1           0      -12.641798    2.494582   -0.914203
    124          1           0      -13.098840    0.115745   -1.236840
    125          1           0      -13.199762   -0.168093   -3.720827
    126          1           0      -14.055811    1.357317   -3.925159
    127          1           0      -14.846009   -0.125876   -3.131856
    128          1           0      -15.725098    0.933490   -1.504850
    129          1           0      -14.952040    2.403823   -1.129235
    130          1           0      -13.986421    0.254852    0.684676
    131          1           0      -15.667807    0.206184    0.663679
    132          1           0      -15.606375    1.787725    2.345608
    133          1           0      -14.971346    2.952839    1.188727
    134          1           0      -12.624908    1.659935    1.733891
    135          1           0      -13.308335    4.122202    2.195578
    136          1           0      -12.030217    3.440458    3.149747
    137          1           0      -13.745122    3.546924    3.786428
    138          1           0      -13.690887   -0.176026    3.097473
    139          1           0      -14.307630    1.123902    4.112506
    140          1           0      -12.523632    0.806744    4.035056
 ---------------------------------------------------------------------

 SCF Done:  E(RPBE1PBE) =  -3005.38502701     A.U. after   15 cycles

 Excitation energies and oscillator strengths:

 Excited State   1:      Singlet-A      1.8690 eV  663.36 nm  f=0.3784  <S**2>=0.000
     245 -> 248       -0.16292
     246 -> 247        0.69461
     246 <- 247       -0.11115
 This state for optimization and/or second-order correction.
 Total Energy, E(TD-HF/TD-DFT) =  -3005.31634167
 Copying the excited state density for this state as the 1-particle RhoCI density.

 Excited State   2:      Singlet-A      2.3046 eV  537.98 nm  f=0.1069  <S**2>=0.000
     245 -> 247        0.64512
     246 -> 248        0.26973

 Excited State   3:      Singlet-A      3.0361 eV  408.37 nm  f=0.0035  <S**2>=0.000
     243 -> 247        0.69186

 Excited State   4:      Singlet-A      3.1040 eV  399.43 nm  f=0.0006  <S**2>=0.000
     242 -> 247        0.67387
     242 -> 249        0.13951
     242 -> 250        0.13133

 Excited State   5:      Singlet-A      3.1948 eV  388.09 nm  f=0.0060  <S**2>=0.000
     241 -> 247        0.63580
     241 -> 248       -0.12629
     241 -> 249       -0.19060
     246 -> 248        0.12590

 The electronic state is 1-A.
 Alpha  occ. eigenvalues --  -46.90997 -19.26038 -19.24969 -19.21483 -19.20358
 Alpha  occ. eigenvalues --  -19.19946 -19.19393 -14.41811 -14.41146 -14.40243
 Alpha  occ. eigenvalues --  -14.38311 -10.37383 -10.37171 -10.33674 -10.32477
 Alpha  occ. eigenvalues --  -10.29192 -10.29082 -10.28850 -10.28780 -10.28518
 Alpha  occ. eigenvalues --  -10.28142 -10.28043 -10.27959 -10.27668 -10.26981
 Alpha  occ. eigenvalues --  -10.26729 -10.26697 -10.26577 -10.26452 -10.26300
 Alpha  occ. eigenvalues --  -10.26217 -10.26197 -10.25987 -10.25544 -10.25092
 Alpha  occ. eigenvalues --  -10.24948 -10.24891 -10.24606 -10.24504 -10.24219
 Alpha  occ. eigenvalues --  -10.23838 -10.23813 -10.23604 -10.23571 -10.23472
 Alpha  occ. eigenvalues --  -10.23398 -10.23382 -10.23343 -10.23166 -10.22946
 Alpha  occ. eigenvalues --  -10.22858 -10.22786 -10.22679 -10.22592 -10.22562
 Alpha  occ. eigenvalues --  -10.22497 -10.22376 -10.22333 -10.22269 -10.22265
 Alpha  occ. eigenvalues --  -10.22237 -10.22100 -10.22024 -10.21911 -10.21903
 Alpha  occ. eigenvalues --  -10.21818  -3.13486  -1.86303  -1.85848  -1.85759
 Alpha  occ. eigenvalues --   -1.10422  -1.10398  -1.04627  -1.04550  -1.03199
 Alpha  occ. eigenvalues --   -1.02311  -0.99619  -0.98772  -0.98112  -0.97436
 Alpha  occ. eigenvalues --   -0.86727  -0.84262  -0.83635  -0.83439  -0.82966
 Alpha  occ. eigenvalues --   -0.82929  -0.82229  -0.82019  -0.81391  -0.80879
 Alpha  occ. eigenvalues --   -0.80522  -0.79804  -0.78354  -0.78080  -0.77725
 Alpha  occ. eigenvalues --   -0.76093  -0.75945  -0.75658  -0.75074  -0.74286
 Alpha  occ. eigenvalues --   -0.73346  -0.72890  -0.72263  -0.71785  -0.70709
 Alpha  occ. eigenvalues --   -0.69670  -0.69468  -0.69413  -0.68693  -0.68412
 Alpha  occ. eigenvalues --   -0.67620  -0.66908  -0.66363  -0.65444  -0.64259
 Alpha  occ. eigenvalues --   -0.62885  -0.62723  -0.61904  -0.60833  -0.60391
 Alpha  occ. eigenvalues --   -0.59778  -0.59613  -0.59451  -0.58961  -0.57989
 Alpha  occ. eigenvalues --   -0.57269  -0.56939  -0.56806  -0.55714  -0.54960
 Alpha  occ. eigenvalues --   -0.54704  -0.54210  -0.53920  -0.53231  -0.52338
 Alpha  occ. eigenvalues --   -0.51860  -0.51336  -0.50680  -0.50303  -0.49914
 Alpha  occ. eigenvalues --   -0.49686  -0.49499  -0.49066  -0.48739  -0.48555
 Alpha  occ. eigenvalues --   -0.48288  -0.47999  -0.47753  -0.47283  -0.47039
 Alpha  occ. eigenvalues --   -0.46996  -0.46907  -0.46833  -0.46450  -0.46028
 Alpha  occ. eigenvalues --   -0.45813  -0.45702  -0.45348  -0.45322  -0.45161
 Alpha  occ. eigenvalues --   -0.44948  -0.44909  -0.44625  -0.44437  -0.44245
 Alpha  occ. eigenvalues --   -0.44188  -0.43837  -0.43647  -0.43521  -0.43121
 Alpha  occ. eigenvalues --   -0.43058  -0.42989  -0.42752  -0.42609  -0.42566
 Alpha  occ. eigenvalues --   -0.42484  -0.42117  -0.41554  -0.41472  -0.41396
 Alpha  occ. eigenvalues --   -0.41081  -0.40773  -0.40593  -0.40509  -0.40368
 Alpha  occ. eigenvalues --   -0.40293  -0.40015  -0.39900  -0.39647  -0.39608
 Alpha  occ. eigenvalues --   -0.39510  -0.39311  -0.39129  -0.38988  -0.38843
 Alpha  occ. eigenvalues --   -0.38578  -0.38557  -0.38491  -0.38450  -0.38080
 Alpha  occ. eigenvalues --   -0.37709  -0.37589  -0.37270  -0.37022  -0.36986
 Alpha  occ. eigenvalues --   -0.36899  -0.36751  -0.36628  -0.36496  -0.36386
 Alpha  occ. eigenvalues --   -0.36142  -0.35937  -0.35817  -0.35170  -0.34985
 Alpha  occ. eigenvalues --   -0.34857  -0.34492  -0.34361  -0.34147  -0.33680
 Alpha  occ. eigenvalues --   -0.33375  -0.33027  -0.32984  -0.32730  -0.32304
 Alpha  occ. eigenvalues --   -0.32113  -0.31633  -0.31605  -0.31392  -0.31089
 Alpha  occ. eigenvalues --   -0.30747  -0.30265  -0.29984  -0.29884  -0.29529
 Alpha  occ. eigenvalues --   -0.29428  -0.29144  -0.28954  -0.27522  -0.26899
 Alpha  occ. eigenvalues --   -0.25968  -0.25802  -0.25000  -0.24608  -0.21132
 Alpha  occ. eigenvalues --   -0.18632
 Alpha virt. eigenvalues --   -0.11011  -0.05009  -0.04005  -0.02452  -0.00951
 Alpha virt. eigenvalues --   -0.00393   0.00076   0.01580   0.01877   0.03029
 Alpha virt. eigenvalues --    0.04169   0.04396   0.04979   0.04999   0.05343

 Mulliken charges:
               1
     1  Mg   1.002819
     2  C   -0.060237
     3  C   -0.069458
     4  C   -0.064232
     5  C   -0.069271
     6  N   -0.373576
     7  C    0.008161
     8  C   -0.034596
     9  C   -0.188387
    10  C    0.113189
    11  C   -0.023229
    12  C    0.001354
    13  C   -0.002915
    14  C    0.229042
    15  O   -0.239230
    16  O   -0.395888
    17  N   -0.543610
    18  C    0.172580
    19  C   -0.171082
    20  C   -0.076525
    21  C    0.139551
    22  C    0.024910
    23  C    0.070979
    24  O   -0.250466
    25  C   -0.018118
    26  N   -0.381710
    27  C    0.045590
    28  C   -0.104314
    29  C   -0.085917
    30  C    0.077791
    31  C    0.040185
    32  C   -0.023528
    33  C   -0.067865
    34  N   -0.462368
    35  C    0.147378
    36  C   -0.191784
    37  C   -0.060146
    38  C    0.167900
    39  C    0.073364
    40  C    0.140118
    41  O   -0.209080
    42  C   -0.087194
    43  C    0.301930
    44  O   -0.248786
    45  O   -0.370902
    46  C    0.126471
    47  C    0.239476
    48  C   -0.127240
    49  C   -0.197044
    50  C    0.005468
    51  C   -0.004376
    52  C   -0.029344
    53  C   -0.036138
    54  C   -0.187762
    55  C   -0.017399
    56  C   -0.038125
    57  C   -0.047624
    58  C   -0.005366
    59  C   -0.246372
    60  C    0.003715
    61  C   -0.002272
    62  C   -0.031204
    63  C    0.014305
    64  C   -0.302842
    65  C   -0.031136
    66  C   -0.018370
    67  H   -0.005798
    68  H    0.027696
    69  H   -0.006778
    70  H    0.063278
    71  H    0.063077
    72  H    0.055082
    73  H    0.029603
    74  H    0.049216
    75  H    0.044526
    76  H    0.074231
    77  H    0.068985
    78  H    0.073617
    79  H    0.040985
    80  H    0.067739
    81  H    0.055456
    82  H    0.055904
    83  H    0.066094
    84  H    0.062312
    85  H    0.042332
    86  H    0.035247
    87  H    0.061367
    88  H    0.034854
    89  H    0.049065
    90  H    0.040157
    91  H    0.038132
    92  H    0.034273
    93  H    0.046252
    94  H    0.051030
    95  H    0.026491
    96  H    0.068534
    97  H    0.060424
    98  H    0.085047
    99  H    0.063451
   100  H    0.049400
   101  H    0.065715
   102  H    0.053967
   103  H    0.040737
   104  H    0.021003
   105  H    0.041620
   106  H    0.040820
   107  H    0.044778
   108  H    0.021016
   109  H    0.041230
   110  H    0.030106
   111  H    0.050426
   112  H    0.027015
   113  H    0.020372
   114  H    0.028240
   115  H    0.037022
   116  H    0.033086
   117  H    0.041116
   118  H    0.028985
   119  H    0.036436
   120  H    0.022210
   121  H    0.020934
   122  H    0.030603
   123  H    0.033322
   124  H    0.035180
   125  H    0.033507
   126  H    0.041016
   127  H    0.036947
   128  H    0.014086
   129  H    0.021498
   130  H    0.027661
   131  H    0.024018
   132  H    0.023515
   133  H    0.024568
   134  H    0.066976
   135  H    0.032115
   136  H    0.041303
   137  H    0.032770
   138  H    0.038197
   139  H    0.031090
   140  H    0.044270
 Sum of Mulliken charges =  -0.00000

 Dipole moment (field-independent basis, Debye):
    X=             -1.5964    Y=              3.6223    Z=              1.1561  Tot=              4.1239
 Quadrupole moment (field-independent basis, Debye-Ang):
   XX=           -393.6784   YY=           -412.6416   ZZ=           -408.1850
   XY=             13.7680   XZ=             25.2088   YZ=             -4.6253

 Normal termination of Gaussian 16 at Sat Apr 30 07:07:48 2022.
