 Gaussian 16, Revision A.03,
 Gaussian 16:  ES64L-G16RevA.03 25-Dec-2016

 --------------------------------
 #p wB97XD/Def2SVP td=(nstates=5)
 --------------------------------

 ----------------------------------------------------
 step_651_chromophore_16 TDDFT with wB97XD functional
 ----------------------------------------------------
 Symbolic Z-matrix:
 Charge =  0 Multiplicity = 1

                         Standard orientation:
 ---------------------------------------------------------------------
 Center     Atomic      Atomic             Coordinates (Angstroms)
 Number     Number       Type             X           Y           Z
 ---------------------------------------------------------------------
      1         12           0        6.058573    0.557775    0.001522
      2          6           0        3.766154   -2.251001   -0.089714
      3          6           0        3.451077    2.536352   -0.748331
      4          6           0        8.240412    3.080249    0.113248
      5          6           0        8.584784   -1.666087    0.401625
      6          7           0        3.898331    0.150517   -0.412412
      7          6           0        3.170585   -0.991966   -0.333801
      8          6           0        1.666452   -0.706900   -0.569314
      9          6           0        1.608680    0.824769   -0.757539
     10          6           0        3.080418    1.216860   -0.663045
     11          6           0        0.997455    1.291194   -2.177648
     12          6           0        0.672145   -1.163100    0.583645
     13          6           0       -0.698318   -0.412582    0.717461
     14          6           0       -1.915973   -1.245151    0.986944
     15          8           0       -2.716744   -1.048545    1.889833
     16          8           0       -2.051527   -2.409057    0.109388
     17          7           0        5.884987    2.448745   -0.339906
     18          6           0        4.729845    3.114710   -0.571807
     19          6           0        5.045066    4.619380   -0.700056
     20          6           0        6.417966    4.783276   -0.470109
     21          6           0        6.892574    3.395672   -0.250889
     22          6           0        3.920944    5.705788   -0.976274
     23          6           0        7.323207    6.044187   -0.381282
     24          8           0        8.560975    6.077269   -0.293910
     25          6           0        6.704792    7.436992   -0.399339
     26          7           0        8.131729    0.707001    0.004119
     27          6           0        8.836975    1.848273    0.133622
     28          6           0       10.315074    1.656431    0.376030
     29          6           0       10.335887    0.154854    0.796349
     30          6           0        8.888699   -0.320916    0.398204
     31          6           0       11.158285    2.085193   -0.851147
     32          6           0       10.670227   -0.057056    2.261804
     33          6           0        9.712777    0.358655    3.365271
     34          7           0        6.289900   -1.546181   -0.029940
     35          6           0        7.382341   -2.305438    0.243819
     36          6           0        7.023297   -3.682486    0.296895
     37          6           0        5.610135   -3.699128    0.169965
     38          6           0        5.196793   -2.363313    0.023681
     39          6           0        7.926337   -4.837201    0.443490
     40          6           0        4.411629   -4.581250    0.194663
     41          8           0        4.387705   -5.797038    0.321029
     42          6           0        3.168458   -3.653067    0.030523
     43          6           0        2.398359   -4.212867   -1.194627
     44          8           0        2.800435   -4.280190   -2.351297
     45          8           0        1.285717   -4.873246   -0.718961
     46          6           0        0.404223   -5.614000   -1.642620
     47          6           0       -3.179162   -3.181833    0.446089
     48          6           0       -4.377984   -2.625536   -0.249807
     49          6           0       -5.652516   -2.972833   -0.054510
     50          6           0       -6.069799   -4.036441    1.036856
     51          6           0       -6.782726   -2.223375   -0.855513
     52          6           0       -7.127742   -0.779045   -0.343624
     53          6           0       -8.581585   -0.705813    0.137136
     54          6           0       -9.218453    0.723573   -0.030959
     55          6           0       -8.914455    1.675751    1.230804
     56          6           0      -10.642130    0.754355   -0.541733
     57          6           0      -11.006993    1.524668   -1.826920
     58          6           0      -12.503537    2.026120   -1.887365
     59          6           0      -13.588099    0.882266   -1.838873
     60          6           0      -13.954739    0.484238   -3.281722
     61          6           0      -14.851381    1.327567   -0.985791
     62          6           0      -14.844439    0.905498    0.517398
     63          6           0      -14.836784    1.948462    1.590558
     64          6           0      -13.458360    1.916830    2.388332
     65          6           0      -13.095429    3.349641    2.934280
     66          6           0      -13.467004    0.815989    3.490372
     67          1           0        2.620105    3.242019   -0.805572
     68          1           0        8.849134    3.951575    0.364042
     69          1           0        9.368238   -2.318348    0.790106
     70          1           0        1.547630   -1.278961   -1.489855
     71          1           0        1.028066    1.458673   -0.088829
     72          1           0        1.731710    1.619045   -2.913688
     73          1           0        0.365335    2.176789   -2.110250
     74          1           0        0.344332    0.518380   -2.582976
     75          1           0        1.151502   -0.967760    1.542699
     76          1           0        0.640453   -2.241928    0.433297
     77          1           0       -0.873360   -0.031074   -0.288766
     78          1           0       -0.690555    0.368995    1.476854
     79          1           0        2.883268    5.373298   -0.969502
     80          1           0        4.104103    6.155682   -1.952289
     81          1           0        3.949080    6.477664   -0.207195
     82          1           0        6.024378    7.476888   -1.249333
     83          1           0        7.447939    8.235052   -0.409298
     84          1           0        6.144304    7.406428    0.535635
     85          1           0       10.598676    2.266566    1.233716
     86          1           0       11.021584   -0.393452    0.149988
     87          1           0       10.507255    2.672730   -1.498144
     88          1           0       11.501177    1.207467   -1.398452
     89          1           0       12.054589    2.603153   -0.507958
     90          1           0       11.581946    0.516400    2.427749
     91          1           0       10.895854   -1.115032    2.392683
     92          1           0       10.041091    1.252821    3.894573
     93          1           0        9.671082   -0.415812    4.130262
     94          1           0        8.717721    0.646368    3.025165
     95          1           0        8.759191   -4.616981    1.111319
     96          1           0        8.372556   -5.179740   -0.491017
     97          1           0        7.340145   -5.580120    0.984781
     98          1           0        2.567438   -3.732817    0.937375
     99          1           0        0.811084   -6.076598   -2.541800
    100          1           0       -0.269468   -4.869427   -2.068242
    101          1           0       -0.172275   -6.394972   -1.148064
    102          1           0       -3.263865   -3.377383    1.514670
    103          1           0       -2.955274   -4.169604    0.044156
    104          1           0       -4.130782   -1.883022   -1.007973
    105          1           0       -5.224446   -4.473887    1.569147
    106          1           0       -6.646123   -4.855782    0.606127
    107          1           0       -6.823651   -3.607522    1.696469
    108          1           0       -7.669576   -2.848509   -0.754767
    109          1           0       -6.618994   -2.104543   -1.926505
    110          1           0       -6.893895   -0.105446   -1.167504
    111          1           0       -6.465049   -0.532329    0.486598
    112          1           0       -8.668571   -1.057267    1.164321
    113          1           0       -9.201055   -1.458015   -0.353957
    114          1           0       -8.652362    1.104166   -0.881115
    115          1           0       -8.615775    1.021666    2.049301
    116          1           0       -9.782276    2.258479    1.538349
    117          1           0       -8.119566    2.403291    1.061196
    118          1           0      -11.207010    1.256355    0.243011
    119          1           0      -10.988728   -0.270295   -0.675114
    120          1           0      -10.623583    0.992800   -2.697522
    121          1           0      -10.403702    2.431790   -1.848813
    122          1           0      -12.635619    2.561493   -2.827677
    123          1           0      -12.641798    2.494582   -0.914203
    124          1           0      -13.098840    0.115745   -1.236840
    125          1           0      -13.199762   -0.168093   -3.720827
    126          1           0      -14.055811    1.357317   -3.925159
    127          1           0      -14.846009   -0.125876   -3.131856
    128          1           0      -15.725098    0.933490   -1.504850
    129          1           0      -14.952040    2.403823   -1.129235
    130          1           0      -13.986421    0.254852    0.684676
    131          1           0      -15.667807    0.206184    0.663679
    132          1           0      -15.606375    1.787725    2.345608
    133          1           0      -14.971346    2.952839    1.188727
    134          1           0      -12.624908    1.659935    1.733891
    135          1           0      -13.308335    4.122202    2.195578
    136          1           0      -12.030217    3.440458    3.149747
    137          1           0      -13.745122    3.546924    3.786428
    138          1           0      -13.690887   -0.176026    3.097473
    139          1           0      -14.307630    1.123902    4.112506
    140          1           0      -12.523632    0.806744    4.035056
 ---------------------------------------------------------------------

 SCF Done:  E(RwB97XD) =  -3007.89745897     A.U. after   19 cycles

 Excitation energies and oscillator strengths:

 Excited State   1:      Singlet-A      1.6510 eV  750.94 nm  f=0.3868  <S**2>=0.000
     245 -> 248       -0.18123
     246 -> 247        0.68483
     245 <- 248       -0.11710
 This state for optimization and/or second-order correction.
 Total Energy, E(TD-HF/TD-DFT) =  -3007.83678410
 Copying the excited state density for this state as the 1-particle RhoCI density.

 Excited State   2:      Singlet-A      2.2465 eV  551.90 nm  f=0.1038  <S**2>=0.000
     245 -> 247        0.63042
     246 -> 248        0.30700

 Excited State   3:      Singlet-A      3.3859 eV  366.18 nm  f=0.0040  <S**2>=0.000
     243 -> 247        0.66834
     246 -> 248       -0.16265

 Excited State   4:      Singlet-A      3.6027 eV  344.15 nm  f=0.6718  <S**2>=0.000
     241 -> 247        0.19844
     241 -> 249       -0.16637
     243 -> 247        0.12398
     245 -> 247       -0.27923
     246 -> 248        0.54964
     245 <- 247        0.10363

 Excited State   5:      Singlet-A      3.6308 eV  341.48 nm  f=0.0028  <S**2>=0.000
     242 -> 247        0.56135
     242 -> 249        0.26334
     242 -> 250        0.29129

 The electronic state is 1-A.
 Alpha  occ. eigenvalues --  -46.93949 -19.30591 -19.29535 -19.26178 -19.25078
 Alpha  occ. eigenvalues --  -19.24801 -19.24193 -14.46856 -14.46262 -14.45258
 Alpha  occ. eigenvalues --  -14.43184 -10.44188 -10.44005 -10.40550 -10.39305
 Alpha  occ. eigenvalues --  -10.35580 -10.35457 -10.35276 -10.35159 -10.34876
 Alpha  occ. eigenvalues --  -10.34612 -10.34496 -10.34235 -10.33987 -10.33393
 Alpha  occ. eigenvalues --  -10.33166 -10.32949 -10.32825 -10.32786 -10.32701
 Alpha  occ. eigenvalues --  -10.32481 -10.32409 -10.32360 -10.32118 -10.31323
 Alpha  occ. eigenvalues --  -10.31290 -10.31115 -10.30927 -10.30911 -10.30605
 Alpha  occ. eigenvalues --  -10.30447 -10.30134 -10.30044 -10.29889 -10.29832
 Alpha  occ. eigenvalues --  -10.29817 -10.29708 -10.29663 -10.29529 -10.29265
 Alpha  occ. eigenvalues --  -10.29218 -10.29192 -10.28954 -10.28928 -10.28920
 Alpha  occ. eigenvalues --  -10.28848 -10.28750 -10.28727 -10.28673 -10.28627
 Alpha  occ. eigenvalues --  -10.28605 -10.28481 -10.28455 -10.28325 -10.28282
 Alpha  occ. eigenvalues --  -10.28258  -3.20260  -1.93832  -1.93379  -1.93287
 Alpha  occ. eigenvalues --   -1.17824  -1.17793  -1.12173  -1.12015  -1.10557
 Alpha  occ. eigenvalues --   -1.09680  -1.06997  -1.06158  -1.05469  -1.04779
 Alpha  occ. eigenvalues --   -0.94325  -0.91924  -0.91310  -0.91007  -0.90629
 Alpha  occ. eigenvalues --   -0.90545  -0.89826  -0.89686  -0.89152  -0.88549
 Alpha  occ. eigenvalues --   -0.88088  -0.87446  -0.85952  -0.85722  -0.85360
 Alpha  occ. eigenvalues --   -0.83811  -0.83665  -0.83332  -0.82706  -0.81950
 Alpha  occ. eigenvalues --   -0.81012  -0.80580  -0.79903  -0.79390  -0.78307
 Alpha  occ. eigenvalues --   -0.77254  -0.77139  -0.77117  -0.76377  -0.76083
 Alpha  occ. eigenvalues --   -0.75206  -0.74445  -0.73937  -0.73022  -0.71810
 Alpha  occ. eigenvalues --   -0.70496  -0.70321  -0.69477  -0.68453  -0.67917
 Alpha  occ. eigenvalues --   -0.67260  -0.67181  -0.66926  -0.66399  -0.65666
 Alpha  occ. eigenvalues --   -0.64770  -0.64441  -0.64321  -0.63363  -0.62427
 Alpha  occ. eigenvalues --   -0.62228  -0.61680  -0.61325  -0.60584  -0.59846
 Alpha  occ. eigenvalues --   -0.59256  -0.58764  -0.58099  -0.57688  -0.57297
 Alpha  occ. eigenvalues --   -0.57087  -0.56935  -0.56462  -0.56192  -0.55925
 Alpha  occ. eigenvalues --   -0.55767  -0.55457  -0.55071  -0.54753  -0.54550
 Alpha  occ. eigenvalues --   -0.54431  -0.54239  -0.54200  -0.53791  -0.53356
 Alpha  occ. eigenvalues --   -0.53123  -0.53077  -0.52702  -0.52632  -0.52492
 Alpha  occ. eigenvalues --   -0.52321  -0.52286  -0.52059  -0.51783  -0.51584
 Alpha  occ. eigenvalues --   -0.51522  -0.51177  -0.50955  -0.50830  -0.50417
 Alpha  occ. eigenvalues --   -0.50359  -0.50287  -0.50071  -0.49924  -0.49879
 Alpha  occ. eigenvalues --   -0.49806  -0.49386  -0.48825  -0.48719  -0.48580
 Alpha  occ. eigenvalues --   -0.48354  -0.47952  -0.47781  -0.47686  -0.47526
 Alpha  occ. eigenvalues --   -0.47461  -0.47270  -0.47119  -0.46888  -0.46849
 Alpha  occ. eigenvalues --   -0.46685  -0.46463  -0.46373  -0.46144  -0.45941
 Alpha  occ. eigenvalues --   -0.45678  -0.45646  -0.45619  -0.45577  -0.45241
 Alpha  occ. eigenvalues --   -0.44764  -0.44716  -0.44409  -0.44291  -0.44144
 Alpha  occ. eigenvalues --   -0.44019  -0.43823  -0.43729  -0.43586  -0.43433
 Alpha  occ. eigenvalues --   -0.43207  -0.43010  -0.42912  -0.42156  -0.42009
 Alpha  occ. eigenvalues --   -0.41923  -0.41543  -0.41323  -0.41158  -0.40705
 Alpha  occ. eigenvalues --   -0.40291  -0.40091  -0.39909  -0.39778  -0.39345
 Alpha  occ. eigenvalues --   -0.39130  -0.38621  -0.38498  -0.38442  -0.38008
 Alpha  occ. eigenvalues --   -0.37705  -0.37241  -0.36948  -0.36808  -0.36597
 Alpha  occ. eigenvalues --   -0.36314  -0.36082  -0.35683  -0.34185  -0.33588
 Alpha  occ. eigenvalues --   -0.33082  -0.32862  -0.31476  -0.31344  -0.26145
 Alpha  occ. eigenvalues --   -0.22786
 Alpha virt. eigenvalues --   -0.06861   0.00470   0.02280   0.04069   0.05417
 Alpha virt. eigenvalues --    0.05918   0.06846   0.08368   0.08588   0.09471
 Alpha virt. eigenvalues --    0.10544   0.11255   0.11613   0.11775   0.12103

 Mulliken charges:
               1
     1  Mg   0.988282
     2  C   -0.071804
     3  C   -0.088643
     4  C   -0.082929
     5  C   -0.086307
     6  N   -0.337455
     7  C   -0.024948
     8  C   -0.010935
     9  C   -0.161887
    10  C    0.102128
    11  C   -0.014649
    12  C    0.012676
    13  C    0.019595
    14  C    0.219592
    15  O   -0.237599
    16  O   -0.396348
    17  N   -0.509779
    18  C    0.168335
    19  C   -0.165727
    20  C   -0.072978
    21  C    0.132896
    22  C    0.036775
    23  C    0.069444
    24  O   -0.245044
    25  C   -0.004070
    26  N   -0.345016
    27  C    0.038616
    28  C   -0.085033
    29  C   -0.058264
    30  C    0.062561
    31  C    0.050272
    32  C   -0.009540
    33  C   -0.051426
    34  N   -0.424566
    35  C    0.140394
    36  C   -0.185613
    37  C   -0.057068
    38  C    0.155027
    39  C    0.082849
    40  C    0.120153
    41  O   -0.199164
    42  C   -0.048430
    43  C    0.278550
    44  O   -0.242765
    45  O   -0.369700
    46  C    0.140828
    47  C    0.256230
    48  C   -0.140609
    49  C   -0.184129
    50  C    0.021698
    51  C    0.014191
    52  C   -0.015291
    53  C   -0.019948
    54  C   -0.161841
    55  C   -0.000103
    56  C    0.001465
    57  C   -0.034164
    58  C    0.019386
    59  C   -0.214742
    60  C    0.017293
    61  C    0.011099
    62  C   -0.010363
    63  C    0.025436
    64  C   -0.251350
    65  C   -0.017993
    66  C   -0.006304
    67  H   -0.015200
    68  H    0.023425
    69  H   -0.014487
    70  H    0.053081
    71  H    0.051652
    72  H    0.049645
    73  H    0.024146
    74  H    0.043729
    75  H    0.037137
    76  H    0.062026
    77  H    0.057861
    78  H    0.070289
    79  H    0.038490
    80  H    0.063160
    81  H    0.049886
    82  H    0.049236
    83  H    0.065791
    84  H    0.055743
    85  H    0.031949
    86  H    0.026068
    87  H    0.054637
    88  H    0.028924
    89  H    0.044345
    90  H    0.031438
    91  H    0.030782
    92  H    0.028826
    93  H    0.041860
    94  H    0.040275
    95  H    0.020393
    96  H    0.064546
    97  H    0.055964
    98  H    0.079725
    99  H    0.059897
   100  H    0.045413
   101  H    0.062449
   102  H    0.047687
   103  H    0.036245
   104  H    0.017546
   105  H    0.036635
   106  H    0.034876
   107  H    0.038261
   108  H    0.010500
   109  H    0.035532
   110  H    0.023036
   111  H    0.041443
   112  H    0.017869
   113  H    0.009330
   114  H    0.011131
   115  H    0.029989
   116  H    0.025706
   117  H    0.035992
   118  H   -0.003597
   119  H    0.026015
   120  H    0.014675
   121  H    0.011936
   122  H    0.022779
   123  H    0.016748
   124  H    0.015753
   125  H    0.027792
   126  H    0.034856
   127  H    0.029756
   128  H    0.006348
   129  H    0.011859
   130  H    0.012228
   131  H    0.018037
   132  H    0.015461
   133  H    0.015239
   134  H    0.036578
   135  H    0.025593
   136  H    0.035952
   137  H    0.025717
   138  H    0.032823
   139  H    0.022175
   140  H    0.039152
 Sum of Mulliken charges =  -0.00000

 Dipole moment (field-independent basis, Debye):
    X=             -1.6728    Y=              3.8616    Z=              1.1490  Tot=              4.3624
 Quadrupole moment (field-independent basis, Debye-Ang):
   XX=           -394.6811   YY=           -410.5924   ZZ=           -407.8173
   XY=             15.3370   XZ=             25.2235   YZ=             -4.8068

 Normal termination of Gaussian 16 at Sat Apr 30 07:36:17 2022.
