 Gaussian 16, Revision A.03,
 Gaussian 16:  ES64L-G16RevA.03 25-Dec-2016

 --------------------
 #p ZINDO=(nstates=5)
 --------------------

 -----------------------------
 step_651_chromophore_16 ZINDO
 -----------------------------
 Symbolic Z-matrix:
 Charge =  0 Multiplicity = 1

                         Standard orientation:
 ---------------------------------------------------------------------
 Center     Atomic      Atomic             Coordinates (Angstroms)
 Number     Number       Type             X           Y           Z
 ---------------------------------------------------------------------
      1         12           0        6.058573    0.557775    0.001522
      2          6           0        3.766154   -2.251001   -0.089714
      3          6           0        3.451077    2.536352   -0.748331
      4          6           0        8.240412    3.080249    0.113248
      5          6           0        8.584784   -1.666087    0.401625
      6          7           0        3.898331    0.150517   -0.412412
      7          6           0        3.170585   -0.991966   -0.333801
      8          6           0        1.666452   -0.706900   -0.569314
      9          6           0        1.608680    0.824769   -0.757539
     10          6           0        3.080418    1.216860   -0.663045
     11          6           0        0.997455    1.291194   -2.177648
     12          6           0        0.672145   -1.163100    0.583645
     13          6           0       -0.698318   -0.412582    0.717461
     14          6           0       -1.915973   -1.245151    0.986944
     15          8           0       -2.716744   -1.048545    1.889833
     16          8           0       -2.051527   -2.409057    0.109388
     17          7           0        5.884987    2.448745   -0.339906
     18          6           0        4.729845    3.114710   -0.571807
     19          6           0        5.045066    4.619380   -0.700056
     20          6           0        6.417966    4.783276   -0.470109
     21          6           0        6.892574    3.395672   -0.250889
     22          6           0        3.920944    5.705788   -0.976274
     23          6           0        7.323207    6.044187   -0.381282
     24          8           0        8.560975    6.077269   -0.293910
     25          6           0        6.704792    7.436992   -0.399339
     26          7           0        8.131729    0.707001    0.004119
     27          6           0        8.836975    1.848273    0.133622
     28          6           0       10.315074    1.656431    0.376030
     29          6           0       10.335887    0.154854    0.796349
     30          6           0        8.888699   -0.320916    0.398204
     31          6           0       11.158285    2.085193   -0.851147
     32          6           0       10.670227   -0.057056    2.261804
     33          6           0        9.712777    0.358655    3.365271
     34          7           0        6.289900   -1.546181   -0.029940
     35          6           0        7.382341   -2.305438    0.243819
     36          6           0        7.023297   -3.682486    0.296895
     37          6           0        5.610135   -3.699128    0.169965
     38          6           0        5.196793   -2.363313    0.023681
     39          6           0        7.926337   -4.837201    0.443490
     40          6           0        4.411629   -4.581250    0.194663
     41          8           0        4.387705   -5.797038    0.321029
     42          6           0        3.168458   -3.653067    0.030523
     43          6           0        2.398359   -4.212867   -1.194627
     44          8           0        2.800435   -4.280190   -2.351297
     45          8           0        1.285717   -4.873246   -0.718961
     46          6           0        0.404223   -5.614000   -1.642620
     47          6           0       -3.179162   -3.181833    0.446089
     48          6           0       -4.377984   -2.625536   -0.249807
     49          6           0       -5.652516   -2.972833   -0.054510
     50          6           0       -6.069799   -4.036441    1.036856
     51          6           0       -6.782726   -2.223375   -0.855513
     52          6           0       -7.127742   -0.779045   -0.343624
     53          6           0       -8.581585   -0.705813    0.137136
     54          6           0       -9.218453    0.723573   -0.030959
     55          6           0       -8.914455    1.675751    1.230804
     56          6           0      -10.642130    0.754355   -0.541733
     57          6           0      -11.006993    1.524668   -1.826920
     58          6           0      -12.503537    2.026120   -1.887365
     59          6           0      -13.588099    0.882266   -1.838873
     60          6           0      -13.954739    0.484238   -3.281722
     61          6           0      -14.851381    1.327567   -0.985791
     62          6           0      -14.844439    0.905498    0.517398
     63          6           0      -14.836784    1.948462    1.590558
     64          6           0      -13.458360    1.916830    2.388332
     65          6           0      -13.095429    3.349641    2.934280
     66          6           0      -13.467004    0.815989    3.490372
     67          1           0        2.620105    3.242019   -0.805572
     68          1           0        8.849134    3.951575    0.364042
     69          1           0        9.368238   -2.318348    0.790106
     70          1           0        1.547630   -1.278961   -1.489855
     71          1           0        1.028066    1.458673   -0.088829
     72          1           0        1.731710    1.619045   -2.913688
     73          1           0        0.365335    2.176789   -2.110250
     74          1           0        0.344332    0.518380   -2.582976
     75          1           0        1.151502   -0.967760    1.542699
     76          1           0        0.640453   -2.241928    0.433297
     77          1           0       -0.873360   -0.031074   -0.288766
     78          1           0       -0.690555    0.368995    1.476854
     79          1           0        2.883268    5.373298   -0.969502
     80          1           0        4.104103    6.155682   -1.952289
     81          1           0        3.949080    6.477664   -0.207195
     82          1           0        6.024378    7.476888   -1.249333
     83          1           0        7.447939    8.235052   -0.409298
     84          1           0        6.144304    7.406428    0.535635
     85          1           0       10.598676    2.266566    1.233716
     86          1           0       11.021584   -0.393452    0.149988
     87          1           0       10.507255    2.672730   -1.498144
     88          1           0       11.501177    1.207467   -1.398452
     89          1           0       12.054589    2.603153   -0.507958
     90          1           0       11.581946    0.516400    2.427749
     91          1           0       10.895854   -1.115032    2.392683
     92          1           0       10.041091    1.252821    3.894573
     93          1           0        9.671082   -0.415812    4.130262
     94          1           0        8.717721    0.646368    3.025165
     95          1           0        8.759191   -4.616981    1.111319
     96          1           0        8.372556   -5.179740   -0.491017
     97          1           0        7.340145   -5.580120    0.984781
     98          1           0        2.567438   -3.732817    0.937375
     99          1           0        0.811084   -6.076598   -2.541800
    100          1           0       -0.269468   -4.869427   -2.068242
    101          1           0       -0.172275   -6.394972   -1.148064
    102          1           0       -3.263865   -3.377383    1.514670
    103          1           0       -2.955274   -4.169604    0.044156
    104          1           0       -4.130782   -1.883022   -1.007973
    105          1           0       -5.224446   -4.473887    1.569147
    106          1           0       -6.646123   -4.855782    0.606127
    107          1           0       -6.823651   -3.607522    1.696469
    108          1           0       -7.669576   -2.848509   -0.754767
    109          1           0       -6.618994   -2.104543   -1.926505
    110          1           0       -6.893895   -0.105446   -1.167504
    111          1           0       -6.465049   -0.532329    0.486598
    112          1           0       -8.668571   -1.057267    1.164321
    113          1           0       -9.201055   -1.458015   -0.353957
    114          1           0       -8.652362    1.104166   -0.881115
    115          1           0       -8.615775    1.021666    2.049301
    116          1           0       -9.782276    2.258479    1.538349
    117          1           0       -8.119566    2.403291    1.061196
    118          1           0      -11.207010    1.256355    0.243011
    119          1           0      -10.988728   -0.270295   -0.675114
    120          1           0      -10.623583    0.992800   -2.697522
    121          1           0      -10.403702    2.431790   -1.848813
    122          1           0      -12.635619    2.561493   -2.827677
    123          1           0      -12.641798    2.494582   -0.914203
    124          1           0      -13.098840    0.115745   -1.236840
    125          1           0      -13.199762   -0.168093   -3.720827
    126          1           0      -14.055811    1.357317   -3.925159
    127          1           0      -14.846009   -0.125876   -3.131856
    128          1           0      -15.725098    0.933490   -1.504850
    129          1           0      -14.952040    2.403823   -1.129235
    130          1           0      -13.986421    0.254852    0.684676
    131          1           0      -15.667807    0.206184    0.663679
    132          1           0      -15.606375    1.787725    2.345608
    133          1           0      -14.971346    2.952839    1.188727
    134          1           0      -12.624908    1.659935    1.733891
    135          1           0      -13.308335    4.122202    2.195578
    136          1           0      -12.030217    3.440458    3.149747
    137          1           0      -13.745122    3.546924    3.786428
    138          1           0      -13.690887   -0.176026    3.097473
    139          1           0      -14.307630    1.123902    4.112506
    140          1           0      -12.523632    0.806744    4.035056
 ---------------------------------------------------------------------

 SCF Done:  E(RZINDO/S) =  -474.099883152     A.U. after   19 cycles

 Excitation energies and oscillator strengths:

 Excited State   1:      Singlet-A      1.2572 eV  986.17 nm  f=0.6070  <S**2>=0.000
     175 ->178        -0.19305
     176 ->177         0.66279
 This state for optimization and/or second-order correction.
 Total Energy, E(CIS/TDA) =  -474.053680952
 Copying the excited state density for this state as the 1-particle RhoCI density.

 Excited State   2:      Singlet-A      1.9578 eV  633.27 nm  f=0.0239  <S**2>=0.000
     175 ->177         0.52842
     176 ->178         0.44673

 Excited State   3:      Singlet-A      2.9176 eV  424.95 nm  f=0.0196  <S**2>=0.000
     168 ->177         0.22863
     168 ->179        -0.40794
     168 ->180         0.27343
     168 ->185        -0.18777
     168 ->188        -0.11898
     169 ->177        -0.10333
     169 ->179         0.16719
     169 ->180        -0.11344

 Excited State   4:      Singlet-A      3.0332 eV  408.75 nm  f=0.2486  <S**2>=0.000
     175 ->177        -0.18808
     176 ->178         0.25972
     176 ->179         0.58595
     176 ->183        -0.10430

 Excited State   5:      Singlet-A      3.0493 eV  406.60 nm  f=0.1364  <S**2>=0.000
     170 ->177         0.29843
     170 ->178         0.13264
     170 ->179         0.30375
     170 ->180         0.30613
     170 ->183        -0.16409
     170 ->185         0.19164
     170 ->202        -0.11260
     175 ->177         0.13478
     176 ->178        -0.16023

 The electronic state is 1-A.
 Alpha  occ. eigenvalues --   -1.85043  -1.82444  -1.80468  -1.73436  -1.70860
 Alpha  occ. eigenvalues --   -1.69933  -1.64571  -1.58500  -1.58409  -1.57575
 Alpha  occ. eigenvalues --   -1.53411  -1.50534  -1.47673  -1.47250  -1.46353
 Alpha  occ. eigenvalues --   -1.45274  -1.43977  -1.40596  -1.37786  -1.37217
 Alpha  occ. eigenvalues --   -1.35689  -1.33834  -1.32332  -1.31363  -1.29542
 Alpha  occ. eigenvalues --   -1.26752  -1.25173  -1.21249  -1.20259  -1.17371
 Alpha  occ. eigenvalues --   -1.16418  -1.15544  -1.15013  -1.13936  -1.13354
 Alpha  occ. eigenvalues --   -1.12490  -1.11530  -1.11452  -1.05365  -1.04125
 Alpha  occ. eigenvalues --   -1.01544  -1.01413  -0.99807  -0.98323  -0.97674
 Alpha  occ. eigenvalues --   -0.96375  -0.94488  -0.94456  -0.93512  -0.92712
 Alpha  occ. eigenvalues --   -0.90224  -0.89857  -0.88828  -0.87471  -0.85949
 Alpha  occ. eigenvalues --   -0.85085  -0.84139  -0.83206  -0.81886  -0.80963
 Alpha  occ. eigenvalues --   -0.80611  -0.79310  -0.76410  -0.75893  -0.75472
 Alpha  occ. eigenvalues --   -0.75317  -0.74939  -0.74327  -0.73840  -0.73488
 Alpha  occ. eigenvalues --   -0.72517  -0.72169  -0.71851  -0.71437  -0.70379
 Alpha  occ. eigenvalues --   -0.69910  -0.68992  -0.68698  -0.68214  -0.67780
 Alpha  occ. eigenvalues --   -0.67704  -0.66800  -0.66193  -0.65997  -0.65958
 Alpha  occ. eigenvalues --   -0.64894  -0.64616  -0.64244  -0.63831  -0.63392
 Alpha  occ. eigenvalues --   -0.63359  -0.62374  -0.61952  -0.61896  -0.61678
 Alpha  occ. eigenvalues --   -0.61540  -0.61372  -0.60681  -0.60379  -0.60261
 Alpha  occ. eigenvalues --   -0.59199  -0.58906  -0.58751  -0.58528  -0.58065
 Alpha  occ. eigenvalues --   -0.57759  -0.57298  -0.57164  -0.56484  -0.56233
 Alpha  occ. eigenvalues --   -0.56103  -0.55679  -0.55348  -0.55257  -0.55069
 Alpha  occ. eigenvalues --   -0.54977  -0.54312  -0.53971  -0.53598  -0.52943
 Alpha  occ. eigenvalues --   -0.52668  -0.52553  -0.52048  -0.51699  -0.51419
 Alpha  occ. eigenvalues --   -0.51219  -0.51117  -0.50935  -0.50629  -0.50298
 Alpha  occ. eigenvalues --   -0.50116  -0.49820  -0.49603  -0.49382  -0.49022
 Alpha  occ. eigenvalues --   -0.48904  -0.48794  -0.48648  -0.48190  -0.48066
 Alpha  occ. eigenvalues --   -0.47877  -0.47776  -0.47262  -0.47155  -0.46999
 Alpha  occ. eigenvalues --   -0.46847  -0.46068  -0.45764  -0.45344  -0.45251
 Alpha  occ. eigenvalues --   -0.45125  -0.44919  -0.44834  -0.44548  -0.44369
 Alpha  occ. eigenvalues --   -0.43189  -0.42947  -0.42864  -0.42582  -0.42162
 Alpha  occ. eigenvalues --   -0.42143  -0.41634  -0.41499  -0.39557  -0.39445
 Alpha  occ. eigenvalues --   -0.38665  -0.37161  -0.35809  -0.35192  -0.34855
 Alpha  occ. eigenvalues --   -0.34284  -0.32778  -0.32156  -0.32045  -0.26770
 Alpha  occ. eigenvalues --   -0.21583
 Alpha virt. eigenvalues --   -0.08285  -0.01937  -0.00516   0.00748   0.01055
 Alpha virt. eigenvalues --    0.02468   0.02588   0.02970   0.04865   0.05393
 Alpha virt. eigenvalues --    0.05876   0.06294   0.06692   0.07823   0.08102

 Mulliken charges:
               1
     1  Mg   0.428696
     2  C   -0.058551
     3  C   -0.087103
     4  C   -0.070272
     5  C   -0.058544
     6  N   -0.288900
     7  C    0.116058
     8  C    0.003010
     9  C   -0.003159
    10  C    0.138176
    11  C   -0.061996
    12  C   -0.024216
    13  C    0.012192
    14  C    0.458066
    15  O   -0.498986
    16  O   -0.290407
    17  N   -0.297100
    18  C    0.114002
    19  C   -0.004614
    20  C   -0.035043
    21  C    0.122033
    22  C   -0.045769
    23  C    0.329422
    24  O   -0.522648
    25  C   -0.026747
    26  N   -0.259898
    27  C    0.149464
    28  C    0.000759
    29  C    0.001248
    30  C    0.116628
    31  C   -0.047633
    32  C   -0.017845
    33  C   -0.051183
    34  N   -0.332625
    35  C    0.103301
    36  C    0.031876
    37  C   -0.063683
    38  C    0.106171
    39  C   -0.037182
    40  C    0.337018
    41  O   -0.513938
    42  C    0.065958
    43  C    0.484249
    44  O   -0.506193
    45  O   -0.268345
    46  C    0.075011
    47  C    0.115030
    48  C   -0.064877
    49  C   -0.022419
    50  C   -0.046252
    51  C   -0.029620
    52  C   -0.027698
    53  C   -0.031314
    54  C   -0.019070
    55  C   -0.060560
    56  C   -0.031056
    57  C   -0.040964
    58  C   -0.046562
    59  C   -0.027568
    60  C   -0.055775
    61  C   -0.039131
    62  C   -0.028949
    63  C   -0.026053
    64  C   -0.022879
    65  C   -0.061958
    66  C   -0.057624
    67  H    0.022273
    68  H    0.046225
    69  H    0.014820
    70  H    0.046921
    71  H    0.039342
    72  H    0.028630
    73  H    0.012622
    74  H    0.020725
    75  H    0.023118
    76  H    0.034383
    77  H    0.045759
    78  H    0.048646
    79  H    0.027339
    80  H    0.031180
    81  H    0.025335
    82  H    0.034677
    83  H    0.048268
    84  H    0.037857
    85  H    0.029721
    86  H    0.027549
    87  H    0.033767
    88  H    0.020017
    89  H    0.024880
    90  H    0.013397
    91  H    0.016361
    92  H    0.013772
    93  H    0.020588
    94  H    0.024689
    95  H    0.015659
    96  H    0.042453
    97  H    0.033134
    98  H    0.056199
    99  H    0.051330
   100  H    0.028572
   101  H    0.039485
   102  H    0.053566
   103  H    0.024084
   104  H    0.031366
   105  H    0.030373
   106  H    0.021784
   107  H    0.028274
   108  H    0.014383
   109  H    0.025349
   110  H    0.022876
   111  H    0.025322
   112  H    0.016895
   113  H    0.014860
   114  H    0.011913
   115  H    0.020591
   116  H    0.020233
   117  H    0.020910
   118  H    0.016925
   119  H    0.018062
   120  H    0.019436
   121  H    0.005310
   122  H    0.031094
   123  H    0.028305
   124  H    0.026509
   125  H    0.015113
   126  H    0.030075
   127  H    0.017829
   128  H    0.014191
   129  H    0.016788
   130  H    0.017597
   131  H    0.011998
   132  H    0.020842
   133  H    0.019852
   134  H    0.017321
   135  H    0.014180
   136  H    0.020393
   137  H    0.020126
   138  H    0.020559
   139  H    0.017902
   140  H    0.021668
 Sum of Mulliken charges =  -0.00000

 Dipole moment (field-independent basis, Debye):
    X=             -3.0586    Y=              6.4223    Z=              2.1179  Tot=              7.4220
 N-N= 4.254711670863D+03 E-N= 0.000000000000D+00  KE=-9.183564745440D+03
 Leave Link  601 at Sat Apr 30 07:48:01 2022, MaxMem=  6710886400 cpu:               0.7 elap:               0.0
 (Enter /sw/apps/gaussian-16.0/g16/l9999.exe)
 1\1\GINC-BP1-COMPUTE148\SP\RZINDO CIS\STO-3G\C55H74Mg1N4O6\OF15641\30-
 Apr-2022\0\\#p ZINDO=(nstates=5)\\step_651_chromophore_16 ZINDO\\0,1\M
 g,0,40.834,41.501,26.639\C,0,39.8,43.954,29.102\C,0,41.729,39.513,29.1
 93\C,0,41.752,39.304,24.301\C,0,40.19,43.808,24.241\N,0,40.802,41.757,
 28.861\C,0,40.301,42.747,29.642\C,0,40.389,42.367,31.141\C,0,40.991,40
 .945,31.124\C,0,41.223,40.711,29.634\C,0,42.382,40.809,31.933\C,0,39.0
 24,42.383,31.955\C,0,38.912,41.474,33.228\C,0,38.247,42.061,34.437\O,0

 Normal termination of Gaussian 16 at Sat Apr 30 07:48:01 2022.
