 Gaussian 16, Revision A.03,
 Gaussian 16:  ES64L-G16RevA.03 25-Dec-2016

 ------------------------------
 #p blyp/Def2SVP td=(nstates=5)
 ------------------------------

 --------------------------------------------------
 step_251_chromophore_17 TDDFT with blyp functional
 --------------------------------------------------
 Symbolic Z-matrix:
 Charge =  0 Multiplicity = 1

                         Standard orientation:
 ---------------------------------------------------------------------
 Center     Atomic      Atomic             Coordinates (Angstroms)
 Number     Number       Type             X           Y           Z
 ---------------------------------------------------------------------
      1         12           0        4.106757    0.931786   -0.714324
      2          6           0        3.437482   -2.476089   -0.675570
      3          6           0        1.273832    1.389783   -2.793586
      4          6           0        4.004777    4.163928    0.126515
      5          6           0        6.438528    0.374208    1.870366
      6          7           0        2.285716   -0.416180   -1.361542
      7          6           0        2.445098   -1.780101   -1.413014
      8          6           0        1.343244   -2.432677   -2.187376
      9          6           0        0.808814   -1.213707   -3.071049
     10          6           0        1.452972    0.038025   -2.376781
     11          6           0        1.151347   -1.279673   -4.644261
     12          6           0        0.306756   -3.169333   -1.192151
     13          6           0       -0.416298   -4.272973   -1.779845
     14          6           0       -1.949692   -4.136764   -1.669132
     15          8           0       -2.741051   -3.916344   -2.577105
     16          8           0       -2.374174   -4.234530   -0.351011
     17          7           0        2.961945    2.585172   -1.371299
     18          6           0        1.836116    2.567292   -2.241477
     19          6           0        1.410152    3.943316   -2.433316
     20          6           0        2.197844    4.787923   -1.613826
     21          6           0        3.176747    3.855076   -0.960940
     22          6           0        0.213276    4.291315   -3.237365
     23          6           0        1.969162    6.349654   -1.458789
     24          8           0        1.054905    6.845520   -2.115478
     25          6           0        3.002085    7.256683   -0.798909
     26          7           0        5.019663    2.025505    0.848048
     27          6           0        4.884267    3.375756    0.866782
     28          6           0        5.670850    4.079409    2.138627
     29          6           0        6.631735    2.868172    2.564306
     30          6           0        6.063835    1.673495    1.734604
     31          6           0        6.514913    5.365507    1.797840
     32          6           0        6.599198    2.573841    4.065219
     33          6           0        7.891397    2.637244    4.914357
     34          7           0        5.000796   -0.707763    0.166819
     35          6           0        5.939261   -0.772316    1.155510
     36          6           0        6.330635   -2.142127    1.343359
     37          6           0        5.283117   -2.853270    0.645603
     38          6           0        4.488893   -1.896703   -0.009471
     39          6           0        7.367293   -2.651800    2.302434
     40          6           0        4.727888   -4.173141    0.429995
     41          8           0        5.183384   -5.247459    0.680503
     42          6           0        3.478900   -4.028827   -0.524195
     43          6           0        3.649729   -4.679400   -1.914665
     44          8           0        4.601944   -4.505428   -2.644450
     45          8           0        2.586016   -5.574385   -2.151467
     46          6           0        2.680611   -6.393189   -3.322184
     47          6           0       -3.797181   -4.333118   -0.281944
     48          6           0       -4.141358   -4.102801    1.170454
     49          6           0       -5.378608   -4.114171    1.698620
     50          6           0       -6.560268   -4.471881    0.859220
     51          6           0       -5.496003   -3.813184    3.148921
     52          6           0       -6.109930   -2.430889    3.363819
     53          6           0       -5.221857   -1.576271    4.321185
     54          6           0       -5.591628   -0.058395    4.500733
     55          6           0       -4.606827    0.413001    5.631597
     56          6           0       -5.317508    0.774762    3.190676
     57          6           0       -6.619473    1.357818    2.512594
     58          6           0       -6.987406    0.651327    1.195920
     59          6           0       -8.476430    0.429874    0.928385
     60          6           0       -9.087296   -0.938561    1.166173
     61          6           0       -9.068231    1.043809   -0.312659
     62          6           0       -9.177566    2.647051   -0.351978
     63          6           0       -8.114238    3.389652   -1.250816
     64          6           0       -8.710952    4.512759   -1.958317
     65          6           0       -9.381849    4.139868   -3.329556
     66          6           0       -7.735054    5.724149   -2.169608
     67          1           0        0.436285    1.457771   -3.489849
     68          1           0        3.855491    5.135543    0.601690
     69          1           0        7.180565    0.249618    2.661135
     70          1           0        1.719540   -3.083973   -2.976924
     71          1           0       -0.274493   -1.164534   -2.955160
     72          1           0        0.183468   -1.281984   -5.145403
     73          1           0        1.738625   -2.156816   -4.914204
     74          1           0        1.687659   -0.359274   -4.877013
     75          1           0       -0.400609   -2.379502   -0.939917
     76          1           0        0.950339   -3.367892   -0.334710
     77          1           0       -0.083294   -5.165425   -1.251354
     78          1           0       -0.202699   -4.334062   -2.846929
     79          1           0       -0.123058    3.449922   -3.842942
     80          1           0        0.467090    5.059420   -3.968336
     81          1           0       -0.621321    4.583247   -2.599497
     82          1           0        3.128555    7.074836    0.268813
     83          1           0        2.693359    8.286914   -0.979161
     84          1           0        3.944664    7.108488   -1.325990
     85          1           0        4.878697    4.214473    2.874562
     86          1           0        7.655885    2.943699    2.198262
     87          1           0        6.066350    6.236275    2.275134
     88          1           0        6.521205    5.519760    0.718162
     89          1           0        7.520117    5.188060    2.181680
     90          1           0        6.096271    1.630954    4.278794
     91          1           0        5.903285    3.189461    4.634919
     92          1           0        8.288318    1.697215    5.298597
     93          1           0        7.615834    3.213465    5.797939
     94          1           0        8.703571    3.113443    4.363760
     95          1           0        7.630115   -3.659477    1.979595
     96          1           0        6.986333   -2.953226    3.277689
     97          1           0        8.214475   -1.985619    2.463342
     98          1           0        2.699817   -4.567927    0.015515
     99          1           0        1.622231   -6.564026   -3.521686
    100          1           0        3.070490   -7.385613   -3.096613
    101          1           0        3.275287   -5.903988   -4.092600
    102          1           0       -4.168575   -5.277298   -0.680446
    103          1           0       -4.282380   -3.500660   -0.793216
    104          1           0       -3.307338   -3.726855    1.764251
    105          1           0       -7.466772   -4.184076    1.390719
    106          1           0       -6.519955   -5.529236    0.597536
    107          1           0       -6.420794   -3.799267    0.012387
    108          1           0       -4.541091   -4.000330    3.640137
    109          1           0       -6.197972   -4.613717    3.380634
    110          1           0       -7.073300   -2.534920    3.864096
    111          1           0       -6.234491   -1.857845    2.445883
    112          1           0       -4.188962   -1.639873    3.976973
    113          1           0       -5.240219   -2.055751    5.300052
    114          1           0       -6.612219   -0.015673    4.881463
    115          1           0       -5.169171    1.028089    6.335269
    116          1           0       -3.787243    1.071516    5.344310
    117          1           0       -4.157911   -0.391061    6.213171
    118          1           0       -4.668068    0.348785    2.424164
    119          1           0       -4.869510    1.688837    3.580961
    120          1           0       -6.444176    2.422275    2.357959
    121          1           0       -7.461002    1.186318    3.184895
    122          1           0       -6.413870   -0.243554    0.951326
    123          1           0       -6.748986    1.375354    0.416728
    124          1           0       -8.921761    1.030523    1.722747
    125          1           0       -8.328870   -1.682180    0.919435
    126          1           0       -9.978457   -1.136745    0.569604
    127          1           0       -9.401486   -1.028299    2.206017
    128          1           0       -9.960424    0.533595   -0.676107
    129          1           0       -8.287122    0.788984   -1.029066
    130          1           0       -9.000439    2.972145    0.673248
    131          1           0      -10.216578    2.899780   -0.562567
    132          1           0       -7.882322    2.644089   -2.011174
    133          1           0       -7.257448    3.664222   -0.635330
    134          1           0       -9.465952    4.946460   -1.302761
    135          1           0       -9.100641    4.845870   -4.111262
    136          1           0      -10.446908    4.200389   -3.106559
    137          1           0       -9.184686    3.081463   -3.499253
    138          1           0       -7.089978    5.813503   -1.295313
    139          1           0       -8.350879    6.621239   -2.242976
    140          1           0       -7.177213    5.587098   -3.095655
 ---------------------------------------------------------------------

 SCF Done:  E(RB-LYP) =  -3007.34436532     A.U. after   21 cycles

 Excitation energies and oscillator strengths:

 Excited State   1:      Singlet-A      1.7924 eV  691.73 nm  f=0.2966  <S**2>=0.000
     244 -> 247        0.14967
     245 -> 248       -0.17996
     246 -> 247        0.67611
     246 <- 247       -0.14938
 This state for optimization and/or second-order correction.
 Total Energy, E(TD-HF/TD-DFT) =  -3007.27849632
 Copying the excited state density for this state as the 1-particle RhoCI density.

 Excited State   2:      Singlet-A      1.8395 eV  674.01 nm  f=0.0196  <S**2>=0.000
     244 -> 247        0.68081
     245 -> 247        0.10803
     246 -> 247       -0.14665

 Excited State   3:      Singlet-A      1.9155 eV  647.28 nm  f=0.0044  <S**2>=0.000
     243 -> 247        0.70395

 Excited State   4:      Singlet-A      2.0117 eV  616.31 nm  f=0.0464  <S**2>=0.000
     242 -> 247       -0.40049
     245 -> 247        0.52918
     246 -> 248        0.19941

 Excited State   5:      Singlet-A      2.0554 eV  603.20 nm  f=0.0269  <S**2>=0.000
     242 -> 247        0.58112
     245 -> 247        0.35453
     246 -> 248        0.15860

 The electronic state is 1-A.
 Alpha  occ. eigenvalues --  -46.28232 -18.82367 -18.81976 -18.77710 -18.77262
 Alpha  occ. eigenvalues --  -18.76221 -18.75379 -14.03351 -14.03306 -14.01593
 Alpha  occ. eigenvalues --  -14.00971 -10.04634 -10.04127 -10.00907  -9.99047
 Alpha  occ. eigenvalues --   -9.97645  -9.97075  -9.96953  -9.96856  -9.96375
 Alpha  occ. eigenvalues --   -9.96364  -9.96337  -9.96234  -9.95870  -9.95137
 Alpha  occ. eigenvalues --   -9.94791  -9.94338  -9.94298  -9.94237  -9.93964
 Alpha  occ. eigenvalues --   -9.93813  -9.93744  -9.93715  -9.93582  -9.93267
 Alpha  occ. eigenvalues --   -9.93190  -9.93093  -9.93075  -9.92839  -9.92828
 Alpha  occ. eigenvalues --   -9.92760  -9.92688  -9.92611  -9.92517  -9.92345
 Alpha  occ. eigenvalues --   -9.92316  -9.92007  -9.91434  -9.91396  -9.91333
 Alpha  occ. eigenvalues --   -9.91274  -9.91246  -9.91194  -9.91193  -9.91063
 Alpha  occ. eigenvalues --   -9.90991  -9.90930  -9.90815  -9.90781  -9.90657
 Alpha  occ. eigenvalues --   -9.90645  -9.90532  -9.90505  -9.90454  -9.90420
 Alpha  occ. eigenvalues --   -9.89993  -2.92755  -1.73125  -1.72712  -1.72434
 Alpha  occ. eigenvalues --   -0.98324  -0.97677  -0.92605  -0.91670  -0.90902
 Alpha  occ. eigenvalues --   -0.90067  -0.87585  -0.85171  -0.84805  -0.84091
 Alpha  occ. eigenvalues --   -0.75341  -0.73878  -0.73239  -0.73076  -0.72595
 Alpha  occ. eigenvalues --   -0.71876  -0.71547  -0.70960  -0.70403  -0.70017
 Alpha  occ. eigenvalues --   -0.69226  -0.68880  -0.67679  -0.67355  -0.67041
 Alpha  occ. eigenvalues --   -0.66243  -0.65995  -0.65380  -0.64813  -0.64399
 Alpha  occ. eigenvalues --   -0.64029  -0.62461  -0.62045  -0.61403  -0.60830
 Alpha  occ. eigenvalues --   -0.60366  -0.59841  -0.59652  -0.59634  -0.58961
 Alpha  occ. eigenvalues --   -0.57802  -0.57205  -0.56492  -0.55225  -0.54739
 Alpha  occ. eigenvalues --   -0.53843  -0.53519  -0.52396  -0.52301  -0.51807
 Alpha  occ. eigenvalues --   -0.51365  -0.50771  -0.50450  -0.50339  -0.49963
 Alpha  occ. eigenvalues --   -0.49427  -0.49202  -0.48765  -0.48112  -0.46101
 Alpha  occ. eigenvalues --   -0.46020  -0.45835  -0.45501  -0.45138  -0.44773
 Alpha  occ. eigenvalues --   -0.44113  -0.43502  -0.43036  -0.42809  -0.42182
 Alpha  occ. eigenvalues --   -0.41875  -0.41715  -0.41642  -0.41188  -0.41174
 Alpha  occ. eigenvalues --   -0.40789  -0.40651  -0.40214  -0.40005  -0.39869
 Alpha  occ. eigenvalues --   -0.39776  -0.39633  -0.39558  -0.39012  -0.38905
 Alpha  occ. eigenvalues --   -0.38760  -0.38649  -0.38640  -0.38520  -0.38301
 Alpha  occ. eigenvalues --   -0.38083  -0.37948  -0.37674  -0.37551  -0.37291
 Alpha  occ. eigenvalues --   -0.37231  -0.36920  -0.36766  -0.36647  -0.36597
 Alpha  occ. eigenvalues --   -0.36511  -0.36095  -0.36040  -0.35854  -0.35752
 Alpha  occ. eigenvalues --   -0.35690  -0.35401  -0.34947  -0.34931  -0.34805
 Alpha  occ. eigenvalues --   -0.34453  -0.34361  -0.34155  -0.34112  -0.33717
 Alpha  occ. eigenvalues --   -0.33685  -0.33660  -0.33287  -0.33187  -0.33164
 Alpha  occ. eigenvalues --   -0.32826  -0.32729  -0.32589  -0.32464  -0.32371
 Alpha  occ. eigenvalues --   -0.32153  -0.32056  -0.31939  -0.31837  -0.31754
 Alpha  occ. eigenvalues --   -0.31605  -0.31458  -0.31328  -0.30972  -0.30816
 Alpha  occ. eigenvalues --   -0.30621  -0.30507  -0.30297  -0.30131  -0.29906
 Alpha  occ. eigenvalues --   -0.29677  -0.29596  -0.29500  -0.29177  -0.29054
 Alpha  occ. eigenvalues --   -0.28753  -0.28709  -0.28098  -0.27917  -0.27705
 Alpha  occ. eigenvalues --   -0.27400  -0.26874  -0.26804  -0.26387  -0.25984
 Alpha  occ. eigenvalues --   -0.25926  -0.25725  -0.25423  -0.25205  -0.25184
 Alpha  occ. eigenvalues --   -0.24981  -0.24879  -0.24214  -0.24089  -0.23657
 Alpha  occ. eigenvalues --   -0.23509  -0.22983  -0.22119  -0.21875  -0.20572
 Alpha  occ. eigenvalues --   -0.20217  -0.19163  -0.18780  -0.18407  -0.17519
 Alpha  occ. eigenvalues --   -0.15947
 Alpha virt. eigenvalues --   -0.11744  -0.06899  -0.06191  -0.04987  -0.03800
 Alpha virt. eigenvalues --   -0.03307  -0.03179  -0.02149  -0.00338  -0.00165
 Alpha virt. eigenvalues --    0.01016   0.01804   0.02430   0.02623   0.02831

 Mulliken charges:
               1
     1  Mg   0.700266
     2  C   -0.050815
     3  C   -0.039785
     4  C   -0.049593
     5  C   -0.072677
     6  N   -0.206135
     7  C   -0.115397
     8  C   -0.010713
     9  C   -0.031232
    10  C   -0.016352
    11  C    0.117074
    12  C    0.124021
    13  C    0.242035
    14  C    0.038008
    15  O   -0.188829
    16  O   -0.272488
    17  N   -0.297971
    18  C    0.150727
    19  C   -0.136321
    20  C   -0.006263
    21  C    0.141559
    22  C    0.201278
    23  C   -0.044567
    24  O   -0.168646
    25  C    0.113528
    26  N   -0.263268
    27  C    0.020345
    28  C   -0.026468
    29  C    0.090331
    30  C   -0.014677
    31  C    0.127719
    32  C    0.077423
    33  C    0.057047
    34  N   -0.231854
    35  C    0.133520
    36  C   -0.161571
    37  C    0.047779
    38  C    0.166782
    39  C    0.163378
    40  C   -0.070775
    41  O   -0.103174
    42  C    0.057953
    43  C    0.124835
    44  O   -0.154777
    45  O   -0.294732
    46  C    0.208350
    47  C    0.320044
    48  C   -0.149385
    49  C   -0.250597
    50  C    0.180240
    51  C    0.210697
    52  C    0.105971
    53  C    0.003619
    54  C   -0.033203
    55  C    0.097571
    56  C    0.120524
    57  C    0.057644
    58  C    0.120418
    59  C   -0.095569
    60  C    0.120989
    61  C    0.082448
    62  C    0.044580
    63  C    0.131519
    64  C   -0.122332
    65  C    0.124664
    66  C    0.087216
    67  H   -0.047371
    68  H   -0.072410
    69  H   -0.067142
    70  H   -0.019522
    71  H   -0.019911
    72  H    0.003748
    73  H    0.006455
    74  H   -0.003467
    75  H   -0.015133
    76  H   -0.015337
    77  H    0.001487
    78  H   -0.013835
    79  H   -0.038915
    80  H    0.003734
    81  H    0.013924
    82  H    0.024377
    83  H   -0.004189
    84  H    0.018088
    85  H   -0.003608
    86  H   -0.016352
    87  H   -0.005768
    88  H    0.001309
    89  H    0.000126
    90  H   -0.025552
    91  H   -0.035612
    92  H   -0.004278
    93  H   -0.011161
    94  H   -0.009198
    95  H   -0.000067
    96  H   -0.004254
    97  H    0.000353
    98  H    0.002941
    99  H    0.007996
   100  H    0.014540
   101  H    0.026708
   102  H   -0.005030
   103  H    0.004723
   104  H   -0.040722
   105  H   -0.005955
   106  H    0.015466
   107  H    0.002665
   108  H   -0.027197
   109  H   -0.042722
   110  H   -0.033784
   111  H   -0.015710
   112  H   -0.029261
   113  H   -0.029416
   114  H   -0.031697
   115  H   -0.027287
   116  H   -0.014975
   117  H   -0.021152
   118  H   -0.014364
   119  H   -0.042590
   120  H   -0.021540
   121  H   -0.025225
   122  H   -0.023381
   123  H   -0.052862
   124  H   -0.053752
   125  H   -0.019669
   126  H   -0.025667
   127  H   -0.017391
   128  H   -0.039264
   129  H   -0.046593
   130  H   -0.032071
   131  H   -0.025240
   132  H   -0.033692
   133  H   -0.022711
   134  H   -0.037583
   135  H   -0.004552
   136  H   -0.018431
   137  H   -0.017130
   138  H   -0.021229
   139  H   -0.017017
   140  H   -0.010634
 Sum of Mulliken charges =  -0.00000

 Dipole moment (field-independent basis, Debye):
    X=              0.4162    Y=              2.1975    Z=              2.5012  Tot=              3.3553
 Quadrupole moment (field-independent basis, Debye-Ang):
   XX=           -388.4191   YY=           -422.9803   ZZ=           -396.2721
   XY=             38.7338   XZ=              4.6037   YZ=             19.1372

 Normal termination of Gaussian 16 at Wed May  4 18:42:16 2022.
