 Gaussian 16, Revision A.03,
 Gaussian 16:  ES64L-G16RevA.03 25-Dec-2016

 -----------------------------------
 #p cam-b3lyp/Def2SVP td=(nstates=5)
 -----------------------------------

 -------------------------------------------------------
 step_251_chromophore_17 TDDFT with cam-b3lyp functional
 -------------------------------------------------------
 Symbolic Z-matrix:
 Charge =  0 Multiplicity = 1

                         Standard orientation:
 ---------------------------------------------------------------------
 Center     Atomic      Atomic             Coordinates (Angstroms)
 Number     Number       Type             X           Y           Z
 ---------------------------------------------------------------------
      1         12           0        4.106757    0.931786   -0.714324
      2          6           0        3.437482   -2.476089   -0.675570
      3          6           0        1.273832    1.389783   -2.793586
      4          6           0        4.004777    4.163928    0.126515
      5          6           0        6.438528    0.374208    1.870366
      6          7           0        2.285716   -0.416180   -1.361542
      7          6           0        2.445098   -1.780101   -1.413014
      8          6           0        1.343244   -2.432677   -2.187376
      9          6           0        0.808814   -1.213707   -3.071049
     10          6           0        1.452972    0.038025   -2.376781
     11          6           0        1.151347   -1.279673   -4.644261
     12          6           0        0.306756   -3.169333   -1.192151
     13          6           0       -0.416298   -4.272973   -1.779845
     14          6           0       -1.949692   -4.136764   -1.669132
     15          8           0       -2.741051   -3.916344   -2.577105
     16          8           0       -2.374174   -4.234530   -0.351011
     17          7           0        2.961945    2.585172   -1.371299
     18          6           0        1.836116    2.567292   -2.241477
     19          6           0        1.410152    3.943316   -2.433316
     20          6           0        2.197844    4.787923   -1.613826
     21          6           0        3.176747    3.855076   -0.960940
     22          6           0        0.213276    4.291315   -3.237365
     23          6           0        1.969162    6.349654   -1.458789
     24          8           0        1.054905    6.845520   -2.115478
     25          6           0        3.002085    7.256683   -0.798909
     26          7           0        5.019663    2.025505    0.848048
     27          6           0        4.884267    3.375756    0.866782
     28          6           0        5.670850    4.079409    2.138627
     29          6           0        6.631735    2.868172    2.564306
     30          6           0        6.063835    1.673495    1.734604
     31          6           0        6.514913    5.365507    1.797840
     32          6           0        6.599198    2.573841    4.065219
     33          6           0        7.891397    2.637244    4.914357
     34          7           0        5.000796   -0.707763    0.166819
     35          6           0        5.939261   -0.772316    1.155510
     36          6           0        6.330635   -2.142127    1.343359
     37          6           0        5.283117   -2.853270    0.645603
     38          6           0        4.488893   -1.896703   -0.009471
     39          6           0        7.367293   -2.651800    2.302434
     40          6           0        4.727888   -4.173141    0.429995
     41          8           0        5.183384   -5.247459    0.680503
     42          6           0        3.478900   -4.028827   -0.524195
     43          6           0        3.649729   -4.679400   -1.914665
     44          8           0        4.601944   -4.505428   -2.644450
     45          8           0        2.586016   -5.574385   -2.151467
     46          6           0        2.680611   -6.393189   -3.322184
     47          6           0       -3.797181   -4.333118   -0.281944
     48          6           0       -4.141358   -4.102801    1.170454
     49          6           0       -5.378608   -4.114171    1.698620
     50          6           0       -6.560268   -4.471881    0.859220
     51          6           0       -5.496003   -3.813184    3.148921
     52          6           0       -6.109930   -2.430889    3.363819
     53          6           0       -5.221857   -1.576271    4.321185
     54          6           0       -5.591628   -0.058395    4.500733
     55          6           0       -4.606827    0.413001    5.631597
     56          6           0       -5.317508    0.774762    3.190676
     57          6           0       -6.619473    1.357818    2.512594
     58          6           0       -6.987406    0.651327    1.195920
     59          6           0       -8.476430    0.429874    0.928385
     60          6           0       -9.087296   -0.938561    1.166173
     61          6           0       -9.068231    1.043809   -0.312659
     62          6           0       -9.177566    2.647051   -0.351978
     63          6           0       -8.114238    3.389652   -1.250816
     64          6           0       -8.710952    4.512759   -1.958317
     65          6           0       -9.381849    4.139868   -3.329556
     66          6           0       -7.735054    5.724149   -2.169608
     67          1           0        0.436285    1.457771   -3.489849
     68          1           0        3.855491    5.135543    0.601690
     69          1           0        7.180565    0.249618    2.661135
     70          1           0        1.719540   -3.083973   -2.976924
     71          1           0       -0.274493   -1.164534   -2.955160
     72          1           0        0.183468   -1.281984   -5.145403
     73          1           0        1.738625   -2.156816   -4.914204
     74          1           0        1.687659   -0.359274   -4.877013
     75          1           0       -0.400609   -2.379502   -0.939917
     76          1           0        0.950339   -3.367892   -0.334710
     77          1           0       -0.083294   -5.165425   -1.251354
     78          1           0       -0.202699   -4.334062   -2.846929
     79          1           0       -0.123058    3.449922   -3.842942
     80          1           0        0.467090    5.059420   -3.968336
     81          1           0       -0.621321    4.583247   -2.599497
     82          1           0        3.128555    7.074836    0.268813
     83          1           0        2.693359    8.286914   -0.979161
     84          1           0        3.944664    7.108488   -1.325990
     85          1           0        4.878697    4.214473    2.874562
     86          1           0        7.655885    2.943699    2.198262
     87          1           0        6.066350    6.236275    2.275134
     88          1           0        6.521205    5.519760    0.718162
     89          1           0        7.520117    5.188060    2.181680
     90          1           0        6.096271    1.630954    4.278794
     91          1           0        5.903285    3.189461    4.634919
     92          1           0        8.288318    1.697215    5.298597
     93          1           0        7.615834    3.213465    5.797939
     94          1           0        8.703571    3.113443    4.363760
     95          1           0        7.630115   -3.659477    1.979595
     96          1           0        6.986333   -2.953226    3.277689
     97          1           0        8.214475   -1.985619    2.463342
     98          1           0        2.699817   -4.567927    0.015515
     99          1           0        1.622231   -6.564026   -3.521686
    100          1           0        3.070490   -7.385613   -3.096613
    101          1           0        3.275287   -5.903988   -4.092600
    102          1           0       -4.168575   -5.277298   -0.680446
    103          1           0       -4.282380   -3.500660   -0.793216
    104          1           0       -3.307338   -3.726855    1.764251
    105          1           0       -7.466772   -4.184076    1.390719
    106          1           0       -6.519955   -5.529236    0.597536
    107          1           0       -6.420794   -3.799267    0.012387
    108          1           0       -4.541091   -4.000330    3.640137
    109          1           0       -6.197972   -4.613717    3.380634
    110          1           0       -7.073300   -2.534920    3.864096
    111          1           0       -6.234491   -1.857845    2.445883
    112          1           0       -4.188962   -1.639873    3.976973
    113          1           0       -5.240219   -2.055751    5.300052
    114          1           0       -6.612219   -0.015673    4.881463
    115          1           0       -5.169171    1.028089    6.335269
    116          1           0       -3.787243    1.071516    5.344310
    117          1           0       -4.157911   -0.391061    6.213171
    118          1           0       -4.668068    0.348785    2.424164
    119          1           0       -4.869510    1.688837    3.580961
    120          1           0       -6.444176    2.422275    2.357959
    121          1           0       -7.461002    1.186318    3.184895
    122          1           0       -6.413870   -0.243554    0.951326
    123          1           0       -6.748986    1.375354    0.416728
    124          1           0       -8.921761    1.030523    1.722747
    125          1           0       -8.328870   -1.682180    0.919435
    126          1           0       -9.978457   -1.136745    0.569604
    127          1           0       -9.401486   -1.028299    2.206017
    128          1           0       -9.960424    0.533595   -0.676107
    129          1           0       -8.287122    0.788984   -1.029066
    130          1           0       -9.000439    2.972145    0.673248
    131          1           0      -10.216578    2.899780   -0.562567
    132          1           0       -7.882322    2.644089   -2.011174
    133          1           0       -7.257448    3.664222   -0.635330
    134          1           0       -9.465952    4.946460   -1.302761
    135          1           0       -9.100641    4.845870   -4.111262
    136          1           0      -10.446908    4.200389   -3.106559
    137          1           0       -9.184686    3.081463   -3.499253
    138          1           0       -7.089978    5.813503   -1.295313
    139          1           0       -8.350879    6.621239   -2.242976
    140          1           0       -7.177213    5.587098   -3.095655
 ---------------------------------------------------------------------

 SCF Done:  E(RCAM-B3LYP) =  -3007.13447579     A.U. after   17 cycles

 Excitation energies and oscillator strengths:

 Excited State   1:      Singlet-A      1.6885 eV  734.27 nm  f=0.3756  <S**2>=0.000
     245 -> 248        0.17431
     246 -> 247        0.68806
     245 <- 248        0.10814
 This state for optimization and/or second-order correction.
 Total Energy, E(TD-HF/TD-DFT) =  -3007.07242326
 Copying the excited state density for this state as the 1-particle RhoCI density.

 Excited State   2:      Singlet-A      2.2459 eV  552.04 nm  f=0.1067  <S**2>=0.000
     245 -> 247        0.63690
     246 -> 248       -0.29175

 Excited State   3:      Singlet-A      3.3631 eV  368.66 nm  f=0.0056  <S**2>=0.000
     241 -> 247       -0.36876
     242 -> 247        0.16079
     243 -> 247        0.56409

 Excited State   4:      Singlet-A      3.3908 eV  365.65 nm  f=0.0271  <S**2>=0.000
     240 -> 247       -0.11907
     241 -> 247       -0.35392
     242 -> 247        0.37827
     243 -> 247       -0.34795
     246 -> 248        0.26385

 Excited State   5:      Singlet-A      3.4791 eV  356.37 nm  f=0.0010  <S**2>=0.000
     241 -> 247        0.40002
     242 -> 247        0.44023
     242 -> 249        0.20825
     242 -> 251        0.19924
     243 -> 247        0.13629

 The electronic state is 1-A.
 Alpha  occ. eigenvalues --  -46.89859 -19.25303 -19.24813 -19.20867 -19.20284
 Alpha  occ. eigenvalues --  -19.19735 -19.18325 -14.42387 -14.42068 -14.40253
 Alpha  occ. eigenvalues --  -14.39140 -10.40209 -10.39439 -10.36419 -10.34096
 Alpha  occ. eigenvalues --  -10.31884 -10.31687 -10.31575 -10.31258 -10.31038
 Alpha  occ. eigenvalues --  -10.30868 -10.30643 -10.30520 -10.29695 -10.29331
 Alpha  occ. eigenvalues --  -10.28693 -10.28625 -10.28565 -10.28527 -10.28313
 Alpha  occ. eigenvalues --  -10.28180 -10.28175 -10.27896 -10.27867 -10.27692
 Alpha  occ. eigenvalues --  -10.27204 -10.27077 -10.27055 -10.26908 -10.26618
 Alpha  occ. eigenvalues --  -10.26496 -10.26471 -10.26445 -10.26364 -10.25895
 Alpha  occ. eigenvalues --  -10.25734 -10.25666 -10.25459 -10.25352 -10.25084
 Alpha  occ. eigenvalues --  -10.25012 -10.24950 -10.24900 -10.24839 -10.24745
 Alpha  occ. eigenvalues --  -10.24686 -10.24685 -10.24474 -10.24394 -10.24304
 Alpha  occ. eigenvalues --  -10.24244 -10.24210 -10.24199 -10.24060 -10.24053
 Alpha  occ. eigenvalues --  -10.23916  -3.18277  -1.93126  -1.92786  -1.92544
 Alpha  occ. eigenvalues --   -1.16773  -1.16225  -1.10865  -1.10329  -1.08875
 Alpha  occ. eigenvalues --   -1.07935  -1.04968  -1.02981  -1.02466  -1.01659
 Alpha  occ. eigenvalues --   -0.92344  -0.90795  -0.90068  -0.89885  -0.89266
 Alpha  occ. eigenvalues --   -0.88589  -0.88295  -0.87565  -0.86945  -0.86479
 Alpha  occ. eigenvalues --   -0.85879  -0.85267  -0.83914  -0.83441  -0.83286
 Alpha  occ. eigenvalues --   -0.82313  -0.82096  -0.81401  -0.80680  -0.80277
 Alpha  occ. eigenvalues --   -0.79754  -0.77909  -0.77584  -0.77242  -0.76222
 Alpha  occ. eigenvalues --   -0.75741  -0.75125  -0.75003  -0.74945  -0.74248
 Alpha  occ. eigenvalues --   -0.72805  -0.72205  -0.71373  -0.70039  -0.69264
 Alpha  occ. eigenvalues --   -0.68299  -0.68085  -0.66884  -0.66670  -0.65978
 Alpha  occ. eigenvalues --   -0.65650  -0.64901  -0.64702  -0.64173  -0.63878
 Alpha  occ. eigenvalues --   -0.63405  -0.62941  -0.62733  -0.62003  -0.59721
 Alpha  occ. eigenvalues --   -0.59661  -0.59330  -0.59039  -0.58734  -0.58133
 Alpha  occ. eigenvalues --   -0.57545  -0.56690  -0.56370  -0.56061  -0.55346
 Alpha  occ. eigenvalues --   -0.55016  -0.54926  -0.54496  -0.54238  -0.54037
 Alpha  occ. eigenvalues --   -0.53491  -0.53377  -0.53078  -0.52769  -0.52632
 Alpha  occ. eigenvalues --   -0.52479  -0.52296  -0.52241  -0.51811  -0.51643
 Alpha  occ. eigenvalues --   -0.51327  -0.51182  -0.51100  -0.50966  -0.50882
 Alpha  occ. eigenvalues --   -0.50333  -0.50239  -0.50129  -0.49880  -0.49662
 Alpha  occ. eigenvalues --   -0.49552  -0.49229  -0.49200  -0.48885  -0.48824
 Alpha  occ. eigenvalues --   -0.48739  -0.48676  -0.48172  -0.48074  -0.47912
 Alpha  occ. eigenvalues --   -0.47775  -0.47432  -0.47111  -0.46993  -0.46743
 Alpha  occ. eigenvalues --   -0.46394  -0.46312  -0.46008  -0.45840  -0.45734
 Alpha  occ. eigenvalues --   -0.45633  -0.45379  -0.45061  -0.44934  -0.44841
 Alpha  occ. eigenvalues --   -0.44671  -0.44483  -0.44330  -0.44047  -0.43917
 Alpha  occ. eigenvalues --   -0.43728  -0.43696  -0.43557  -0.43448  -0.43331
 Alpha  occ. eigenvalues --   -0.43227  -0.43038  -0.42786  -0.42595  -0.42524
 Alpha  occ. eigenvalues --   -0.42472  -0.41890  -0.41588  -0.41411  -0.41185
 Alpha  occ. eigenvalues --   -0.40960  -0.40888  -0.40672  -0.40259  -0.40173
 Alpha  occ. eigenvalues --   -0.39855  -0.39762  -0.39023  -0.38839  -0.38673
 Alpha  occ. eigenvalues --   -0.38455  -0.37771  -0.37561  -0.37153  -0.37072
 Alpha  occ. eigenvalues --   -0.36961  -0.36662  -0.36571  -0.36421  -0.36039
 Alpha  occ. eigenvalues --   -0.35765  -0.35393  -0.34979  -0.34670  -0.34427
 Alpha  occ. eigenvalues --   -0.34180  -0.34089  -0.33341  -0.31624  -0.31347
 Alpha  occ. eigenvalues --   -0.30278  -0.30043  -0.29226  -0.28385  -0.24377
 Alpha  occ. eigenvalues --   -0.21249
 Alpha virt. eigenvalues --   -0.08835  -0.01728   0.00337   0.01282   0.02112
 Alpha virt. eigenvalues --    0.04448   0.04591   0.05196   0.06685   0.07300
 Alpha virt. eigenvalues --    0.08159   0.08553   0.08603   0.08774   0.09061

 Mulliken charges:
               1
     1  Mg   0.828603
     2  C   -0.073078
     3  C   -0.057529
     4  C   -0.081646
     5  C   -0.081227
     6  N   -0.265487
     7  C   -0.076192
     8  C   -0.055075
     9  C   -0.082812
    10  C    0.006807
    11  C    0.060535
    12  C    0.070934
    13  C    0.168329
    14  C    0.118442
    15  O   -0.230144
    16  O   -0.335022
    17  N   -0.385678
    18  C    0.158275
    19  C   -0.142214
    20  C   -0.067327
    21  C    0.179193
    22  C    0.143790
    23  C    0.031926
    24  O   -0.205999
    25  C    0.034973
    26  N   -0.335726
    27  C    0.049703
    28  C   -0.075348
    29  C    0.031392
    30  C    0.005849
    31  C    0.071036
    32  C    0.013908
    33  C   -0.000435
    34  N   -0.323223
    35  C    0.132762
    36  C   -0.155245
    37  C   -0.032682
    38  C    0.194268
    39  C    0.109639
    40  C    0.027852
    41  O   -0.143794
    42  C   -0.012151
    43  C    0.212675
    44  O   -0.190236
    45  O   -0.359171
    46  C    0.169197
    47  C    0.283053
    48  C   -0.162566
    49  C   -0.264862
    50  C    0.113756
    51  C    0.142563
    52  C    0.057341
    53  C   -0.039626
    54  C   -0.089273
    55  C    0.037029
    56  C    0.059807
    57  C    0.013482
    58  C    0.059645
    59  C   -0.149461
    60  C    0.069640
    61  C    0.029426
    62  C   -0.009320
    63  C    0.075317
    64  C   -0.181914
    65  C    0.063129
    66  C    0.032578
    67  H   -0.011663
    68  H   -0.041706
    69  H   -0.032837
    70  H    0.010339
    71  H    0.014524
    72  H    0.027894
    73  H    0.030546
    74  H    0.021279
    75  H    0.016382
    76  H    0.016380
    77  H    0.035649
    78  H    0.018718
    79  H   -0.011099
    80  H    0.032995
    81  H    0.042624
    82  H    0.049771
    83  H    0.031472
    84  H    0.045723
    85  H    0.029970
    86  H    0.018274
    87  H    0.017766
    88  H    0.025735
    89  H    0.024099
    90  H    0.007652
    91  H   -0.005494
    92  H    0.018816
    93  H    0.012265
    94  H    0.011961
    95  H    0.026203
    96  H    0.020871
    97  H    0.022648
    98  H    0.043941
    99  H    0.028619
   100  H    0.036502
   101  H    0.051542
   102  H    0.021565
   103  H    0.033317
   104  H   -0.004918
   105  H    0.018041
   106  H    0.041442
   107  H    0.024319
   108  H    0.005264
   109  H   -0.011293
   110  H   -0.006033
   111  H    0.002697
   112  H   -0.003696
   113  H   -0.002097
   114  H   -0.000444
   115  H   -0.001914
   116  H    0.009287
   117  H    0.004357
   118  H    0.013666
   119  H   -0.010717
   120  H    0.005231
   121  H    0.000898
   122  H    0.002191
   123  H   -0.022206
   124  H   -0.020841
   125  H   -0.002790
   126  H    0.000491
   127  H    0.005575
   128  H   -0.007928
   129  H   -0.018255
   130  H   -0.004620
   131  H    0.003514
   132  H   -0.005951
   133  H    0.004242
   134  H   -0.005763
   135  H    0.019667
   136  H    0.005369
   137  H    0.006242
   138  H    0.002306
   139  H    0.007390
   140  H    0.011645
 Sum of Mulliken charges =  -0.00000

 Dipole moment (field-independent basis, Debye):
    X=              0.0737    Y=              3.0291    Z=              2.2071  Tot=              3.7486
 Quadrupole moment (field-independent basis, Debye-Ang):
   XX=           -391.3072   YY=           -418.2819   ZZ=           -394.4817
   XY=             42.5805   XZ=              4.4039   YZ=             19.6496

 Normal termination of Gaussian 16 at Wed May  4 17:07:18 2022.
