 Gaussian 16, Revision A.03,
 Gaussian 16:  ES64L-G16RevA.03 25-Dec-2016

 ---------------------------------
 #p PBE1PBE/Def2SVP td=(nstates=5)
 ---------------------------------

 -----------------------------------------------------
 step_251_chromophore_17 TDDFT with PBE1PBE functional
 -----------------------------------------------------
 Symbolic Z-matrix:
 Charge =  0 Multiplicity = 1

                         Standard orientation:
 ---------------------------------------------------------------------
 Center     Atomic      Atomic             Coordinates (Angstroms)
 Number     Number       Type             X           Y           Z
 ---------------------------------------------------------------------
      1         12           0        4.106757    0.931786   -0.714324
      2          6           0        3.437482   -2.476089   -0.675570
      3          6           0        1.273832    1.389783   -2.793586
      4          6           0        4.004777    4.163928    0.126515
      5          6           0        6.438528    0.374208    1.870366
      6          7           0        2.285716   -0.416180   -1.361542
      7          6           0        2.445098   -1.780101   -1.413014
      8          6           0        1.343244   -2.432677   -2.187376
      9          6           0        0.808814   -1.213707   -3.071049
     10          6           0        1.452972    0.038025   -2.376781
     11          6           0        1.151347   -1.279673   -4.644261
     12          6           0        0.306756   -3.169333   -1.192151
     13          6           0       -0.416298   -4.272973   -1.779845
     14          6           0       -1.949692   -4.136764   -1.669132
     15          8           0       -2.741051   -3.916344   -2.577105
     16          8           0       -2.374174   -4.234530   -0.351011
     17          7           0        2.961945    2.585172   -1.371299
     18          6           0        1.836116    2.567292   -2.241477
     19          6           0        1.410152    3.943316   -2.433316
     20          6           0        2.197844    4.787923   -1.613826
     21          6           0        3.176747    3.855076   -0.960940
     22          6           0        0.213276    4.291315   -3.237365
     23          6           0        1.969162    6.349654   -1.458789
     24          8           0        1.054905    6.845520   -2.115478
     25          6           0        3.002085    7.256683   -0.798909
     26          7           0        5.019663    2.025505    0.848048
     27          6           0        4.884267    3.375756    0.866782
     28          6           0        5.670850    4.079409    2.138627
     29          6           0        6.631735    2.868172    2.564306
     30          6           0        6.063835    1.673495    1.734604
     31          6           0        6.514913    5.365507    1.797840
     32          6           0        6.599198    2.573841    4.065219
     33          6           0        7.891397    2.637244    4.914357
     34          7           0        5.000796   -0.707763    0.166819
     35          6           0        5.939261   -0.772316    1.155510
     36          6           0        6.330635   -2.142127    1.343359
     37          6           0        5.283117   -2.853270    0.645603
     38          6           0        4.488893   -1.896703   -0.009471
     39          6           0        7.367293   -2.651800    2.302434
     40          6           0        4.727888   -4.173141    0.429995
     41          8           0        5.183384   -5.247459    0.680503
     42          6           0        3.478900   -4.028827   -0.524195
     43          6           0        3.649729   -4.679400   -1.914665
     44          8           0        4.601944   -4.505428   -2.644450
     45          8           0        2.586016   -5.574385   -2.151467
     46          6           0        2.680611   -6.393189   -3.322184
     47          6           0       -3.797181   -4.333118   -0.281944
     48          6           0       -4.141358   -4.102801    1.170454
     49          6           0       -5.378608   -4.114171    1.698620
     50          6           0       -6.560268   -4.471881    0.859220
     51          6           0       -5.496003   -3.813184    3.148921
     52          6           0       -6.109930   -2.430889    3.363819
     53          6           0       -5.221857   -1.576271    4.321185
     54          6           0       -5.591628   -0.058395    4.500733
     55          6           0       -4.606827    0.413001    5.631597
     56          6           0       -5.317508    0.774762    3.190676
     57          6           0       -6.619473    1.357818    2.512594
     58          6           0       -6.987406    0.651327    1.195920
     59          6           0       -8.476430    0.429874    0.928385
     60          6           0       -9.087296   -0.938561    1.166173
     61          6           0       -9.068231    1.043809   -0.312659
     62          6           0       -9.177566    2.647051   -0.351978
     63          6           0       -8.114238    3.389652   -1.250816
     64          6           0       -8.710952    4.512759   -1.958317
     65          6           0       -9.381849    4.139868   -3.329556
     66          6           0       -7.735054    5.724149   -2.169608
     67          1           0        0.436285    1.457771   -3.489849
     68          1           0        3.855491    5.135543    0.601690
     69          1           0        7.180565    0.249618    2.661135
     70          1           0        1.719540   -3.083973   -2.976924
     71          1           0       -0.274493   -1.164534   -2.955160
     72          1           0        0.183468   -1.281984   -5.145403
     73          1           0        1.738625   -2.156816   -4.914204
     74          1           0        1.687659   -0.359274   -4.877013
     75          1           0       -0.400609   -2.379502   -0.939917
     76          1           0        0.950339   -3.367892   -0.334710
     77          1           0       -0.083294   -5.165425   -1.251354
     78          1           0       -0.202699   -4.334062   -2.846929
     79          1           0       -0.123058    3.449922   -3.842942
     80          1           0        0.467090    5.059420   -3.968336
     81          1           0       -0.621321    4.583247   -2.599497
     82          1           0        3.128555    7.074836    0.268813
     83          1           0        2.693359    8.286914   -0.979161
     84          1           0        3.944664    7.108488   -1.325990
     85          1           0        4.878697    4.214473    2.874562
     86          1           0        7.655885    2.943699    2.198262
     87          1           0        6.066350    6.236275    2.275134
     88          1           0        6.521205    5.519760    0.718162
     89          1           0        7.520117    5.188060    2.181680
     90          1           0        6.096271    1.630954    4.278794
     91          1           0        5.903285    3.189461    4.634919
     92          1           0        8.288318    1.697215    5.298597
     93          1           0        7.615834    3.213465    5.797939
     94          1           0        8.703571    3.113443    4.363760
     95          1           0        7.630115   -3.659477    1.979595
     96          1           0        6.986333   -2.953226    3.277689
     97          1           0        8.214475   -1.985619    2.463342
     98          1           0        2.699817   -4.567927    0.015515
     99          1           0        1.622231   -6.564026   -3.521686
    100          1           0        3.070490   -7.385613   -3.096613
    101          1           0        3.275287   -5.903988   -4.092600
    102          1           0       -4.168575   -5.277298   -0.680446
    103          1           0       -4.282380   -3.500660   -0.793216
    104          1           0       -3.307338   -3.726855    1.764251
    105          1           0       -7.466772   -4.184076    1.390719
    106          1           0       -6.519955   -5.529236    0.597536
    107          1           0       -6.420794   -3.799267    0.012387
    108          1           0       -4.541091   -4.000330    3.640137
    109          1           0       -6.197972   -4.613717    3.380634
    110          1           0       -7.073300   -2.534920    3.864096
    111          1           0       -6.234491   -1.857845    2.445883
    112          1           0       -4.188962   -1.639873    3.976973
    113          1           0       -5.240219   -2.055751    5.300052
    114          1           0       -6.612219   -0.015673    4.881463
    115          1           0       -5.169171    1.028089    6.335269
    116          1           0       -3.787243    1.071516    5.344310
    117          1           0       -4.157911   -0.391061    6.213171
    118          1           0       -4.668068    0.348785    2.424164
    119          1           0       -4.869510    1.688837    3.580961
    120          1           0       -6.444176    2.422275    2.357959
    121          1           0       -7.461002    1.186318    3.184895
    122          1           0       -6.413870   -0.243554    0.951326
    123          1           0       -6.748986    1.375354    0.416728
    124          1           0       -8.921761    1.030523    1.722747
    125          1           0       -8.328870   -1.682180    0.919435
    126          1           0       -9.978457   -1.136745    0.569604
    127          1           0       -9.401486   -1.028299    2.206017
    128          1           0       -9.960424    0.533595   -0.676107
    129          1           0       -8.287122    0.788984   -1.029066
    130          1           0       -9.000439    2.972145    0.673248
    131          1           0      -10.216578    2.899780   -0.562567
    132          1           0       -7.882322    2.644089   -2.011174
    133          1           0       -7.257448    3.664222   -0.635330
    134          1           0       -9.465952    4.946460   -1.302761
    135          1           0       -9.100641    4.845870   -4.111262
    136          1           0      -10.446908    4.200389   -3.106559
    137          1           0       -9.184686    3.081463   -3.499253
    138          1           0       -7.089978    5.813503   -1.295313
    139          1           0       -8.350879    6.621239   -2.242976
    140          1           0       -7.177213    5.587098   -3.095655
 ---------------------------------------------------------------------

 SCF Done:  E(RPBE1PBE) =  -3005.32323175     A.U. after   15 cycles

 Excitation energies and oscillator strengths:

 Excited State   1:      Singlet-A      1.8353 eV  675.55 nm  f=0.3678  <S**2>=0.000
     245 -> 248        0.16958
     246 -> 247        0.69516
     246 <- 247       -0.11027
 This state for optimization and/or second-order correction.
 Total Energy, E(TD-HF/TD-DFT) =  -3005.25578576
 Copying the excited state density for this state as the 1-particle RhoCI density.

 Excited State   2:      Singlet-A      2.2476 eV  551.62 nm  f=0.1025  <S**2>=0.000
     245 -> 247        0.64701
     246 -> 248       -0.27107

 Excited State   3:      Singlet-A      2.8899 eV  429.03 nm  f=0.0001  <S**2>=0.000
     242 -> 247        0.51773
     242 -> 249        0.10271
     243 -> 247        0.44631

 Excited State   4:      Singlet-A      2.9924 eV  414.33 nm  f=0.0030  <S**2>=0.000
     241 -> 247       -0.16671
     242 -> 247       -0.41986
     243 -> 247        0.51513
     244 -> 247       -0.12990

 Excited State   5:      Singlet-A      3.0090 eV  412.05 nm  f=0.0005  <S**2>=0.000
     244 -> 247        0.69468

 The electronic state is 1-A.
 Alpha  occ. eigenvalues --  -46.93246 -19.25989 -19.25530 -19.21091 -19.20605
 Alpha  occ. eigenvalues --  -19.19772 -19.18701 -14.41782 -14.41707 -14.39796
 Alpha  occ. eigenvalues --  -14.38894 -10.37272 -10.36546 -10.33433 -10.31383
 Alpha  occ. eigenvalues --  -10.29458 -10.29246 -10.28816 -10.28605 -10.28548
 Alpha  occ. eigenvalues --  -10.28465 -10.28464 -10.28290 -10.27710 -10.27147
 Alpha  occ. eigenvalues --  -10.26600 -10.26357 -10.26293 -10.26120 -10.26038
 Alpha  occ. eigenvalues --  -10.25914 -10.25764 -10.25733 -10.25637 -10.25388
 Alpha  occ. eigenvalues --  -10.24699 -10.24666 -10.24340 -10.24263 -10.24261
 Alpha  occ. eigenvalues --  -10.24179 -10.24176 -10.24083 -10.24049 -10.23380
 Alpha  occ. eigenvalues --  -10.23379 -10.23034 -10.22993 -10.22693 -10.22677
 Alpha  occ. eigenvalues --  -10.22659 -10.22542 -10.22505 -10.22423 -10.22375
 Alpha  occ. eigenvalues --  -10.22318 -10.22316 -10.22004 -10.21969 -10.21774
 Alpha  occ. eigenvalues --  -10.21772 -10.21711 -10.21671 -10.21483 -10.21436
 Alpha  occ. eigenvalues --  -10.21421  -3.15246  -1.88033  -1.87675  -1.87434
 Alpha  occ. eigenvalues --   -1.11623  -1.11004  -1.05789  -1.04896  -1.03730
 Alpha  occ. eigenvalues --   -1.02838  -0.99875  -0.97462  -0.97020  -0.96236
 Alpha  occ. eigenvalues --   -0.86785  -0.84946  -0.84205  -0.84037  -0.83572
 Alpha  occ. eigenvalues --   -0.82682  -0.82528  -0.81673  -0.81261  -0.80856
 Alpha  occ. eigenvalues --   -0.80128  -0.79520  -0.78082  -0.77732  -0.77503
 Alpha  occ. eigenvalues --   -0.76520  -0.76228  -0.75661  -0.74987  -0.74450
 Alpha  occ. eigenvalues --   -0.73975  -0.72305  -0.71906  -0.71384  -0.70584
 Alpha  occ. eigenvalues --   -0.69906  -0.69476  -0.69069  -0.69065  -0.68395
 Alpha  occ. eigenvalues --   -0.67283  -0.66516  -0.65802  -0.64310  -0.63649
 Alpha  occ. eigenvalues --   -0.62856  -0.62311  -0.61257  -0.60928  -0.60378
 Alpha  occ. eigenvalues --   -0.59821  -0.59423  -0.59075  -0.58783  -0.58353
 Alpha  occ. eigenvalues --   -0.57540  -0.57504  -0.56858  -0.56183  -0.54298
 Alpha  occ. eigenvalues --   -0.54188  -0.53849  -0.53499  -0.53243  -0.52735
 Alpha  occ. eigenvalues --   -0.52118  -0.51168  -0.50876  -0.50447  -0.49997
 Alpha  occ. eigenvalues --   -0.49616  -0.49356  -0.49015  -0.48660  -0.48617
 Alpha  occ. eigenvalues --   -0.48045  -0.47792  -0.47596  -0.47398  -0.47133
 Alpha  occ. eigenvalues --   -0.46957  -0.46808  -0.46667  -0.46381  -0.46158
 Alpha  occ. eigenvalues --   -0.45855  -0.45723  -0.45699  -0.45552  -0.45398
 Alpha  occ. eigenvalues --   -0.44833  -0.44808  -0.44550  -0.44418  -0.44313
 Alpha  occ. eigenvalues --   -0.44085  -0.43928  -0.43836  -0.43532  -0.43446
 Alpha  occ. eigenvalues --   -0.43358  -0.43227  -0.42834  -0.42712  -0.42567
 Alpha  occ. eigenvalues --   -0.42409  -0.42157  -0.41741  -0.41608  -0.41416
 Alpha  occ. eigenvalues --   -0.41159  -0.40967  -0.40718  -0.40466  -0.40443
 Alpha  occ. eigenvalues --   -0.40307  -0.39965  -0.39841  -0.39650  -0.39518
 Alpha  occ. eigenvalues --   -0.39454  -0.39216  -0.38984  -0.38870  -0.38642
 Alpha  occ. eigenvalues --   -0.38490  -0.38426  -0.38416  -0.38155  -0.38089
 Alpha  occ. eigenvalues --   -0.37932  -0.37859  -0.37607  -0.37447  -0.37250
 Alpha  occ. eigenvalues --   -0.37185  -0.36797  -0.36371  -0.36298  -0.36066
 Alpha  occ. eigenvalues --   -0.35799  -0.35672  -0.35410  -0.35105  -0.34997
 Alpha  occ. eigenvalues --   -0.34830  -0.34532  -0.33802  -0.33649  -0.33572
 Alpha  occ. eigenvalues --   -0.33395  -0.32823  -0.32418  -0.32065  -0.31992
 Alpha  occ. eigenvalues --   -0.31914  -0.31579  -0.31441  -0.31205  -0.31056
 Alpha  occ. eigenvalues --   -0.30642  -0.30331  -0.29906  -0.29617  -0.29601
 Alpha  occ. eigenvalues --   -0.29016  -0.28984  -0.28914  -0.26986  -0.26227
 Alpha  occ. eigenvalues --   -0.25640  -0.25169  -0.25035  -0.23670  -0.21262
 Alpha  occ. eigenvalues --   -0.18875
 Alpha virt. eigenvalues --   -0.11329  -0.05236  -0.03830  -0.02373  -0.01495
 Alpha virt. eigenvalues --   -0.00251  -0.00003   0.00742   0.02644   0.02897
 Alpha virt. eigenvalues --    0.04125   0.04572   0.05297   0.05415   0.05728

 Mulliken charges:
               1
     1  Mg   0.967017
     2  C   -0.074002
     3  C   -0.060984
     4  C   -0.079590
     5  C   -0.073983
     6  N   -0.357892
     7  C    0.000988
     8  C   -0.118745
     9  C   -0.155854
    10  C    0.047051
    11  C    0.001944
    12  C    0.018270
    13  C    0.089388
    14  C    0.180228
    15  O   -0.262584
    16  O   -0.364610
    17  N   -0.494430
    18  C    0.177619
    19  C   -0.175690
    20  C   -0.103018
    21  C    0.203328
    22  C    0.085021
    23  C    0.079575
    24  O   -0.238923
    25  C   -0.040080
    26  N   -0.430743
    27  C    0.082647
    28  C   -0.146056
    29  C   -0.051180
    30  C    0.044760
    31  C    0.011079
    32  C   -0.039914
    33  C   -0.070892
    34  N   -0.457299
    35  C    0.145890
    36  C   -0.156663
    37  C   -0.095201
    38  C    0.238875
    39  C    0.055776
    40  C    0.131480
    41  O   -0.188799
    42  C   -0.121173
    43  C    0.298081
    44  O   -0.225271
    45  O   -0.390188
    46  C    0.116257
    47  C    0.242636
    48  C   -0.162749
    49  C   -0.310998
    50  C    0.044650
    51  C    0.075325
    52  C   -0.015920
    53  C   -0.092752
    54  C   -0.174393
    55  C   -0.021336
    56  C    0.002593
    57  C   -0.046662
    58  C    0.000105
    59  C   -0.234654
    60  C    0.007959
    61  C   -0.028945
    62  C   -0.067677
    63  C    0.013837
    64  C   -0.270965
    65  C    0.001975
    66  C   -0.030524
    67  H    0.018831
    68  H   -0.004080
    69  H    0.001315
    70  H    0.051502
    71  H    0.051138
    72  H    0.054531
    73  H    0.055706
    74  H    0.049596
    75  H    0.050798
    76  H    0.051187
    77  H    0.068063
    78  H    0.051534
    79  H    0.016686
    80  H    0.059922
    81  H    0.069003
    82  H    0.073095
    83  H    0.058520
    84  H    0.072666
    85  H    0.065053
    86  H    0.054493
    87  H    0.045201
    88  H    0.053327
    89  H    0.051280
    90  H    0.039692
    91  H    0.027275
    92  H    0.045475
    93  H    0.040041
    94  H    0.039579
    95  H    0.055447
    96  H    0.050337
    97  H    0.049379
    98  H    0.077960
    99  H    0.050522
   100  H    0.058870
   101  H    0.071686
   102  H    0.048775
   103  H    0.060972
   104  H    0.025509
   105  H    0.045868
   106  H    0.068939
   107  H    0.051605
   108  H    0.035198
   109  H    0.024724
   110  H    0.026946
   111  H    0.047896
   112  H    0.029603
   113  H    0.031365
   114  H    0.034980
   115  H    0.026790
   116  H    0.035820
   117  H    0.031019
   118  H    0.044396
   119  H    0.024460
   120  H    0.036655
   121  H    0.032978
   122  H    0.030779
   123  H    0.018490
   124  H    0.020723
   125  H    0.028783
   126  H    0.027318
   127  H    0.032727
   128  H    0.022880
   129  H    0.017347
   130  H    0.029287
   131  H    0.034951
   132  H    0.027414
   133  H    0.034577
   134  H    0.033177
   135  H    0.046028
   136  H    0.033071
   137  H    0.033442
   138  H    0.030432
   139  H    0.035870
   140  H    0.039562
 Sum of Mulliken charges =  -0.00000

 Dipole moment (field-independent basis, Debye):
    X=              0.3591    Y=              2.6941    Z=              2.5177  Tot=              3.7048
 Quadrupole moment (field-independent basis, Debye-Ang):
   XX=           -384.9293   YY=           -416.2559   ZZ=           -390.9271
   XY=             41.6208   XZ=              6.5837   YZ=             20.5113

 Normal termination of Gaussian 16 at Wed May  4 17:36:38 2022.
