 Gaussian 16, Revision A.03,
 Gaussian 16:  ES64L-G16RevA.03 25-Dec-2016

 --------------------------------
 #p wB97XD/Def2SVP td=(nstates=5)
 --------------------------------

 ----------------------------------------------------
 step_251_chromophore_17 TDDFT with wB97XD functional
 ----------------------------------------------------
 Symbolic Z-matrix:
 Charge =  0 Multiplicity = 1

                         Standard orientation:
 ---------------------------------------------------------------------
 Center     Atomic      Atomic             Coordinates (Angstroms)
 Number     Number       Type             X           Y           Z
 ---------------------------------------------------------------------
      1         12           0        4.106757    0.931786   -0.714324
      2          6           0        3.437482   -2.476089   -0.675570
      3          6           0        1.273832    1.389783   -2.793586
      4          6           0        4.004777    4.163928    0.126515
      5          6           0        6.438528    0.374208    1.870366
      6          7           0        2.285716   -0.416180   -1.361542
      7          6           0        2.445098   -1.780101   -1.413014
      8          6           0        1.343244   -2.432677   -2.187376
      9          6           0        0.808814   -1.213707   -3.071049
     10          6           0        1.452972    0.038025   -2.376781
     11          6           0        1.151347   -1.279673   -4.644261
     12          6           0        0.306756   -3.169333   -1.192151
     13          6           0       -0.416298   -4.272973   -1.779845
     14          6           0       -1.949692   -4.136764   -1.669132
     15          8           0       -2.741051   -3.916344   -2.577105
     16          8           0       -2.374174   -4.234530   -0.351011
     17          7           0        2.961945    2.585172   -1.371299
     18          6           0        1.836116    2.567292   -2.241477
     19          6           0        1.410152    3.943316   -2.433316
     20          6           0        2.197844    4.787923   -1.613826
     21          6           0        3.176747    3.855076   -0.960940
     22          6           0        0.213276    4.291315   -3.237365
     23          6           0        1.969162    6.349654   -1.458789
     24          8           0        1.054905    6.845520   -2.115478
     25          6           0        3.002085    7.256683   -0.798909
     26          7           0        5.019663    2.025505    0.848048
     27          6           0        4.884267    3.375756    0.866782
     28          6           0        5.670850    4.079409    2.138627
     29          6           0        6.631735    2.868172    2.564306
     30          6           0        6.063835    1.673495    1.734604
     31          6           0        6.514913    5.365507    1.797840
     32          6           0        6.599198    2.573841    4.065219
     33          6           0        7.891397    2.637244    4.914357
     34          7           0        5.000796   -0.707763    0.166819
     35          6           0        5.939261   -0.772316    1.155510
     36          6           0        6.330635   -2.142127    1.343359
     37          6           0        5.283117   -2.853270    0.645603
     38          6           0        4.488893   -1.896703   -0.009471
     39          6           0        7.367293   -2.651800    2.302434
     40          6           0        4.727888   -4.173141    0.429995
     41          8           0        5.183384   -5.247459    0.680503
     42          6           0        3.478900   -4.028827   -0.524195
     43          6           0        3.649729   -4.679400   -1.914665
     44          8           0        4.601944   -4.505428   -2.644450
     45          8           0        2.586016   -5.574385   -2.151467
     46          6           0        2.680611   -6.393189   -3.322184
     47          6           0       -3.797181   -4.333118   -0.281944
     48          6           0       -4.141358   -4.102801    1.170454
     49          6           0       -5.378608   -4.114171    1.698620
     50          6           0       -6.560268   -4.471881    0.859220
     51          6           0       -5.496003   -3.813184    3.148921
     52          6           0       -6.109930   -2.430889    3.363819
     53          6           0       -5.221857   -1.576271    4.321185
     54          6           0       -5.591628   -0.058395    4.500733
     55          6           0       -4.606827    0.413001    5.631597
     56          6           0       -5.317508    0.774762    3.190676
     57          6           0       -6.619473    1.357818    2.512594
     58          6           0       -6.987406    0.651327    1.195920
     59          6           0       -8.476430    0.429874    0.928385
     60          6           0       -9.087296   -0.938561    1.166173
     61          6           0       -9.068231    1.043809   -0.312659
     62          6           0       -9.177566    2.647051   -0.351978
     63          6           0       -8.114238    3.389652   -1.250816
     64          6           0       -8.710952    4.512759   -1.958317
     65          6           0       -9.381849    4.139868   -3.329556
     66          6           0       -7.735054    5.724149   -2.169608
     67          1           0        0.436285    1.457771   -3.489849
     68          1           0        3.855491    5.135543    0.601690
     69          1           0        7.180565    0.249618    2.661135
     70          1           0        1.719540   -3.083973   -2.976924
     71          1           0       -0.274493   -1.164534   -2.955160
     72          1           0        0.183468   -1.281984   -5.145403
     73          1           0        1.738625   -2.156816   -4.914204
     74          1           0        1.687659   -0.359274   -4.877013
     75          1           0       -0.400609   -2.379502   -0.939917
     76          1           0        0.950339   -3.367892   -0.334710
     77          1           0       -0.083294   -5.165425   -1.251354
     78          1           0       -0.202699   -4.334062   -2.846929
     79          1           0       -0.123058    3.449922   -3.842942
     80          1           0        0.467090    5.059420   -3.968336
     81          1           0       -0.621321    4.583247   -2.599497
     82          1           0        3.128555    7.074836    0.268813
     83          1           0        2.693359    8.286914   -0.979161
     84          1           0        3.944664    7.108488   -1.325990
     85          1           0        4.878697    4.214473    2.874562
     86          1           0        7.655885    2.943699    2.198262
     87          1           0        6.066350    6.236275    2.275134
     88          1           0        6.521205    5.519760    0.718162
     89          1           0        7.520117    5.188060    2.181680
     90          1           0        6.096271    1.630954    4.278794
     91          1           0        5.903285    3.189461    4.634919
     92          1           0        8.288318    1.697215    5.298597
     93          1           0        7.615834    3.213465    5.797939
     94          1           0        8.703571    3.113443    4.363760
     95          1           0        7.630115   -3.659477    1.979595
     96          1           0        6.986333   -2.953226    3.277689
     97          1           0        8.214475   -1.985619    2.463342
     98          1           0        2.699817   -4.567927    0.015515
     99          1           0        1.622231   -6.564026   -3.521686
    100          1           0        3.070490   -7.385613   -3.096613
    101          1           0        3.275287   -5.903988   -4.092600
    102          1           0       -4.168575   -5.277298   -0.680446
    103          1           0       -4.282380   -3.500660   -0.793216
    104          1           0       -3.307338   -3.726855    1.764251
    105          1           0       -7.466772   -4.184076    1.390719
    106          1           0       -6.519955   -5.529236    0.597536
    107          1           0       -6.420794   -3.799267    0.012387
    108          1           0       -4.541091   -4.000330    3.640137
    109          1           0       -6.197972   -4.613717    3.380634
    110          1           0       -7.073300   -2.534920    3.864096
    111          1           0       -6.234491   -1.857845    2.445883
    112          1           0       -4.188962   -1.639873    3.976973
    113          1           0       -5.240219   -2.055751    5.300052
    114          1           0       -6.612219   -0.015673    4.881463
    115          1           0       -5.169171    1.028089    6.335269
    116          1           0       -3.787243    1.071516    5.344310
    117          1           0       -4.157911   -0.391061    6.213171
    118          1           0       -4.668068    0.348785    2.424164
    119          1           0       -4.869510    1.688837    3.580961
    120          1           0       -6.444176    2.422275    2.357959
    121          1           0       -7.461002    1.186318    3.184895
    122          1           0       -6.413870   -0.243554    0.951326
    123          1           0       -6.748986    1.375354    0.416728
    124          1           0       -8.921761    1.030523    1.722747
    125          1           0       -8.328870   -1.682180    0.919435
    126          1           0       -9.978457   -1.136745    0.569604
    127          1           0       -9.401486   -1.028299    2.206017
    128          1           0       -9.960424    0.533595   -0.676107
    129          1           0       -8.287122    0.788984   -1.029066
    130          1           0       -9.000439    2.972145    0.673248
    131          1           0      -10.216578    2.899780   -0.562567
    132          1           0       -7.882322    2.644089   -2.011174
    133          1           0       -7.257448    3.664222   -0.635330
    134          1           0       -9.465952    4.946460   -1.302761
    135          1           0       -9.100641    4.845870   -4.111262
    136          1           0      -10.446908    4.200389   -3.106559
    137          1           0       -9.184686    3.081463   -3.499253
    138          1           0       -7.089978    5.813503   -1.295313
    139          1           0       -8.350879    6.621239   -2.242976
    140          1           0       -7.177213    5.587098   -3.095655
 ---------------------------------------------------------------------

 SCF Done:  E(RwB97XD) =  -3007.83564823     A.U. after   18 cycles

 Excitation energies and oscillator strengths:

 Excited State   1:      Singlet-A      1.6402 eV  755.92 nm  f=0.3748  <S**2>=0.000
     245 -> 248        0.17861
     246 -> 247        0.68600
     245 <- 248        0.11627
 This state for optimization and/or second-order correction.
 Total Energy, E(TD-HF/TD-DFT) =  -3007.77537287
 Copying the excited state density for this state as the 1-particle RhoCI density.

 Excited State   2:      Singlet-A      2.1966 eV  564.42 nm  f=0.1037  <S**2>=0.000
     245 -> 247        0.63436
     246 -> 248       -0.29388

 Excited State   3:      Singlet-A      3.3882 eV  365.93 nm  f=0.0267  <S**2>=0.000
     241 -> 247        0.58763
     242 -> 247       -0.14976
     243 -> 247       -0.27315
     246 -> 248       -0.18866

 Excited State   4:      Singlet-A      3.4198 eV  362.55 nm  f=0.0251  <S**2>=0.000
     240 -> 247        0.12748
     241 -> 247        0.12275
     242 -> 247       -0.21311
     243 -> 247        0.57076
     246 -> 248       -0.24633

 Excited State   5:      Singlet-A      3.5310 eV  351.13 nm  f=0.0009  <S**2>=0.000
     241 -> 247        0.22247
     242 -> 247        0.51553
     242 -> 249       -0.25712
     242 -> 250        0.23537
     243 -> 247        0.18048

 The electronic state is 1-A.
 Alpha  occ. eigenvalues --  -46.96203 -19.30517 -19.30072 -19.25776 -19.25238
 Alpha  occ. eigenvalues --  -19.24801 -19.23307 -14.46996 -14.46668 -14.44885
 Alpha  occ. eigenvalues --  -14.43677 -10.44065 -10.43279 -10.40454 -10.38046
 Alpha  occ. eigenvalues --  -10.35977 -10.35771 -10.35368 -10.35290 -10.35185
 Alpha  occ. eigenvalues --  -10.34754 -10.34606 -10.34493 -10.33634 -10.33401
 Alpha  occ. eigenvalues --  -10.32766 -10.32736 -10.32675 -10.32593 -10.32435
 Alpha  occ. eigenvalues --  -10.32296 -10.32074 -10.32049 -10.31963 -10.31741
 Alpha  occ. eigenvalues --  -10.31097 -10.30998 -10.30984 -10.30782 -10.30549
 Alpha  occ. eigenvalues --  -10.30502 -10.30406 -10.30396 -10.30363 -10.29699
 Alpha  occ. eigenvalues --  -10.29558 -10.29499 -10.29420 -10.29323 -10.29020
 Alpha  occ. eigenvalues --  -10.28922 -10.28879 -10.28834 -10.28762 -10.28694
 Alpha  occ. eigenvalues --  -10.28679 -10.28618 -10.28399 -10.28258 -10.28210
 Alpha  occ. eigenvalues --  -10.28135 -10.28109 -10.28082 -10.27890 -10.27871
 Alpha  occ. eigenvalues --  -10.27852  -3.22087  -1.95618  -1.95261  -1.95018
 Alpha  occ. eigenvalues --   -1.18964  -1.18371  -1.13052  -1.12591  -1.11058
 Alpha  occ. eigenvalues --   -1.10152  -1.06945  -1.05032  -1.04463  -1.03692
 Alpha  occ. eigenvalues --   -0.94284  -0.92607  -0.91849  -0.91689  -0.91148
 Alpha  occ. eigenvalues --   -0.90356  -0.90225  -0.89341  -0.88873  -0.88428
 Alpha  occ. eigenvalues --   -0.87829  -0.87154  -0.85758  -0.85301  -0.85206
 Alpha  occ. eigenvalues --   -0.84231  -0.83936  -0.83327  -0.82627  -0.82112
 Alpha  occ. eigenvalues --   -0.81621  -0.79819  -0.79484  -0.79221  -0.78147
 Alpha  occ. eigenvalues --   -0.77581  -0.77074  -0.76796  -0.76755  -0.76075
 Alpha  occ. eigenvalues --   -0.74788  -0.74131  -0.73349  -0.71944  -0.71156
 Alpha  occ. eigenvalues --   -0.70274  -0.69954  -0.68896  -0.68553  -0.67900
 Alpha  occ. eigenvalues --   -0.67491  -0.66912  -0.66665  -0.66172  -0.65836
 Alpha  occ. eigenvalues --   -0.65201  -0.64909  -0.64542  -0.63832  -0.61753
 Alpha  occ. eigenvalues --   -0.61595  -0.61288  -0.60980  -0.60691  -0.60095
 Alpha  occ. eigenvalues --   -0.59531  -0.58613  -0.58362  -0.57923  -0.57312
 Alpha  occ. eigenvalues --   -0.56979  -0.56776  -0.56405  -0.56122  -0.55954
 Alpha  occ. eigenvalues --   -0.55396  -0.55247  -0.54989  -0.54716  -0.54559
 Alpha  occ. eigenvalues --   -0.54358  -0.54231  -0.54117  -0.53769  -0.53599
 Alpha  occ. eigenvalues --   -0.53214  -0.53067  -0.53008  -0.52823  -0.52777
 Alpha  occ. eigenvalues --   -0.52212  -0.52166  -0.52056  -0.51809  -0.51633
 Alpha  occ. eigenvalues --   -0.51494  -0.51133  -0.51095  -0.50802  -0.50737
 Alpha  occ. eigenvalues --   -0.50639  -0.50545  -0.50075  -0.49970  -0.49809
 Alpha  occ. eigenvalues --   -0.49671  -0.49334  -0.49064  -0.48961  -0.48638
 Alpha  occ. eigenvalues --   -0.48316  -0.48217  -0.47953  -0.47695  -0.47639
 Alpha  occ. eigenvalues --   -0.47554  -0.47224  -0.46990  -0.46820  -0.46769
 Alpha  occ. eigenvalues --   -0.46572  -0.46421  -0.46204  -0.45980  -0.45811
 Alpha  occ. eigenvalues --   -0.45635  -0.45613  -0.45452  -0.45328  -0.45280
 Alpha  occ. eigenvalues --   -0.45089  -0.45001  -0.44733  -0.44525  -0.44486
 Alpha  occ. eigenvalues --   -0.44338  -0.43825  -0.43445  -0.43375  -0.43070
 Alpha  occ. eigenvalues --   -0.42820  -0.42756  -0.42525  -0.42139  -0.42079
 Alpha  occ. eigenvalues --   -0.41755  -0.41620  -0.40870  -0.40669  -0.40603
 Alpha  occ. eigenvalues --   -0.40364  -0.39793  -0.39409  -0.39074  -0.39012
 Alpha  occ. eigenvalues --   -0.38955  -0.38617  -0.38480  -0.38252  -0.37957
 Alpha  occ. eigenvalues --   -0.37608  -0.37238  -0.36931  -0.36500  -0.36402
 Alpha  occ. eigenvalues --   -0.36030  -0.35998  -0.35589  -0.33632  -0.33527
 Alpha  occ. eigenvalues --   -0.32482  -0.32007  -0.31338  -0.30417  -0.26312
 Alpha  occ. eigenvalues --   -0.23056
 Alpha virt. eigenvalues --   -0.07164   0.00183   0.02465   0.04211   0.04459
 Alpha virt. eigenvalues --    0.06607   0.06839   0.07564   0.09291   0.09621
 Alpha virt. eigenvalues --    0.10858   0.11211   0.11872   0.12009   0.12387

 Mulliken charges:
               1
     1  Mg   0.961634
     2  C   -0.078680
     3  C   -0.075368
     4  C   -0.094222
     5  C   -0.090825
     6  N   -0.325551
     7  C   -0.034548
     8  C   -0.088327
     9  C   -0.134814
    10  C    0.034077
    11  C    0.014785
    12  C    0.032031
    13  C    0.104817
    14  C    0.173257
    15  O   -0.260924
    16  O   -0.364076
    17  N   -0.466937
    18  C    0.174958
    19  C   -0.161574
    20  C   -0.102688
    21  C    0.204380
    22  C    0.095278
    23  C    0.076065
    24  O   -0.233961
    25  C   -0.028177
    26  N   -0.403962
    27  C    0.073969
    28  C   -0.124003
    29  C   -0.024114
    30  C    0.034566
    31  C    0.024315
    32  C   -0.029773
    33  C   -0.054232
    34  N   -0.416184
    35  C    0.139362
    36  C   -0.160940
    37  C   -0.085339
    38  C    0.221117
    39  C    0.066579
    40  C    0.109435
    41  O   -0.181542
    42  C   -0.081746
    43  C    0.276335
    44  O   -0.219981
    45  O   -0.388333
    46  C    0.130410
    47  C    0.256589
    48  C   -0.176023
    49  C   -0.289743
    50  C    0.059426
    51  C    0.091206
    52  C    0.017753
    53  C   -0.072959
    54  C   -0.148811
    55  C   -0.009694
    56  C    0.015969
    57  C   -0.026175
    58  C    0.015934
    59  C   -0.202444
    60  C    0.025680
    61  C   -0.006232
    62  C   -0.055351
    63  C    0.035097
    64  C   -0.243163
    65  C    0.013589
    66  C   -0.015965
    67  H    0.013681
    68  H   -0.019578
    69  H   -0.007214
    70  H    0.029738
    71  H    0.041818
    72  H    0.049838
    73  H    0.052120
    74  H    0.041614
    75  H    0.041404
    76  H    0.040121
    77  H    0.063235
    78  H    0.044413
    79  H    0.011892
    80  H    0.057039
    81  H    0.066768
    82  H    0.070999
    83  H    0.057820
    84  H    0.067862
    85  H    0.055955
    86  H    0.043691
    87  H    0.039986
    88  H    0.046221
    89  H    0.045363
    90  H    0.031559
    91  H    0.018882
    92  H    0.040113
    93  H    0.034081
    94  H    0.032319
    95  H    0.049879
    96  H    0.043607
    97  H    0.043603
    98  H    0.072051
    99  H    0.046204
   100  H    0.054899
   101  H    0.068150
   102  H    0.043565
   103  H    0.053201
   104  H    0.021916
   105  H    0.039758
   106  H    0.064828
   107  H    0.043837
   108  H    0.028943
   109  H    0.015883
   110  H    0.019245
   111  H    0.014309
   112  H    0.017470
   113  H    0.021283
   114  H    0.025266
   115  H    0.021036
   116  H    0.029802
   117  H    0.025055
   118  H    0.037030
   119  H    0.014649
   120  H    0.030200
   121  H    0.020522
   122  H    0.023673
   123  H    0.002750
   124  H    0.002504
   125  H    0.015757
   126  H    0.021999
   127  H    0.026960
   128  H    0.016442
   129  H    0.002896
   130  H    0.018456
   131  H    0.027546
   132  H    0.013193
   133  H    0.026733
   134  H    0.020354
   135  H    0.041184
   136  H    0.027103
   137  H    0.026699
   138  H    0.024040
   139  H    0.030029
   140  H    0.032519
 Sum of Mulliken charges =  -0.00000

 Dipole moment (field-independent basis, Debye):
    X=             -0.0003    Y=              3.2201    Z=              2.1631  Tot=              3.8791
 Quadrupole moment (field-independent basis, Debye-Ang):
   XX=           -387.8780   YY=           -413.6695   ZZ=           -390.4476
   XY=             43.3549   XZ=              5.0133   YZ=             19.6969

 Normal termination of Gaussian 16 at Wed May  4 18:20:46 2022.
