 Gaussian 16, Revision A.03,
 Gaussian 16:  ES64L-G16RevA.03 25-Dec-2016

 --------------------
 #p ZINDO=(nstates=5)
 --------------------

 -----------------------------
 step_251_chromophore_17 ZINDO
 -----------------------------
 Symbolic Z-matrix:
 Charge =  0 Multiplicity = 1

                         Standard orientation:
 ---------------------------------------------------------------------
 Center     Atomic      Atomic             Coordinates (Angstroms)
 Number     Number       Type             X           Y           Z
 ---------------------------------------------------------------------
      1         12           0        4.106757    0.931786   -0.714324
      2          6           0        3.437482   -2.476089   -0.675570
      3          6           0        1.273832    1.389783   -2.793586
      4          6           0        4.004777    4.163928    0.126515
      5          6           0        6.438528    0.374208    1.870366
      6          7           0        2.285716   -0.416180   -1.361542
      7          6           0        2.445098   -1.780101   -1.413014
      8          6           0        1.343244   -2.432677   -2.187376
      9          6           0        0.808814   -1.213707   -3.071049
     10          6           0        1.452972    0.038025   -2.376781
     11          6           0        1.151347   -1.279673   -4.644261
     12          6           0        0.306756   -3.169333   -1.192151
     13          6           0       -0.416298   -4.272973   -1.779845
     14          6           0       -1.949692   -4.136764   -1.669132
     15          8           0       -2.741051   -3.916344   -2.577105
     16          8           0       -2.374174   -4.234530   -0.351011
     17          7           0        2.961945    2.585172   -1.371299
     18          6           0        1.836116    2.567292   -2.241477
     19          6           0        1.410152    3.943316   -2.433316
     20          6           0        2.197844    4.787923   -1.613826
     21          6           0        3.176747    3.855076   -0.960940
     22          6           0        0.213276    4.291315   -3.237365
     23          6           0        1.969162    6.349654   -1.458789
     24          8           0        1.054905    6.845520   -2.115478
     25          6           0        3.002085    7.256683   -0.798909
     26          7           0        5.019663    2.025505    0.848048
     27          6           0        4.884267    3.375756    0.866782
     28          6           0        5.670850    4.079409    2.138627
     29          6           0        6.631735    2.868172    2.564306
     30          6           0        6.063835    1.673495    1.734604
     31          6           0        6.514913    5.365507    1.797840
     32          6           0        6.599198    2.573841    4.065219
     33          6           0        7.891397    2.637244    4.914357
     34          7           0        5.000796   -0.707763    0.166819
     35          6           0        5.939261   -0.772316    1.155510
     36          6           0        6.330635   -2.142127    1.343359
     37          6           0        5.283117   -2.853270    0.645603
     38          6           0        4.488893   -1.896703   -0.009471
     39          6           0        7.367293   -2.651800    2.302434
     40          6           0        4.727888   -4.173141    0.429995
     41          8           0        5.183384   -5.247459    0.680503
     42          6           0        3.478900   -4.028827   -0.524195
     43          6           0        3.649729   -4.679400   -1.914665
     44          8           0        4.601944   -4.505428   -2.644450
     45          8           0        2.586016   -5.574385   -2.151467
     46          6           0        2.680611   -6.393189   -3.322184
     47          6           0       -3.797181   -4.333118   -0.281944
     48          6           0       -4.141358   -4.102801    1.170454
     49          6           0       -5.378608   -4.114171    1.698620
     50          6           0       -6.560268   -4.471881    0.859220
     51          6           0       -5.496003   -3.813184    3.148921
     52          6           0       -6.109930   -2.430889    3.363819
     53          6           0       -5.221857   -1.576271    4.321185
     54          6           0       -5.591628   -0.058395    4.500733
     55          6           0       -4.606827    0.413001    5.631597
     56          6           0       -5.317508    0.774762    3.190676
     57          6           0       -6.619473    1.357818    2.512594
     58          6           0       -6.987406    0.651327    1.195920
     59          6           0       -8.476430    0.429874    0.928385
     60          6           0       -9.087296   -0.938561    1.166173
     61          6           0       -9.068231    1.043809   -0.312659
     62          6           0       -9.177566    2.647051   -0.351978
     63          6           0       -8.114238    3.389652   -1.250816
     64          6           0       -8.710952    4.512759   -1.958317
     65          6           0       -9.381849    4.139868   -3.329556
     66          6           0       -7.735054    5.724149   -2.169608
     67          1           0        0.436285    1.457771   -3.489849
     68          1           0        3.855491    5.135543    0.601690
     69          1           0        7.180565    0.249618    2.661135
     70          1           0        1.719540   -3.083973   -2.976924
     71          1           0       -0.274493   -1.164534   -2.955160
     72          1           0        0.183468   -1.281984   -5.145403
     73          1           0        1.738625   -2.156816   -4.914204
     74          1           0        1.687659   -0.359274   -4.877013
     75          1           0       -0.400609   -2.379502   -0.939917
     76          1           0        0.950339   -3.367892   -0.334710
     77          1           0       -0.083294   -5.165425   -1.251354
     78          1           0       -0.202699   -4.334062   -2.846929
     79          1           0       -0.123058    3.449922   -3.842942
     80          1           0        0.467090    5.059420   -3.968336
     81          1           0       -0.621321    4.583247   -2.599497
     82          1           0        3.128555    7.074836    0.268813
     83          1           0        2.693359    8.286914   -0.979161
     84          1           0        3.944664    7.108488   -1.325990
     85          1           0        4.878697    4.214473    2.874562
     86          1           0        7.655885    2.943699    2.198262
     87          1           0        6.066350    6.236275    2.275134
     88          1           0        6.521205    5.519760    0.718162
     89          1           0        7.520117    5.188060    2.181680
     90          1           0        6.096271    1.630954    4.278794
     91          1           0        5.903285    3.189461    4.634919
     92          1           0        8.288318    1.697215    5.298597
     93          1           0        7.615834    3.213465    5.797939
     94          1           0        8.703571    3.113443    4.363760
     95          1           0        7.630115   -3.659477    1.979595
     96          1           0        6.986333   -2.953226    3.277689
     97          1           0        8.214475   -1.985619    2.463342
     98          1           0        2.699817   -4.567927    0.015515
     99          1           0        1.622231   -6.564026   -3.521686
    100          1           0        3.070490   -7.385613   -3.096613
    101          1           0        3.275287   -5.903988   -4.092600
    102          1           0       -4.168575   -5.277298   -0.680446
    103          1           0       -4.282380   -3.500660   -0.793216
    104          1           0       -3.307338   -3.726855    1.764251
    105          1           0       -7.466772   -4.184076    1.390719
    106          1           0       -6.519955   -5.529236    0.597536
    107          1           0       -6.420794   -3.799267    0.012387
    108          1           0       -4.541091   -4.000330    3.640137
    109          1           0       -6.197972   -4.613717    3.380634
    110          1           0       -7.073300   -2.534920    3.864096
    111          1           0       -6.234491   -1.857845    2.445883
    112          1           0       -4.188962   -1.639873    3.976973
    113          1           0       -5.240219   -2.055751    5.300052
    114          1           0       -6.612219   -0.015673    4.881463
    115          1           0       -5.169171    1.028089    6.335269
    116          1           0       -3.787243    1.071516    5.344310
    117          1           0       -4.157911   -0.391061    6.213171
    118          1           0       -4.668068    0.348785    2.424164
    119          1           0       -4.869510    1.688837    3.580961
    120          1           0       -6.444176    2.422275    2.357959
    121          1           0       -7.461002    1.186318    3.184895
    122          1           0       -6.413870   -0.243554    0.951326
    123          1           0       -6.748986    1.375354    0.416728
    124          1           0       -8.921761    1.030523    1.722747
    125          1           0       -8.328870   -1.682180    0.919435
    126          1           0       -9.978457   -1.136745    0.569604
    127          1           0       -9.401486   -1.028299    2.206017
    128          1           0       -9.960424    0.533595   -0.676107
    129          1           0       -8.287122    0.788984   -1.029066
    130          1           0       -9.000439    2.972145    0.673248
    131          1           0      -10.216578    2.899780   -0.562567
    132          1           0       -7.882322    2.644089   -2.011174
    133          1           0       -7.257448    3.664222   -0.635330
    134          1           0       -9.465952    4.946460   -1.302761
    135          1           0       -9.100641    4.845870   -4.111262
    136          1           0      -10.446908    4.200389   -3.106559
    137          1           0       -9.184686    3.081463   -3.499253
    138          1           0       -7.089978    5.813503   -1.295313
    139          1           0       -8.350879    6.621239   -2.242976
    140          1           0       -7.177213    5.587098   -3.095655
 ---------------------------------------------------------------------

 SCF Done:  E(RZINDO/S) =  -474.125932102     A.U. after   19 cycles

 Excitation energies and oscillator strengths:

 Excited State   1:      Singlet-A      1.2279 eV 1009.74 nm  f=0.5674  <S**2>=0.000
     175 ->178         0.17247
     176 ->177         0.66851
 This state for optimization and/or second-order correction.
 Total Energy, E(CIS/TDA) =  -474.080808366
 Copying the excited state density for this state as the 1-particle RhoCI density.

 Excited State   2:      Singlet-A      1.8829 eV  658.47 nm  f=0.0384  <S**2>=0.000
     175 ->177         0.54898
     176 ->178        -0.41050

 Excited State   3:      Singlet-A      2.9209 eV  424.48 nm  f=0.7824  <S**2>=0.000
     171 ->177        -0.16038
     171 ->181        -0.13257
     173 ->177         0.14241
     175 ->177         0.32708
     176 ->178         0.47798
     176 ->179         0.11121
     176 ->181         0.10095

 Excited State   4:      Singlet-A      2.9450 eV  421.00 nm  f=0.0734  <S**2>=0.000
     171 ->177         0.24009
     171 ->179         0.19825
     171 ->181         0.28047
     171 ->185         0.15039
     171 ->187         0.14946
     176 ->178         0.11472
     176 ->179         0.22177
     176 ->180         0.28380
     176 ->181         0.12282

 Excited State   5:      Singlet-A      2.9628 eV  418.47 nm  f=0.0768  <S**2>=0.000
     171 ->177        -0.13863
     171 ->179        -0.11351
     171 ->181        -0.15033
     176 ->178        -0.15197
     176 ->179         0.16332
     176 ->180         0.57015

 The electronic state is 1-A.
 Alpha  occ. eigenvalues --   -1.85195  -1.78889  -1.77405  -1.75036  -1.70991
 Alpha  occ. eigenvalues --   -1.69072  -1.66186  -1.61391  -1.59832  -1.58751
 Alpha  occ. eigenvalues --   -1.56762  -1.52964  -1.49332  -1.48385  -1.46936
 Alpha  occ. eigenvalues --   -1.45110  -1.43845  -1.39777  -1.37669  -1.37619
 Alpha  occ. eigenvalues --   -1.34909  -1.32767  -1.32404  -1.31374  -1.29409
 Alpha  occ. eigenvalues --   -1.28318  -1.26129  -1.22544  -1.20406  -1.17708
 Alpha  occ. eigenvalues --   -1.16801  -1.15032  -1.14946  -1.14063  -1.13844
 Alpha  occ. eigenvalues --   -1.13481  -1.10851  -1.09697  -1.04307  -1.03450
 Alpha  occ. eigenvalues --   -1.01175  -1.01064  -0.97773  -0.97172  -0.96981
 Alpha  occ. eigenvalues --   -0.95812  -0.94264  -0.93101  -0.92804  -0.92610
 Alpha  occ. eigenvalues --   -0.91028  -0.90569  -0.88900  -0.88230  -0.86740
 Alpha  occ. eigenvalues --   -0.85809  -0.85186  -0.83312  -0.82511  -0.80151
 Alpha  occ. eigenvalues --   -0.79495  -0.78526  -0.77200  -0.76776  -0.76441
 Alpha  occ. eigenvalues --   -0.76073  -0.74856  -0.74141  -0.73737  -0.73410
 Alpha  occ. eigenvalues --   -0.72872  -0.72592  -0.71967  -0.71133  -0.70390
 Alpha  occ. eigenvalues --   -0.69803  -0.69147  -0.68927  -0.68432  -0.67979
 Alpha  occ. eigenvalues --   -0.66846  -0.66821  -0.66320  -0.65747  -0.65487
 Alpha  occ. eigenvalues --   -0.65390  -0.65258  -0.64588  -0.64107  -0.63876
 Alpha  occ. eigenvalues --   -0.63555  -0.63251  -0.63192  -0.62154  -0.61767
 Alpha  occ. eigenvalues --   -0.61589  -0.61165  -0.60867  -0.60729  -0.60015
 Alpha  occ. eigenvalues --   -0.59519  -0.59314  -0.59037  -0.58625  -0.58227
 Alpha  occ. eigenvalues --   -0.57958  -0.57707  -0.57245  -0.56652  -0.56007
 Alpha  occ. eigenvalues --   -0.55854  -0.55742  -0.55385  -0.54958  -0.54462
 Alpha  occ. eigenvalues --   -0.54238  -0.54039  -0.53698  -0.53521  -0.53256
 Alpha  occ. eigenvalues --   -0.52521  -0.52276  -0.52031  -0.51890  -0.51695
 Alpha  occ. eigenvalues --   -0.51576  -0.51385  -0.51258  -0.50630  -0.50308
 Alpha  occ. eigenvalues --   -0.50255  -0.50092  -0.49959  -0.49648  -0.49422
 Alpha  occ. eigenvalues --   -0.49079  -0.48857  -0.48663  -0.48155  -0.47813
 Alpha  occ. eigenvalues --   -0.47648  -0.47541  -0.47315  -0.46799  -0.46560
 Alpha  occ. eigenvalues --   -0.46347  -0.46025  -0.45974  -0.45504  -0.45228
 Alpha  occ. eigenvalues --   -0.45143  -0.44709  -0.44169  -0.43918  -0.43708
 Alpha  occ. eigenvalues --   -0.43300  -0.42909  -0.42609  -0.42413  -0.42262
 Alpha  occ. eigenvalues --   -0.42060  -0.41838  -0.40997  -0.39306  -0.38855
 Alpha  occ. eigenvalues --   -0.38588  -0.37588  -0.36662  -0.35068  -0.34050
 Alpha  occ. eigenvalues --   -0.33663  -0.32602  -0.31226  -0.30912  -0.26911
 Alpha  occ. eigenvalues --   -0.21775
 Alpha virt. eigenvalues --   -0.08627  -0.02235  -0.00698   0.00716   0.01137
 Alpha virt. eigenvalues --    0.01645   0.02491   0.02692   0.03971   0.05615
 Alpha virt. eigenvalues --    0.06057   0.06159   0.06725   0.07435   0.07862

 Mulliken charges:
               1
     1  Mg   0.435234
     2  C   -0.032545
     3  C   -0.065091
     4  C   -0.106921
     5  C   -0.066249
     6  N   -0.288289
     7  C    0.103995
     8  C   -0.011822
     9  C   -0.007534
    10  C    0.150312
    11  C   -0.052593
    12  C   -0.013649
    13  C    0.020368
    14  C    0.459361
    15  O   -0.518105
    16  O   -0.270090
    17  N   -0.334593
    18  C    0.121754
    19  C    0.061418
    20  C   -0.058637
    21  C    0.164676
    22  C   -0.032531
    23  C    0.325471
    24  O   -0.505440
    25  C   -0.023159
    26  N   -0.286823
    27  C    0.153325
    28  C   -0.011743
    29  C    0.008898
    30  C    0.084166
    31  C   -0.050845
    32  C   -0.032796
    33  C   -0.058632
    34  N   -0.301355
    35  C    0.087034
    36  C   -0.000055
    37  C   -0.067230
    38  C    0.122635
    39  C   -0.042983
    40  C    0.326910
    41  O   -0.515470
    42  C    0.039732
    43  C    0.480319
    44  O   -0.499037
    45  O   -0.287192
    46  C    0.075087
    47  C    0.105187
    48  C   -0.122582
    49  C   -0.007753
    50  C   -0.043337
    51  C   -0.019001
    52  C   -0.030763
    53  C   -0.040237
    54  C   -0.009829
    55  C   -0.063353
    56  C   -0.041145
    57  C   -0.037773
    58  C   -0.031880
    59  C   -0.008990
    60  C   -0.054459
    61  C   -0.042071
    62  C   -0.049686
    63  C   -0.022755
    64  C   -0.012926
    65  C   -0.063596
    66  C   -0.063763
    67  H    0.033297
    68  H    0.019803
    69  H    0.022681
    70  H    0.035290
    71  H    0.032166
    72  H    0.024707
    73  H    0.034140
    74  H    0.026825
    75  H    0.027727
    76  H    0.036555
    77  H    0.044626
    78  H    0.038948
    79  H    0.013574
    80  H    0.040750
    81  H    0.044973
    82  H    0.041011
    83  H    0.037931
    84  H    0.039770
    85  H    0.044284
    86  H    0.040379
    87  H    0.021083
    88  H    0.026623
    89  H    0.027381
    90  H    0.020366
    91  H    0.013098
    92  H    0.023166
    93  H    0.016297
    94  H    0.018900
    95  H    0.030982
    96  H    0.028880
    97  H    0.027826
    98  H    0.056050
    99  H    0.026773
   100  H    0.041268
   101  H    0.057678
   102  H    0.049950
   103  H    0.051203
   104  H    0.028088
   105  H    0.021704
   106  H    0.039784
   107  H    0.031353
   108  H    0.032147
   109  H    0.020484
   110  H    0.017010
   111  H    0.029810
   112  H    0.017335
   113  H    0.013224
   114  H    0.033732
   115  H    0.007098
   116  H    0.020485
   117  H    0.018920
   118  H    0.035549
   119  H    0.011003
   120  H    0.024894
   121  H    0.022255
   122  H    0.025830
   123  H    0.010661
   124  H    0.001704
   125  H    0.015758
   126  H    0.019624
   127  H    0.014683
   128  H    0.024890
   129  H    0.006690
   130  H    0.012690
   131  H    0.022739
   132  H    0.020281
   133  H    0.025459
   134  H    0.012161
   135  H    0.031913
   136  H    0.014046
   137  H    0.026334
   138  H    0.017263
   139  H    0.015049
   140  H    0.021823
 Sum of Mulliken charges =  -0.00000

 Dipole moment (field-independent basis, Debye):
    X=             -1.9820    Y=              5.0736    Z=              2.0449  Tot=              5.8182
 N-N= 4.517950437816D+03 E-N= 0.000000000000D+00  KE=-9.709941931012D+03
 Leave Link  601 at Wed May  4 18:42:24 2022, MaxMem=  6710886400 cpu:               1.0 elap:               0.1
 (Enter /sw/apps/gaussian-16.0/g16/l9999.exe)
 1\1\GINC-BP1-COMPUTE167\SP\RZINDO CIS\STO-3G\C55H74Mg1N4O6\OF15641\04-
 May-2022\0\\#p ZINDO=(nstates=5)\\step_251_chromophore_17 ZINDO\\0,1\M
 g,0,29.102,58.37,41.706\C,0,26.211,56.85,40.525\C,0,31.003,55.924,39.9
 85\C,0,31.782,60.362,41.823\C,0,27.098,61.071,42.763\N,0,28.624,56.742
 ,40.071\C,0,27.363,56.199,40.013\C,0,27.342,54.946,39.195\C,0,28.878,5
 4.509,39.241\C,0,29.599,55.799,39.77\C,0,29.216,53.213,40.137\C,0,26.6
 66,55.218,37.754\C,0,26.068,54.057,37.137\C,0,26.605,53.764,35.72\O,0,

 Normal termination of Gaussian 16 at Wed May  4 18:42:24 2022.
