 Gaussian 16, Revision A.03,
 Gaussian 16:  ES64L-G16RevA.03 25-Dec-2016

 ------------------------------
 #p blyp/Def2SVP td=(nstates=5)
 ------------------------------

 ---------------------------------------------------
 step_1151_chromophore_26 TDDFT with blyp functional
 ---------------------------------------------------
 Symbolic Z-matrix:
 Charge =  0 Multiplicity = 1

                         Standard orientation:
 ---------------------------------------------------------------------
 Center     Atomic      Atomic             Coordinates (Angstroms)
 Number     Number       Type             X           Y           Z
 ---------------------------------------------------------------------
      1         12           0       -4.100058    1.450090    0.728349
      2          6           0       -5.449689   -1.781355    0.080425
      3          6           0       -2.050330   -0.051962    3.132858
      4          6           0       -2.267133    4.265515    0.883485
      5          6           0       -5.476547    2.567089   -2.217227
      6          7           0       -3.850848   -0.651377    1.573600
      7          6           0       -4.521427   -1.763194    1.186265
      8          6           0       -3.987197   -3.006946    1.949192
      9          6           0       -3.127177   -2.358950    3.100149
     10          6           0       -2.955827   -0.927992    2.531720
     11          6           0       -3.765486   -2.365453    4.468059
     12          6           0       -3.316602   -4.116705    1.059443
     13          6           0       -2.132940   -3.614697    0.159244
     14          6           0       -1.129179   -4.659306   -0.417924
     15          8           0       -1.167831   -5.897851   -0.402086
     16          8           0       -0.110121   -3.963629   -1.042312
     17          7           0       -2.414975    2.001803    1.932853
     18          6           0       -1.788313    1.260229    2.903048
     19          6           0       -0.789335    2.091473    3.510944
     20          6           0       -0.967924    3.442176    3.021400
     21          6           0       -1.917211    3.281969    1.872922
     22          6           0       -0.011680    1.606447    4.664182
     23          6           0       -0.315130    4.704361    3.504913
     24          8           0        0.525060    4.600418    4.398480
     25          6           0       -0.547197    6.100346    2.866966
     26          7           0       -3.797602    3.124368   -0.562294
     27          6           0       -3.003064    4.127927   -0.302680
     28          6           0       -3.216550    5.358849   -1.290504
     29          6           0       -4.140756    4.692548   -2.354997
     30          6           0       -4.506208    3.375719   -1.711225
     31          6           0       -3.860263    6.609717   -0.721009
     32          6           0       -3.433709    4.471713   -3.797509
     33          6           0       -4.140274    5.266491   -4.889034
     34          7           0       -5.315040    0.649869   -0.743654
     35          6           0       -5.828787    1.286628   -1.818413
     36          6           0       -6.822533    0.362008   -2.356170
     37          6           0       -6.689340   -0.874948   -1.678718
     38          6           0       -5.690487   -0.627047   -0.748344
     39          6           0       -7.822884    0.665742   -3.351453
     40          6           0       -7.205757   -2.232810   -1.557229
     41          8           0       -8.007630   -2.866909   -2.225229
     42          6           0       -6.231680   -2.883644   -0.531612
     43          6           0       -7.132775   -3.524980    0.446799
     44          8           0       -6.937869   -4.663271    0.837152
     45          8           0       -8.074623   -2.685341    0.878611
     46          6           0       -8.830091   -3.156206    1.998995
     47          6           0        0.899224   -4.751205   -1.732191
     48          6           0        2.176308   -3.951852   -1.943005
     49          6           0        2.579555   -2.886701   -2.657015
     50          6           0        1.686397   -2.207052   -3.734825
     51          6           0        3.992994   -2.367224   -2.854785
     52          6           0        4.449366   -1.352922   -1.696070
     53          6           0        5.978335   -1.009623   -1.872844
     54          6           0        6.350753    0.432417   -1.332729
     55          6           0        5.920751    1.567572   -2.220816
     56          6           0        7.849361    0.499925   -1.018272
     57          6           0        8.143157    0.110931    0.470733
     58          6           0        8.821532   -1.179565    0.599254
     59          6           0       10.263971   -1.106477    1.226913
     60          6           0       10.502296   -2.020607    2.471735
     61          6           0       11.341266   -1.227783    0.202232
     62          6           0       12.729051   -0.940798    0.762793
     63          6           0       13.272313    0.472931    0.560297
     64          6           0       14.068904    0.571192   -0.756689
     65          6           0       15.531873    0.571577   -0.346127
     66          6           0       13.739083    1.816950   -1.645438
     67          1           0       -1.618254   -0.473061    4.042642
     68          1           0       -1.693709    5.194478    0.858544
     69          1           0       -6.142705    2.986728   -2.974352
     70          1           0       -4.885227   -3.460807    2.368939
     71          1           0       -2.170433   -2.850967    3.274753
     72          1           0       -3.051352   -2.621565    5.251054
     73          1           0       -4.713038   -2.898746    4.549382
     74          1           0       -4.008020   -1.332226    4.716359
     75          1           0       -4.041800   -4.559986    0.377280
     76          1           0       -2.810486   -4.822175    1.719285
     77          1           0       -1.550027   -2.886194    0.722390
     78          1           0       -2.492777   -3.031637   -0.687862
     79          1           0        0.614947    0.858272    4.179730
     80          1           0       -0.561069    1.062254    5.431879
     81          1           0        0.474875    2.501176    5.055095
     82          1           0       -1.630110    6.201399    2.785996
     83          1           0       -0.099164    6.213676    1.879564
     84          1           0       -0.210068    6.817523    3.615493
     85          1           0       -2.252570    5.603002   -1.738362
     86          1           0       -5.043011    5.268337   -2.562576
     87          1           0       -4.021527    6.531744    0.353292
     88          1           0       -4.854369    6.929602   -1.035370
     89          1           0       -3.272966    7.527414   -0.682684
     90          1           0       -3.555789    3.417767   -4.048716
     91          1           0       -2.377119    4.693718   -3.649194
     92          1           0       -3.332827    5.781428   -5.410593
     93          1           0       -4.949747    5.909308   -4.543538
     94          1           0       -4.540310    4.456170   -5.497258
     95          1           0       -8.754470    0.153800   -3.111387
     96          1           0       -7.479414    0.229643   -4.289572
     97          1           0       -8.019182    1.712641   -3.579465
     98          1           0       -5.540894   -3.593609   -0.987559
     99          1           0       -9.827267   -2.984877    1.594349
    100          1           0       -8.798700   -2.470756    2.845414
    101          1           0       -8.714864   -4.200177    2.289264
    102          1           0        0.474483   -5.043467   -2.691849
    103          1           0        1.051486   -5.724327   -1.264207
    104          1           0        3.031469   -4.291011   -1.356753
    105          1           0        0.687336   -2.624921   -3.610968
    106          1           0        2.056423   -2.291201   -4.756724
    107          1           0        1.694980   -1.130635   -3.567948
    108          1           0        4.198052   -1.953232   -3.842232
    109          1           0        4.721927   -3.170475   -2.750041
    110          1           0        4.449749   -1.982546   -0.806140
    111          1           0        3.697099   -0.564364   -1.698988
    112          1           0        6.231465   -1.027056   -2.933763
    113          1           0        6.678340   -1.772837   -1.533355
    114          1           0        5.738118    0.606713   -0.448526
    115          1           0        6.685539    1.921135   -2.912168
    116          1           0        5.656698    2.377099   -1.539830
    117          1           0        5.122749    1.250379   -2.891922
    118          1           0        8.182490    1.509653   -1.258089
    119          1           0        8.411378   -0.048044   -1.774989
    120          1           0        7.223952    0.025728    1.050456
    121          1           0        8.714774    0.918964    0.929222
    122          1           0        9.016112   -1.661726   -0.358201
    123          1           0        8.166954   -1.732408    1.272207
    124          1           0       10.378306   -0.138206    1.714142
    125          1           0       11.212842   -2.780529    2.147423
    126          1           0        9.600350   -2.402913    2.950495
    127          1           0       11.028782   -1.511572    3.278715
    128          1           0       11.096523   -0.458983   -0.529966
    129          1           0       11.343424   -2.251318   -0.174888
    130          1           0       13.413429   -1.586313    0.212071
    131          1           0       12.908674   -1.206282    1.805264
    132          1           0       13.781699    0.786128    1.472007
    133          1           0       12.460826    1.172210    0.358565
    134          1           0       13.879941   -0.355954   -1.298060
    135          1           0       15.960984    1.567803   -0.447903
    136          1           0       15.961751   -0.076181   -1.110351
    137          1           0       15.654134    0.249211    0.687287
    138          1           0       14.277626    2.698331   -1.298570
    139          1           0       12.654682    1.924286   -1.652649
    140          1           0       14.101894    1.659886   -2.662316
 ---------------------------------------------------------------------

 SCF Done:  E(RB-LYP) =  -3007.34675826     A.U. after   22 cycles

 Excitation energies and oscillator strengths:

 Excited State   1:      Singlet-A      1.8290 eV  677.90 nm  f=0.2761  <S**2>=0.000
     244 -> 247       -0.18491
     245 -> 248        0.18845
     246 -> 247        0.66283
     246 <- 247       -0.13840
 This state for optimization and/or second-order correction.
 Total Energy, E(TD-HF/TD-DFT) =  -3007.27954535
 Copying the excited state density for this state as the 1-particle RhoCI density.

 Excited State   2:      Singlet-A      1.8841 eV  658.06 nm  f=0.0257  <S**2>=0.000
     244 -> 247        0.66882
     245 -> 247        0.11587
     246 -> 247        0.18013

 Excited State   3:      Singlet-A      1.9572 eV  633.48 nm  f=0.0019  <S**2>=0.000
     243 -> 247        0.69842

 Excited State   4:      Singlet-A      2.0498 eV  604.85 nm  f=0.0654  <S**2>=0.000
     244 -> 247       -0.11514
     245 -> 247        0.63004
     246 -> 248       -0.24513

 Excited State   5:      Singlet-A      2.3781 eV  521.35 nm  f=0.0002  <S**2>=0.000
     240 -> 247        0.70205

 The electronic state is 1-A.
 Alpha  occ. eigenvalues --  -46.28361 -18.83381 -18.81499 -18.76896 -18.76330
 Alpha  occ. eigenvalues --  -18.76120 -18.75576 -14.03871 -14.03691 -14.01258
 Alpha  occ. eigenvalues --  -14.01087 -10.04303 -10.03839 -10.00124  -9.99924
 Alpha  occ. eigenvalues --   -9.97931  -9.97847  -9.97203  -9.96920  -9.96785
 Alpha  occ. eigenvalues --   -9.96676  -9.96429  -9.95516  -9.95025  -9.94919
 Alpha  occ. eigenvalues --   -9.94646  -9.94431  -9.94224  -9.94116  -9.94024
 Alpha  occ. eigenvalues --   -9.93647  -9.93627  -9.93553  -9.93525  -9.93344
 Alpha  occ. eigenvalues --   -9.93244  -9.93110  -9.93073  -9.93032  -9.92813
 Alpha  occ. eigenvalues --   -9.92751  -9.92641  -9.92558  -9.92432  -9.92370
 Alpha  occ. eigenvalues --   -9.92314  -9.92133  -9.92011  -9.91848  -9.91608
 Alpha  occ. eigenvalues --   -9.91568  -9.91403  -9.91355  -9.91173  -9.91039
 Alpha  occ. eigenvalues --   -9.90910  -9.90890  -9.90785  -9.90775  -9.90551
 Alpha  occ. eigenvalues --   -9.90529  -9.90520  -9.90324  -9.90313  -9.90212
 Alpha  occ. eigenvalues --   -9.90205  -2.92897  -1.73307  -1.72790  -1.72603
 Alpha  occ. eigenvalues --   -1.00165  -0.97007  -0.91692  -0.91334  -0.90619
 Alpha  occ. eigenvalues --   -0.88917  -0.87972  -0.87247  -0.86692  -0.84977
 Alpha  occ. eigenvalues --   -0.76624  -0.73710  -0.73180  -0.72886  -0.72437
 Alpha  occ. eigenvalues --   -0.72254  -0.72058  -0.71658  -0.71001  -0.70718
 Alpha  occ. eigenvalues --   -0.69856  -0.69223  -0.68595  -0.68152  -0.67750
 Alpha  occ. eigenvalues --   -0.66959  -0.66394  -0.65667  -0.65133  -0.64517
 Alpha  occ. eigenvalues --   -0.64012  -0.62842  -0.62452  -0.61912  -0.61392
 Alpha  occ. eigenvalues --   -0.60166  -0.60054  -0.59729  -0.59418  -0.59113
 Alpha  occ. eigenvalues --   -0.58315  -0.57654  -0.57275  -0.55707  -0.54561
 Alpha  occ. eigenvalues --   -0.54544  -0.54104  -0.52919  -0.52518  -0.52430
 Alpha  occ. eigenvalues --   -0.51796  -0.51203  -0.50920  -0.50524  -0.50188
 Alpha  occ. eigenvalues --   -0.49576  -0.49457  -0.49228  -0.47691  -0.47162
 Alpha  occ. eigenvalues --   -0.46554  -0.45901  -0.45348  -0.45108  -0.44975
 Alpha  occ. eigenvalues --   -0.44607  -0.43836  -0.43267  -0.43156  -0.42738
 Alpha  occ. eigenvalues --   -0.42404  -0.42338  -0.41790  -0.41549  -0.41491
 Alpha  occ. eigenvalues --   -0.41341  -0.41069  -0.40805  -0.40642  -0.40332
 Alpha  occ. eigenvalues --   -0.40075  -0.40023  -0.39725  -0.39480  -0.39347
 Alpha  occ. eigenvalues --   -0.38978  -0.38864  -0.38764  -0.38675  -0.38364
 Alpha  occ. eigenvalues --   -0.38219  -0.38025  -0.37922  -0.37691  -0.37626
 Alpha  occ. eigenvalues --   -0.37070  -0.36869  -0.36841  -0.36596  -0.36457
 Alpha  occ. eigenvalues --   -0.36353  -0.36259  -0.36169  -0.35659  -0.35446
 Alpha  occ. eigenvalues --   -0.35234  -0.35167  -0.35104  -0.34938  -0.34795
 Alpha  occ. eigenvalues --   -0.34730  -0.34594  -0.34454  -0.34343  -0.34069
 Alpha  occ. eigenvalues --   -0.33953  -0.33777  -0.33566  -0.33385  -0.33297
 Alpha  occ. eigenvalues --   -0.33253  -0.33181  -0.32767  -0.32691  -0.32533
 Alpha  occ. eigenvalues --   -0.32392  -0.32188  -0.31897  -0.31664  -0.31350
 Alpha  occ. eigenvalues --   -0.31189  -0.31073  -0.30961  -0.30893  -0.30819
 Alpha  occ. eigenvalues --   -0.30689  -0.30648  -0.30371  -0.30240  -0.29843
 Alpha  occ. eigenvalues --   -0.29472  -0.29374  -0.29336  -0.29200  -0.29141
 Alpha  occ. eigenvalues --   -0.29021  -0.28808  -0.28290  -0.28222  -0.27806
 Alpha  occ. eigenvalues --   -0.27603  -0.27287  -0.26880  -0.26647  -0.26560
 Alpha  occ. eigenvalues --   -0.26004  -0.25991  -0.25856  -0.25289  -0.25063
 Alpha  occ. eigenvalues --   -0.24756  -0.24532  -0.24154  -0.23973  -0.23505
 Alpha  occ. eigenvalues --   -0.23182  -0.22525  -0.22035  -0.21653  -0.20551
 Alpha  occ. eigenvalues --   -0.20468  -0.20206  -0.18908  -0.18609  -0.17746
 Alpha  occ. eigenvalues --   -0.16211
 Alpha virt. eigenvalues --   -0.11811  -0.07253  -0.06712  -0.05207  -0.04346
 Alpha virt. eigenvalues --   -0.03033  -0.02514  -0.01971  -0.01655  -0.00142
 Alpha virt. eigenvalues --    0.00663   0.01358   0.02076   0.02813   0.03061

 Mulliken charges:
               1
     1  Mg   0.699425
     2  C   -0.060657
     3  C   -0.063651
     4  C   -0.041899
     5  C   -0.109871
     6  N   -0.156291
     7  C   -0.095134
     8  C    0.060142
     9  C   -0.024432
    10  C    0.004412
    11  C    0.133655
    12  C    0.144550
    13  C    0.031477
    14  C    0.112769
    15  O   -0.199892
    16  O   -0.272120
    17  N   -0.279810
    18  C    0.152317
    19  C   -0.150062
    20  C    0.040681
    21  C    0.115789
    22  C    0.172207
    23  C   -0.095776
    24  O   -0.171312
    25  C    0.131531
    26  N   -0.195789
    27  C   -0.024956
    28  C    0.069523
    29  C   -0.017892
    30  C    0.059474
    31  C    0.120133
    32  C    0.069709
    33  C    0.075569
    34  N   -0.248184
    35  C    0.129513
    36  C   -0.183641
    37  C    0.063682
    38  C    0.076490
    39  C    0.173903
    40  C   -0.039888
    41  O   -0.124264
    42  C    0.109218
    43  C    0.081162
    44  O   -0.171592
    45  O   -0.238187
    46  C    0.204494
    47  C    0.341135
    48  C   -0.073189
    49  C   -0.127901
    50  C    0.111380
    51  C    0.085959
    52  C    0.077016
    53  C    0.082611
    54  C   -0.075443
    55  C    0.119648
    56  C    0.105186
    57  C    0.105150
    58  C    0.141811
    59  C   -0.112028
    60  C    0.098754
    61  C    0.140404
    62  C    0.070501
    63  C    0.103243
    64  C   -0.121976
    65  C    0.118067
    66  C    0.106089
    67  H   -0.067297
    68  H   -0.070451
    69  H   -0.064581
    70  H   -0.023041
    71  H   -0.025672
    72  H   -0.006739
    73  H   -0.001860
    74  H   -0.022998
    75  H    0.011411
    76  H   -0.006968
    77  H    0.003815
    78  H    0.010084
    79  H   -0.007402
    80  H    0.001069
    81  H    0.015253
    82  H   -0.002279
    83  H    0.036908
    84  H   -0.004407
    85  H   -0.023376
    86  H   -0.023819
    87  H   -0.027517
    88  H   -0.008387
    89  H   -0.017730
    90  H   -0.014850
    91  H   -0.018897
    92  H    0.000123
    93  H    0.001324
    94  H   -0.003413
    95  H    0.009279
    96  H   -0.001953
    97  H   -0.019651
    98  H    0.007440
    99  H    0.008145
   100  H    0.009241
   101  H    0.038647
   102  H   -0.015030
   103  H   -0.005215
   104  H   -0.044625
   105  H   -0.008079
   106  H    0.002485
   107  H   -0.015922
   108  H   -0.022571
   109  H   -0.034647
   110  H   -0.016589
   111  H   -0.008260
   112  H   -0.048654
   113  H   -0.029501
   114  H   -0.036504
   115  H   -0.026087
   116  H   -0.009543
   117  H   -0.029126
   118  H   -0.056597
   119  H   -0.038353
   120  H   -0.032427
   121  H   -0.032373
   122  H   -0.022854
   123  H   -0.048146
   124  H   -0.046122
   125  H   -0.024323
   126  H   -0.019681
   127  H   -0.021171
   128  H   -0.031292
   129  H   -0.029580
   130  H   -0.046861
   131  H   -0.042712
   132  H   -0.032462
   133  H   -0.056365
   134  H   -0.030973
   135  H   -0.022057
   136  H   -0.019545
   137  H   -0.011091
   138  H   -0.011605
   139  H   -0.008890
   140  H   -0.019042
 Sum of Mulliken charges =  -0.00000

 Dipole moment (field-independent basis, Debye):
    X=             -0.2809    Y=              6.4510    Z=             -0.5637  Tot=              6.4816
 Quadrupole moment (field-independent basis, Debye-Ang):
   XX=           -403.1229   YY=           -427.5798   ZZ=           -401.1143
   XY=            -46.6971   XZ=            -29.2881   YZ=            -27.9208

 Normal termination of Gaussian 16 at Wed Apr 27 12:42:49 2022.
