 Gaussian 16, Revision A.03,
 Gaussian 16:  ES64L-G16RevA.03 25-Dec-2016

 -----------------------------------
 #p cam-b3lyp/Def2SVP td=(nstates=5)
 -----------------------------------

 --------------------------------------------------------
 step_1151_chromophore_26 TDDFT with cam-b3lyp functional
 --------------------------------------------------------
 Symbolic Z-matrix:
 Charge =  0 Multiplicity = 1

                         Standard orientation:
 ---------------------------------------------------------------------
 Center     Atomic      Atomic             Coordinates (Angstroms)
 Number     Number       Type             X           Y           Z
 ---------------------------------------------------------------------
      1         12           0       -4.100058    1.450090    0.728349
      2          6           0       -5.449689   -1.781355    0.080425
      3          6           0       -2.050330   -0.051962    3.132858
      4          6           0       -2.267133    4.265515    0.883485
      5          6           0       -5.476547    2.567089   -2.217227
      6          7           0       -3.850848   -0.651377    1.573600
      7          6           0       -4.521427   -1.763194    1.186265
      8          6           0       -3.987197   -3.006946    1.949192
      9          6           0       -3.127177   -2.358950    3.100149
     10          6           0       -2.955827   -0.927992    2.531720
     11          6           0       -3.765486   -2.365453    4.468059
     12          6           0       -3.316602   -4.116705    1.059443
     13          6           0       -2.132940   -3.614697    0.159244
     14          6           0       -1.129179   -4.659306   -0.417924
     15          8           0       -1.167831   -5.897851   -0.402086
     16          8           0       -0.110121   -3.963629   -1.042312
     17          7           0       -2.414975    2.001803    1.932853
     18          6           0       -1.788313    1.260229    2.903048
     19          6           0       -0.789335    2.091473    3.510944
     20          6           0       -0.967924    3.442176    3.021400
     21          6           0       -1.917211    3.281969    1.872922
     22          6           0       -0.011680    1.606447    4.664182
     23          6           0       -0.315130    4.704361    3.504913
     24          8           0        0.525060    4.600418    4.398480
     25          6           0       -0.547197    6.100346    2.866966
     26          7           0       -3.797602    3.124368   -0.562294
     27          6           0       -3.003064    4.127927   -0.302680
     28          6           0       -3.216550    5.358849   -1.290504
     29          6           0       -4.140756    4.692548   -2.354997
     30          6           0       -4.506208    3.375719   -1.711225
     31          6           0       -3.860263    6.609717   -0.721009
     32          6           0       -3.433709    4.471713   -3.797509
     33          6           0       -4.140274    5.266491   -4.889034
     34          7           0       -5.315040    0.649869   -0.743654
     35          6           0       -5.828787    1.286628   -1.818413
     36          6           0       -6.822533    0.362008   -2.356170
     37          6           0       -6.689340   -0.874948   -1.678718
     38          6           0       -5.690487   -0.627047   -0.748344
     39          6           0       -7.822884    0.665742   -3.351453
     40          6           0       -7.205757   -2.232810   -1.557229
     41          8           0       -8.007630   -2.866909   -2.225229
     42          6           0       -6.231680   -2.883644   -0.531612
     43          6           0       -7.132775   -3.524980    0.446799
     44          8           0       -6.937869   -4.663271    0.837152
     45          8           0       -8.074623   -2.685341    0.878611
     46          6           0       -8.830091   -3.156206    1.998995
     47          6           0        0.899224   -4.751205   -1.732191
     48          6           0        2.176308   -3.951852   -1.943005
     49          6           0        2.579555   -2.886701   -2.657015
     50          6           0        1.686397   -2.207052   -3.734825
     51          6           0        3.992994   -2.367224   -2.854785
     52          6           0        4.449366   -1.352922   -1.696070
     53          6           0        5.978335   -1.009623   -1.872844
     54          6           0        6.350753    0.432417   -1.332729
     55          6           0        5.920751    1.567572   -2.220816
     56          6           0        7.849361    0.499925   -1.018272
     57          6           0        8.143157    0.110931    0.470733
     58          6           0        8.821532   -1.179565    0.599254
     59          6           0       10.263971   -1.106477    1.226913
     60          6           0       10.502296   -2.020607    2.471735
     61          6           0       11.341266   -1.227783    0.202232
     62          6           0       12.729051   -0.940798    0.762793
     63          6           0       13.272313    0.472931    0.560297
     64          6           0       14.068904    0.571192   -0.756689
     65          6           0       15.531873    0.571577   -0.346127
     66          6           0       13.739083    1.816950   -1.645438
     67          1           0       -1.618254   -0.473061    4.042642
     68          1           0       -1.693709    5.194478    0.858544
     69          1           0       -6.142705    2.986728   -2.974352
     70          1           0       -4.885227   -3.460807    2.368939
     71          1           0       -2.170433   -2.850967    3.274753
     72          1           0       -3.051352   -2.621565    5.251054
     73          1           0       -4.713038   -2.898746    4.549382
     74          1           0       -4.008020   -1.332226    4.716359
     75          1           0       -4.041800   -4.559986    0.377280
     76          1           0       -2.810486   -4.822175    1.719285
     77          1           0       -1.550027   -2.886194    0.722390
     78          1           0       -2.492777   -3.031637   -0.687862
     79          1           0        0.614947    0.858272    4.179730
     80          1           0       -0.561069    1.062254    5.431879
     81          1           0        0.474875    2.501176    5.055095
     82          1           0       -1.630110    6.201399    2.785996
     83          1           0       -0.099164    6.213676    1.879564
     84          1           0       -0.210068    6.817523    3.615493
     85          1           0       -2.252570    5.603002   -1.738362
     86          1           0       -5.043011    5.268337   -2.562576
     87          1           0       -4.021527    6.531744    0.353292
     88          1           0       -4.854369    6.929602   -1.035370
     89          1           0       -3.272966    7.527414   -0.682684
     90          1           0       -3.555789    3.417767   -4.048716
     91          1           0       -2.377119    4.693718   -3.649194
     92          1           0       -3.332827    5.781428   -5.410593
     93          1           0       -4.949747    5.909308   -4.543538
     94          1           0       -4.540310    4.456170   -5.497258
     95          1           0       -8.754470    0.153800   -3.111387
     96          1           0       -7.479414    0.229643   -4.289572
     97          1           0       -8.019182    1.712641   -3.579465
     98          1           0       -5.540894   -3.593609   -0.987559
     99          1           0       -9.827267   -2.984877    1.594349
    100          1           0       -8.798700   -2.470756    2.845414
    101          1           0       -8.714864   -4.200177    2.289264
    102          1           0        0.474483   -5.043467   -2.691849
    103          1           0        1.051486   -5.724327   -1.264207
    104          1           0        3.031469   -4.291011   -1.356753
    105          1           0        0.687336   -2.624921   -3.610968
    106          1           0        2.056423   -2.291201   -4.756724
    107          1           0        1.694980   -1.130635   -3.567948
    108          1           0        4.198052   -1.953232   -3.842232
    109          1           0        4.721927   -3.170475   -2.750041
    110          1           0        4.449749   -1.982546   -0.806140
    111          1           0        3.697099   -0.564364   -1.698988
    112          1           0        6.231465   -1.027056   -2.933763
    113          1           0        6.678340   -1.772837   -1.533355
    114          1           0        5.738118    0.606713   -0.448526
    115          1           0        6.685539    1.921135   -2.912168
    116          1           0        5.656698    2.377099   -1.539830
    117          1           0        5.122749    1.250379   -2.891922
    118          1           0        8.182490    1.509653   -1.258089
    119          1           0        8.411378   -0.048044   -1.774989
    120          1           0        7.223952    0.025728    1.050456
    121          1           0        8.714774    0.918964    0.929222
    122          1           0        9.016112   -1.661726   -0.358201
    123          1           0        8.166954   -1.732408    1.272207
    124          1           0       10.378306   -0.138206    1.714142
    125          1           0       11.212842   -2.780529    2.147423
    126          1           0        9.600350   -2.402913    2.950495
    127          1           0       11.028782   -1.511572    3.278715
    128          1           0       11.096523   -0.458983   -0.529966
    129          1           0       11.343424   -2.251318   -0.174888
    130          1           0       13.413429   -1.586313    0.212071
    131          1           0       12.908674   -1.206282    1.805264
    132          1           0       13.781699    0.786128    1.472007
    133          1           0       12.460826    1.172210    0.358565
    134          1           0       13.879941   -0.355954   -1.298060
    135          1           0       15.960984    1.567803   -0.447903
    136          1           0       15.961751   -0.076181   -1.110351
    137          1           0       15.654134    0.249211    0.687287
    138          1           0       14.277626    2.698331   -1.298570
    139          1           0       12.654682    1.924286   -1.652649
    140          1           0       14.101894    1.659886   -2.662316
 ---------------------------------------------------------------------

 SCF Done:  E(RCAM-B3LYP) =  -3007.14906048     A.U. after   17 cycles

 Excitation energies and oscillator strengths:

 Excited State   1:      Singlet-A      1.7572 eV  705.56 nm  f=0.3694  <S**2>=0.000
     245 -> 248       -0.18739
     246 -> 247        0.68371
     245 <- 248       -0.10853
 This state for optimization and/or second-order correction.
 Total Energy, E(TD-HF/TD-DFT) =  -3007.08448311
 Copying the excited state density for this state as the 1-particle RhoCI density.

 Excited State   2:      Singlet-A      2.2877 eV  541.96 nm  f=0.0853  <S**2>=0.000
     245 -> 247        0.62618
     246 -> 248        0.31342

 Excited State   3:      Singlet-A      3.2348 eV  383.28 nm  f=0.0023  <S**2>=0.000
     243 -> 247        0.61847
     244 -> 247       -0.24007
     246 -> 248       -0.14345

 Excited State   4:      Singlet-A      3.4124 eV  363.34 nm  f=0.0015  <S**2>=0.000
     240 -> 247        0.10034
     243 -> 247        0.20466
     244 -> 247        0.62894

 Excited State   5:      Singlet-A      3.5113 eV  353.10 nm  f=0.0765  <S**2>=0.000
     240 -> 247        0.49386
     240 -> 249       -0.28439
     240 -> 250        0.10145
     240 -> 251       -0.18156
     245 -> 247       -0.10174
     246 -> 248        0.24767

 The electronic state is 1-A.
 Alpha  occ. eigenvalues --  -46.90024 -19.26249 -19.24333 -19.19838 -19.19336
 Alpha  occ. eigenvalues --  -19.19199 -19.19080 -14.42902 -14.42463 -14.39872
 Alpha  occ. eigenvalues --  -14.39322 -10.39668 -10.39111 -10.35612 -10.35134
 Alpha  occ. eigenvalues --  -10.31897 -10.31775 -10.31731 -10.31642 -10.31583
 Alpha  occ. eigenvalues --  -10.31385 -10.30566 -10.29675 -10.29332 -10.28972
 Alpha  occ. eigenvalues --  -10.28803 -10.28708 -10.28651 -10.28275 -10.28207
 Alpha  occ. eigenvalues --  -10.27888 -10.27804 -10.27739 -10.27639 -10.27518
 Alpha  occ. eigenvalues --  -10.27468 -10.27184 -10.27151 -10.26972 -10.26891
 Alpha  occ. eigenvalues --  -10.26760 -10.26592 -10.26566 -10.26203 -10.26016
 Alpha  occ. eigenvalues --  -10.25884 -10.25851 -10.25736 -10.25366 -10.25287
 Alpha  occ. eigenvalues --  -10.25223 -10.25191 -10.25100 -10.25052 -10.24669
 Alpha  occ. eigenvalues --  -10.24607 -10.24574 -10.24537 -10.24442 -10.24206
 Alpha  occ. eigenvalues --  -10.24141 -10.24080 -10.23970 -10.23932 -10.23836
 Alpha  occ. eigenvalues --  -10.23771  -3.18453  -1.93339  -1.92907  -1.92742
 Alpha  occ. eigenvalues --   -1.18655  -1.15399  -1.10002  -1.09976  -1.08584
 Alpha  occ. eigenvalues --   -1.06718  -1.05653  -1.04908  -1.04293  -1.02790
 Alpha  occ. eigenvalues --   -0.93732  -0.90591  -0.89904  -0.89683  -0.89178
 Alpha  occ. eigenvalues --   -0.89008  -0.88777  -0.88276  -0.87606  -0.87131
 Alpha  occ. eigenvalues --   -0.86574  -0.85744  -0.84731  -0.84403  -0.83927
 Alpha  occ. eigenvalues --   -0.82974  -0.82496  -0.81586  -0.81261  -0.80344
 Alpha  occ. eigenvalues --   -0.79800  -0.78341  -0.78071  -0.77648  -0.76890
 Alpha  occ. eigenvalues --   -0.75530  -0.75424  -0.75003  -0.74712  -0.74363
 Alpha  occ. eigenvalues --   -0.73368  -0.72615  -0.72187  -0.70546  -0.69115
 Alpha  occ. eigenvalues --   -0.69026  -0.68756  -0.67650  -0.66912  -0.66527
 Alpha  occ. eigenvalues --   -0.65799  -0.65313  -0.65064  -0.64703  -0.63929
 Alpha  occ. eigenvalues --   -0.63570  -0.63480  -0.62931  -0.61492  -0.60816
 Alpha  occ. eigenvalues --   -0.60079  -0.59470  -0.58807  -0.58624  -0.58472
 Alpha  occ. eigenvalues --   -0.58234  -0.57235  -0.56602  -0.56321  -0.56046
 Alpha  occ. eigenvalues --   -0.55542  -0.55437  -0.54634  -0.54325  -0.54168
 Alpha  occ. eigenvalues --   -0.54076  -0.53730  -0.53588  -0.53323  -0.53189
 Alpha  occ. eigenvalues --   -0.53102  -0.52724  -0.52579  -0.52353  -0.52068
 Alpha  occ. eigenvalues --   -0.51965  -0.51526  -0.51287  -0.51077  -0.50760
 Alpha  occ. eigenvalues --   -0.50504  -0.50415  -0.50259  -0.50172  -0.49880
 Alpha  occ. eigenvalues --   -0.49455  -0.49260  -0.49202  -0.49055  -0.48943
 Alpha  occ. eigenvalues --   -0.48663  -0.48485  -0.48341  -0.47581  -0.47438
 Alpha  occ. eigenvalues --   -0.47378  -0.47261  -0.47219  -0.46832  -0.46675
 Alpha  occ. eigenvalues --   -0.46606  -0.46545  -0.46429  -0.46246  -0.45951
 Alpha  occ. eigenvalues --   -0.45764  -0.45466  -0.45421  -0.45299  -0.45035
 Alpha  occ. eigenvalues --   -0.44917  -0.44898  -0.44521  -0.44390  -0.44190
 Alpha  occ. eigenvalues --   -0.44002  -0.43919  -0.43430  -0.43361  -0.43156
 Alpha  occ. eigenvalues --   -0.42872  -0.42809  -0.42633  -0.42475  -0.42210
 Alpha  occ. eigenvalues --   -0.42110  -0.41974  -0.41794  -0.41554  -0.41125
 Alpha  occ. eigenvalues --   -0.40988  -0.40682  -0.40451  -0.40348  -0.40231
 Alpha  occ. eigenvalues --   -0.40177  -0.39818  -0.39279  -0.39235  -0.38682
 Alpha  occ. eigenvalues --   -0.38472  -0.38151  -0.37660  -0.37420  -0.37331
 Alpha  occ. eigenvalues --   -0.37142  -0.36835  -0.36774  -0.36539  -0.35786
 Alpha  occ. eigenvalues --   -0.35581  -0.34967  -0.34699  -0.34591  -0.34264
 Alpha  occ. eigenvalues --   -0.33970  -0.33917  -0.33566  -0.31376  -0.31327
 Alpha  occ. eigenvalues --   -0.30891  -0.30248  -0.29627  -0.29350  -0.24571
 Alpha  occ. eigenvalues --   -0.21542
 Alpha virt. eigenvalues --   -0.08852  -0.02225  -0.00346   0.00713   0.01747
 Alpha virt. eigenvalues --    0.04461   0.05254   0.05711   0.06075   0.06547
 Alpha virt. eigenvalues --    0.07476   0.07888   0.08443   0.08928   0.09061

 Mulliken charges:
               1
     1  Mg   0.829417
     2  C   -0.083166
     3  C   -0.075024
     4  C   -0.073317
     5  C   -0.111910
     6  N   -0.223248
     7  C   -0.052305
     8  C    0.010033
     9  C   -0.076751
    10  C    0.018648
    11  C    0.073776
    12  C    0.096408
    13  C   -0.033229
    14  C    0.195407
    15  O   -0.243030
    16  O   -0.335881
    17  N   -0.368792
    18  C    0.162905
    19  C   -0.138994
    20  C   -0.032558
    21  C    0.152401
    22  C    0.103728
    23  C   -0.019219
    24  O   -0.212817
    25  C    0.053497
    26  N   -0.270399
    27  C    0.010173
    28  C    0.010004
    29  C   -0.067932
    30  C    0.070966
    31  C    0.056298
    32  C    0.022018
    33  C    0.010602
    34  N   -0.337774
    35  C    0.128787
    36  C   -0.179416
    37  C   -0.014288
    38  C    0.112323
    39  C    0.114473
    40  C    0.063417
    41  O   -0.162594
    42  C    0.024282
    43  C    0.170341
    44  O   -0.213111
    45  O   -0.299264
    46  C    0.162103
    47  C    0.311513
    48  C   -0.104283
    49  C   -0.143870
    50  C    0.053762
    51  C    0.026212
    52  C    0.024204
    53  C    0.034690
    54  C   -0.127752
    55  C    0.059402
    56  C    0.046348
    57  C    0.047057
    58  C    0.084669
    59  C   -0.161008
    60  C    0.039571
    61  C    0.084574
    62  C    0.010354
    63  C    0.047477
    64  C   -0.180393
    65  C    0.059036
    66  C    0.051299
    67  H   -0.030789
    68  H   -0.037841
    69  H   -0.029946
    70  H    0.012692
    71  H    0.010029
    72  H    0.018060
    73  H    0.024847
    74  H    0.004094
    75  H    0.037756
    76  H    0.023253
    77  H    0.033661
    78  H    0.040704
    79  H    0.020524
    80  H    0.028763
    81  H    0.049647
    82  H    0.025372
    83  H    0.063164
    84  H    0.031788
    85  H    0.011837
    86  H    0.009376
    87  H   -0.001359
    88  H    0.018680
    89  H    0.008472
    90  H    0.016120
    91  H    0.006831
    92  H    0.023355
    93  H    0.022988
    94  H    0.019481
    95  H    0.034496
    96  H    0.023968
    97  H    0.004605
    98  H    0.048807
    99  H    0.031867
   100  H    0.030689
   101  H    0.065634
   102  H    0.012858
   103  H    0.028288
   104  H   -0.014594
   105  H    0.016393
   106  H    0.025880
   107  H    0.007091
   108  H    0.006524
   109  H   -0.004137
   110  H    0.010003
   111  H    0.017061
   112  H   -0.020926
   113  H   -0.001821
   114  H   -0.005185
   115  H   -0.001775
   116  H    0.014601
   117  H   -0.004665
   118  H   -0.023525
   119  H   -0.010522
   120  H   -0.003047
   121  H   -0.002243
   122  H    0.002822
   123  H   -0.016485
   124  H   -0.014754
   125  H   -0.000788
   126  H    0.005868
   127  H    0.002610
   128  H   -0.006653
   129  H   -0.000014
   130  H   -0.016779
   131  H   -0.011280
   132  H   -0.002369
   133  H   -0.027964
   134  H   -0.000331
   135  H    0.001800
   136  H    0.004743
   137  H    0.012307
   138  H    0.010927
   139  H    0.012571
   140  H    0.006031
 Sum of Mulliken charges =  -0.00000

 Dipole moment (field-independent basis, Debye):
    X=              0.2378    Y=              7.0813    Z=              0.1602  Tot=              7.0871
 Quadrupole moment (field-independent basis, Debye-Ang):
   XX=           -406.5516   YY=           -424.3337   ZZ=           -398.8168
   XY=            -47.8393   XZ=            -31.9107   YZ=            -27.5953

 Normal termination of Gaussian 16 at Wed Apr 27 11:43:15 2022.
