 Gaussian 16, Revision A.03,
 Gaussian 16:  ES64L-G16RevA.03 25-Dec-2016

 ---------------------------------
 #p PBE1PBE/Def2SVP td=(nstates=5)
 ---------------------------------

 ------------------------------------------------------
 step_1151_chromophore_26 TDDFT with PBE1PBE functional
 ------------------------------------------------------
 Symbolic Z-matrix:
 Charge =  0 Multiplicity = 1

                         Standard orientation:
 ---------------------------------------------------------------------
 Center     Atomic      Atomic             Coordinates (Angstroms)
 Number     Number       Type             X           Y           Z
 ---------------------------------------------------------------------
      1         12           0       -4.100058    1.450090    0.728349
      2          6           0       -5.449689   -1.781355    0.080425
      3          6           0       -2.050330   -0.051962    3.132858
      4          6           0       -2.267133    4.265515    0.883485
      5          6           0       -5.476547    2.567089   -2.217227
      6          7           0       -3.850848   -0.651377    1.573600
      7          6           0       -4.521427   -1.763194    1.186265
      8          6           0       -3.987197   -3.006946    1.949192
      9          6           0       -3.127177   -2.358950    3.100149
     10          6           0       -2.955827   -0.927992    2.531720
     11          6           0       -3.765486   -2.365453    4.468059
     12          6           0       -3.316602   -4.116705    1.059443
     13          6           0       -2.132940   -3.614697    0.159244
     14          6           0       -1.129179   -4.659306   -0.417924
     15          8           0       -1.167831   -5.897851   -0.402086
     16          8           0       -0.110121   -3.963629   -1.042312
     17          7           0       -2.414975    2.001803    1.932853
     18          6           0       -1.788313    1.260229    2.903048
     19          6           0       -0.789335    2.091473    3.510944
     20          6           0       -0.967924    3.442176    3.021400
     21          6           0       -1.917211    3.281969    1.872922
     22          6           0       -0.011680    1.606447    4.664182
     23          6           0       -0.315130    4.704361    3.504913
     24          8           0        0.525060    4.600418    4.398480
     25          6           0       -0.547197    6.100346    2.866966
     26          7           0       -3.797602    3.124368   -0.562294
     27          6           0       -3.003064    4.127927   -0.302680
     28          6           0       -3.216550    5.358849   -1.290504
     29          6           0       -4.140756    4.692548   -2.354997
     30          6           0       -4.506208    3.375719   -1.711225
     31          6           0       -3.860263    6.609717   -0.721009
     32          6           0       -3.433709    4.471713   -3.797509
     33          6           0       -4.140274    5.266491   -4.889034
     34          7           0       -5.315040    0.649869   -0.743654
     35          6           0       -5.828787    1.286628   -1.818413
     36          6           0       -6.822533    0.362008   -2.356170
     37          6           0       -6.689340   -0.874948   -1.678718
     38          6           0       -5.690487   -0.627047   -0.748344
     39          6           0       -7.822884    0.665742   -3.351453
     40          6           0       -7.205757   -2.232810   -1.557229
     41          8           0       -8.007630   -2.866909   -2.225229
     42          6           0       -6.231680   -2.883644   -0.531612
     43          6           0       -7.132775   -3.524980    0.446799
     44          8           0       -6.937869   -4.663271    0.837152
     45          8           0       -8.074623   -2.685341    0.878611
     46          6           0       -8.830091   -3.156206    1.998995
     47          6           0        0.899224   -4.751205   -1.732191
     48          6           0        2.176308   -3.951852   -1.943005
     49          6           0        2.579555   -2.886701   -2.657015
     50          6           0        1.686397   -2.207052   -3.734825
     51          6           0        3.992994   -2.367224   -2.854785
     52          6           0        4.449366   -1.352922   -1.696070
     53          6           0        5.978335   -1.009623   -1.872844
     54          6           0        6.350753    0.432417   -1.332729
     55          6           0        5.920751    1.567572   -2.220816
     56          6           0        7.849361    0.499925   -1.018272
     57          6           0        8.143157    0.110931    0.470733
     58          6           0        8.821532   -1.179565    0.599254
     59          6           0       10.263971   -1.106477    1.226913
     60          6           0       10.502296   -2.020607    2.471735
     61          6           0       11.341266   -1.227783    0.202232
     62          6           0       12.729051   -0.940798    0.762793
     63          6           0       13.272313    0.472931    0.560297
     64          6           0       14.068904    0.571192   -0.756689
     65          6           0       15.531873    0.571577   -0.346127
     66          6           0       13.739083    1.816950   -1.645438
     67          1           0       -1.618254   -0.473061    4.042642
     68          1           0       -1.693709    5.194478    0.858544
     69          1           0       -6.142705    2.986728   -2.974352
     70          1           0       -4.885227   -3.460807    2.368939
     71          1           0       -2.170433   -2.850967    3.274753
     72          1           0       -3.051352   -2.621565    5.251054
     73          1           0       -4.713038   -2.898746    4.549382
     74          1           0       -4.008020   -1.332226    4.716359
     75          1           0       -4.041800   -4.559986    0.377280
     76          1           0       -2.810486   -4.822175    1.719285
     77          1           0       -1.550027   -2.886194    0.722390
     78          1           0       -2.492777   -3.031637   -0.687862
     79          1           0        0.614947    0.858272    4.179730
     80          1           0       -0.561069    1.062254    5.431879
     81          1           0        0.474875    2.501176    5.055095
     82          1           0       -1.630110    6.201399    2.785996
     83          1           0       -0.099164    6.213676    1.879564
     84          1           0       -0.210068    6.817523    3.615493
     85          1           0       -2.252570    5.603002   -1.738362
     86          1           0       -5.043011    5.268337   -2.562576
     87          1           0       -4.021527    6.531744    0.353292
     88          1           0       -4.854369    6.929602   -1.035370
     89          1           0       -3.272966    7.527414   -0.682684
     90          1           0       -3.555789    3.417767   -4.048716
     91          1           0       -2.377119    4.693718   -3.649194
     92          1           0       -3.332827    5.781428   -5.410593
     93          1           0       -4.949747    5.909308   -4.543538
     94          1           0       -4.540310    4.456170   -5.497258
     95          1           0       -8.754470    0.153800   -3.111387
     96          1           0       -7.479414    0.229643   -4.289572
     97          1           0       -8.019182    1.712641   -3.579465
     98          1           0       -5.540894   -3.593609   -0.987559
     99          1           0       -9.827267   -2.984877    1.594349
    100          1           0       -8.798700   -2.470756    2.845414
    101          1           0       -8.714864   -4.200177    2.289264
    102          1           0        0.474483   -5.043467   -2.691849
    103          1           0        1.051486   -5.724327   -1.264207
    104          1           0        3.031469   -4.291011   -1.356753
    105          1           0        0.687336   -2.624921   -3.610968
    106          1           0        2.056423   -2.291201   -4.756724
    107          1           0        1.694980   -1.130635   -3.567948
    108          1           0        4.198052   -1.953232   -3.842232
    109          1           0        4.721927   -3.170475   -2.750041
    110          1           0        4.449749   -1.982546   -0.806140
    111          1           0        3.697099   -0.564364   -1.698988
    112          1           0        6.231465   -1.027056   -2.933763
    113          1           0        6.678340   -1.772837   -1.533355
    114          1           0        5.738118    0.606713   -0.448526
    115          1           0        6.685539    1.921135   -2.912168
    116          1           0        5.656698    2.377099   -1.539830
    117          1           0        5.122749    1.250379   -2.891922
    118          1           0        8.182490    1.509653   -1.258089
    119          1           0        8.411378   -0.048044   -1.774989
    120          1           0        7.223952    0.025728    1.050456
    121          1           0        8.714774    0.918964    0.929222
    122          1           0        9.016112   -1.661726   -0.358201
    123          1           0        8.166954   -1.732408    1.272207
    124          1           0       10.378306   -0.138206    1.714142
    125          1           0       11.212842   -2.780529    2.147423
    126          1           0        9.600350   -2.402913    2.950495
    127          1           0       11.028782   -1.511572    3.278715
    128          1           0       11.096523   -0.458983   -0.529966
    129          1           0       11.343424   -2.251318   -0.174888
    130          1           0       13.413429   -1.586313    0.212071
    131          1           0       12.908674   -1.206282    1.805264
    132          1           0       13.781699    0.786128    1.472007
    133          1           0       12.460826    1.172210    0.358565
    134          1           0       13.879941   -0.355954   -1.298060
    135          1           0       15.960984    1.567803   -0.447903
    136          1           0       15.961751   -0.076181   -1.110351
    137          1           0       15.654134    0.249211    0.687287
    138          1           0       14.277626    2.698331   -1.298570
    139          1           0       12.654682    1.924286   -1.652649
    140          1           0       14.101894    1.659886   -2.662316
 ---------------------------------------------------------------------

 SCF Done:  E(RPBE1PBE) =  -3005.33895960     A.U. after   15 cycles

 Excitation energies and oscillator strengths:

 Excited State   1:      Singlet-A      1.8924 eV  655.16 nm  f=0.3610  <S**2>=0.000
     245 -> 248        0.18236
     246 -> 247        0.69049
     246 <- 247       -0.10167
 This state for optimization and/or second-order correction.
 Total Energy, E(TD-HF/TD-DFT) =  -3005.26941465
 Copying the excited state density for this state as the 1-particle RhoCI density.

 Excited State   2:      Singlet-A      2.2819 eV  543.33 nm  f=0.0859  <S**2>=0.000
     245 -> 247        0.64146
     246 -> 248       -0.28152

 Excited State   3:      Singlet-A      2.8692 eV  432.12 nm  f=0.0044  <S**2>=0.000
     240 -> 247        0.14001
     244 -> 247        0.66558

 Excited State   4:      Singlet-A      2.9697 eV  417.49 nm  f=0.0052  <S**2>=0.000
     240 -> 247        0.13855
     241 -> 247       -0.13039
     243 -> 247        0.65864

 Excited State   5:      Singlet-A      3.0930 eV  400.85 nm  f=0.0008  <S**2>=0.000
     240 -> 247        0.47093
     240 -> 249       -0.13576
     241 -> 247        0.44620
     244 -> 247       -0.16794

 The electronic state is 1-A.
 Alpha  occ. eigenvalues --  -46.93394 -19.26910 -19.25010 -19.20123 -19.19640
 Alpha  occ. eigenvalues --  -19.19572 -19.19116 -14.42301 -14.41992 -14.39420
 Alpha  occ. eigenvalues --  -14.39068 -10.36706 -10.36162 -10.32584 -10.32432
 Alpha  occ. eigenvalues --  -10.29475 -10.29263 -10.29171 -10.29139 -10.29022
 Alpha  occ. eigenvalues --  -10.28924 -10.28457 -10.27309 -10.27043 -10.26752
 Alpha  occ. eigenvalues --  -10.26630 -10.26547 -10.26128 -10.26026 -10.25938
 Alpha  occ. eigenvalues --  -10.25822 -10.25507 -10.25469 -10.25248 -10.25129
 Alpha  occ. eigenvalues --  -10.25120 -10.24859 -10.24789 -10.24487 -10.24410
 Alpha  occ. eigenvalues --  -10.24322 -10.24066 -10.24012 -10.23614 -10.23584
 Alpha  occ. eigenvalues --  -10.23422 -10.23376 -10.23275 -10.22984 -10.22855
 Alpha  occ. eigenvalues --  -10.22771 -10.22717 -10.22572 -10.22526 -10.22478
 Alpha  occ. eigenvalues --  -10.22273 -10.22059 -10.22042 -10.22002 -10.21745
 Alpha  occ. eigenvalues --  -10.21639 -10.21530 -10.21427 -10.21353 -10.21318
 Alpha  occ. eigenvalues --  -10.21145  -3.15405  -1.88229  -1.87778  -1.87615
 Alpha  occ. eigenvalues --   -1.13479  -1.10197  -1.04859  -1.04548  -1.03448
 Alpha  occ. eigenvalues --   -1.01572  -1.00349  -0.99580  -0.99007  -0.97263
 Alpha  occ. eigenvalues --   -0.88180  -0.84658  -0.84227  -0.83781  -0.83420
 Alpha  occ. eigenvalues --   -0.83202  -0.82923  -0.82606  -0.81714  -0.81557
 Alpha  occ. eigenvalues --   -0.80767  -0.79927  -0.79053  -0.78574  -0.78132
 Alpha  occ. eigenvalues --   -0.77237  -0.76660  -0.75907  -0.75417  -0.74569
 Alpha  occ. eigenvalues --   -0.73964  -0.72717  -0.72391  -0.71835  -0.71206
 Alpha  occ. eigenvalues --   -0.69869  -0.69504  -0.69136  -0.68829  -0.68519
 Alpha  occ. eigenvalues --   -0.67687  -0.67080  -0.66630  -0.64834  -0.63671
 Alpha  occ. eigenvalues --   -0.63436  -0.62930  -0.61983  -0.61109  -0.60939
 Alpha  occ. eigenvalues --   -0.60321  -0.59791  -0.59609  -0.58899  -0.58486
 Alpha  occ. eigenvalues --   -0.57704  -0.57610  -0.57454  -0.55669  -0.55374
 Alpha  occ. eigenvalues --   -0.54690  -0.54042  -0.53279  -0.53131  -0.52939
 Alpha  occ. eigenvalues --   -0.52726  -0.51603  -0.51150  -0.50886  -0.50602
 Alpha  occ. eigenvalues --   -0.50115  -0.49806  -0.48974  -0.48777  -0.48701
 Alpha  occ. eigenvalues --   -0.48540  -0.48393  -0.48252  -0.47932  -0.47689
 Alpha  occ. eigenvalues --   -0.47587  -0.47184  -0.47164  -0.46833  -0.46606
 Alpha  occ. eigenvalues --   -0.46321  -0.46014  -0.45976  -0.45551  -0.45283
 Alpha  occ. eigenvalues --   -0.45014  -0.44952  -0.44762  -0.44722  -0.44490
 Alpha  occ. eigenvalues --   -0.44114  -0.43868  -0.43766  -0.43631  -0.43467
 Alpha  occ. eigenvalues --   -0.43284  -0.43165  -0.42915  -0.42208  -0.42062
 Alpha  occ. eigenvalues --   -0.42027  -0.41981  -0.41893  -0.41514  -0.41365
 Alpha  occ. eigenvalues --   -0.41245  -0.41200  -0.41051  -0.40970  -0.40693
 Alpha  occ. eigenvalues --   -0.40538  -0.40194  -0.40047  -0.39978  -0.39762
 Alpha  occ. eigenvalues --   -0.39644  -0.39496  -0.39271  -0.39147  -0.38861
 Alpha  occ. eigenvalues --   -0.38718  -0.38619  -0.38285  -0.38167  -0.37863
 Alpha  occ. eigenvalues --   -0.37653  -0.37476  -0.37400  -0.37326  -0.37046
 Alpha  occ. eigenvalues --   -0.36950  -0.36688  -0.36620  -0.36305  -0.35981
 Alpha  occ. eigenvalues --   -0.35741  -0.35515  -0.35257  -0.35173  -0.35082
 Alpha  occ. eigenvalues --   -0.34994  -0.34591  -0.34178  -0.34008  -0.33700
 Alpha  occ. eigenvalues --   -0.33247  -0.32960  -0.32721  -0.32234  -0.32155
 Alpha  occ. eigenvalues --   -0.32079  -0.31857  -0.31588  -0.31564  -0.30662
 Alpha  occ. eigenvalues --   -0.30386  -0.29937  -0.29855  -0.29466  -0.29422
 Alpha  occ. eigenvalues --   -0.29167  -0.28771  -0.28497  -0.27047  -0.26022
 Alpha  occ. eigenvalues --   -0.25950  -0.25543  -0.25121  -0.24913  -0.21477
 Alpha  occ. eigenvalues --   -0.19159
 Alpha virt. eigenvalues --   -0.11373  -0.05671  -0.04472  -0.02685  -0.02078
 Alpha virt. eigenvalues --   -0.00000   0.00783   0.01120   0.01388   0.02878
 Alpha virt. eigenvalues --    0.03417   0.04123   0.04868   0.05764   0.05880

 Mulliken charges:
               1
     1  Mg   0.965975
     2  C   -0.090789
     3  C   -0.066945
     4  C   -0.075377
     5  C   -0.101211
     6  N   -0.331245
     7  C    0.036514
     8  C   -0.057655
     9  C   -0.151710
    10  C    0.051781
    11  C    0.022311
    12  C    0.036877
    13  C   -0.104688
    14  C    0.258864
    15  O   -0.276984
    16  O   -0.364662
    17  N   -0.480004
    18  C    0.188180
    19  C   -0.162727
    20  C   -0.082155
    21  C    0.180002
    22  C    0.039370
    23  C    0.031187
    24  O   -0.248759
    25  C   -0.024313
    26  N   -0.375177
    27  C    0.057334
    28  C   -0.071431
    29  C   -0.138374
    30  C    0.102013
    31  C    0.002928
    32  C   -0.031745
    33  C   -0.063396
    34  N   -0.468958
    35  C    0.158988
    36  C   -0.207630
    37  C   -0.056903
    38  C    0.167924
    39  C    0.062946
    40  C    0.162365
    41  O   -0.208297
    42  C   -0.105688
    43  C    0.268951
    44  O   -0.252225
    45  O   -0.330368
    46  C    0.108207
    47  C    0.271134
    48  C   -0.122811
    49  C   -0.179347
    50  C   -0.010072
    51  C   -0.038482
    52  C   -0.043811
    53  C   -0.014439
    54  C   -0.213671
    55  C   -0.001307
    56  C   -0.009235
    57  C   -0.013460
    58  C    0.026869
    59  C   -0.238337
    60  C   -0.020314
    61  C    0.017650
    62  C   -0.051797
    63  C   -0.008216
    64  C   -0.271553
    65  C    0.001519
    66  C   -0.011430
    67  H   -0.000588
    68  H   -0.002337
    69  H    0.002983
    70  H    0.053267
    71  H    0.045404
    72  H    0.044673
    73  H    0.050866
    74  H    0.033219
    75  H    0.070599
    76  H    0.056983
    77  H    0.068547
    78  H    0.073187
    79  H    0.049589
    80  H    0.054852
    81  H    0.078013
    82  H    0.052636
    83  H    0.087431
    84  H    0.059152
    85  H    0.047822
    86  H    0.045855
    87  H    0.026562
    88  H    0.044314
    89  H    0.035850
    90  H    0.049764
    91  H    0.039181
    92  H    0.051665
    93  H    0.049031
    94  H    0.046829
    95  H    0.062946
    96  H    0.054428
    97  H    0.032206
    98  H    0.086097
    99  H    0.054252
   100  H    0.052892
   101  H    0.085529
   102  H    0.039609
   103  H    0.053504
   104  H    0.016563
   105  H    0.045518
   106  H    0.053151
   107  H    0.036180
   108  H    0.036834
   109  H    0.029884
   110  H    0.045403
   111  H    0.048532
   112  H    0.012096
   113  H    0.030982
   114  H    0.033083
   115  H    0.025679
   116  H    0.042648
   117  H    0.023660
   118  H    0.010005
   119  H    0.020589
   120  H    0.028711
   121  H    0.029272
   122  H    0.034168
   123  H    0.016565
   124  H    0.025410
   125  H    0.027784
   126  H    0.033416
   127  H    0.029780
   128  H    0.029689
   129  H    0.032373
   130  H    0.017157
   131  H    0.020627
   132  H    0.029386
   133  H    0.006188
   134  H    0.036773
   135  H    0.029181
   136  H    0.032674
   137  H    0.039142
   138  H    0.037877
   139  H    0.039397
   140  H    0.034618
 Sum of Mulliken charges =  -0.00000

 Dipole moment (field-independent basis, Debye):
    X=             -0.1009    Y=              7.0180    Z=             -0.2430  Tot=              7.0229
 Quadrupole moment (field-independent basis, Debye-Ang):
   XX=           -400.3610   YY=           -421.3698   ZZ=           -395.4201
   XY=            -48.3767   XZ=            -30.3405   YZ=            -29.5557

 Normal termination of Gaussian 16 at Wed Apr 27 12:02:55 2022.
