 Gaussian 16, Revision A.03,
 Gaussian 16:  ES64L-G16RevA.03 25-Dec-2016

 --------------------------------
 #p wB97XD/Def2SVP td=(nstates=5)
 --------------------------------

 -----------------------------------------------------
 step_1151_chromophore_26 TDDFT with wB97XD functional
 -----------------------------------------------------
 Symbolic Z-matrix:
 Charge =  0 Multiplicity = 1

                         Standard orientation:
 ---------------------------------------------------------------------
 Center     Atomic      Atomic             Coordinates (Angstroms)
 Number     Number       Type             X           Y           Z
 ---------------------------------------------------------------------
      1         12           0       -4.100058    1.450090    0.728349
      2          6           0       -5.449689   -1.781355    0.080425
      3          6           0       -2.050330   -0.051962    3.132858
      4          6           0       -2.267133    4.265515    0.883485
      5          6           0       -5.476547    2.567089   -2.217227
      6          7           0       -3.850848   -0.651377    1.573600
      7          6           0       -4.521427   -1.763194    1.186265
      8          6           0       -3.987197   -3.006946    1.949192
      9          6           0       -3.127177   -2.358950    3.100149
     10          6           0       -2.955827   -0.927992    2.531720
     11          6           0       -3.765486   -2.365453    4.468059
     12          6           0       -3.316602   -4.116705    1.059443
     13          6           0       -2.132940   -3.614697    0.159244
     14          6           0       -1.129179   -4.659306   -0.417924
     15          8           0       -1.167831   -5.897851   -0.402086
     16          8           0       -0.110121   -3.963629   -1.042312
     17          7           0       -2.414975    2.001803    1.932853
     18          6           0       -1.788313    1.260229    2.903048
     19          6           0       -0.789335    2.091473    3.510944
     20          6           0       -0.967924    3.442176    3.021400
     21          6           0       -1.917211    3.281969    1.872922
     22          6           0       -0.011680    1.606447    4.664182
     23          6           0       -0.315130    4.704361    3.504913
     24          8           0        0.525060    4.600418    4.398480
     25          6           0       -0.547197    6.100346    2.866966
     26          7           0       -3.797602    3.124368   -0.562294
     27          6           0       -3.003064    4.127927   -0.302680
     28          6           0       -3.216550    5.358849   -1.290504
     29          6           0       -4.140756    4.692548   -2.354997
     30          6           0       -4.506208    3.375719   -1.711225
     31          6           0       -3.860263    6.609717   -0.721009
     32          6           0       -3.433709    4.471713   -3.797509
     33          6           0       -4.140274    5.266491   -4.889034
     34          7           0       -5.315040    0.649869   -0.743654
     35          6           0       -5.828787    1.286628   -1.818413
     36          6           0       -6.822533    0.362008   -2.356170
     37          6           0       -6.689340   -0.874948   -1.678718
     38          6           0       -5.690487   -0.627047   -0.748344
     39          6           0       -7.822884    0.665742   -3.351453
     40          6           0       -7.205757   -2.232810   -1.557229
     41          8           0       -8.007630   -2.866909   -2.225229
     42          6           0       -6.231680   -2.883644   -0.531612
     43          6           0       -7.132775   -3.524980    0.446799
     44          8           0       -6.937869   -4.663271    0.837152
     45          8           0       -8.074623   -2.685341    0.878611
     46          6           0       -8.830091   -3.156206    1.998995
     47          6           0        0.899224   -4.751205   -1.732191
     48          6           0        2.176308   -3.951852   -1.943005
     49          6           0        2.579555   -2.886701   -2.657015
     50          6           0        1.686397   -2.207052   -3.734825
     51          6           0        3.992994   -2.367224   -2.854785
     52          6           0        4.449366   -1.352922   -1.696070
     53          6           0        5.978335   -1.009623   -1.872844
     54          6           0        6.350753    0.432417   -1.332729
     55          6           0        5.920751    1.567572   -2.220816
     56          6           0        7.849361    0.499925   -1.018272
     57          6           0        8.143157    0.110931    0.470733
     58          6           0        8.821532   -1.179565    0.599254
     59          6           0       10.263971   -1.106477    1.226913
     60          6           0       10.502296   -2.020607    2.471735
     61          6           0       11.341266   -1.227783    0.202232
     62          6           0       12.729051   -0.940798    0.762793
     63          6           0       13.272313    0.472931    0.560297
     64          6           0       14.068904    0.571192   -0.756689
     65          6           0       15.531873    0.571577   -0.346127
     66          6           0       13.739083    1.816950   -1.645438
     67          1           0       -1.618254   -0.473061    4.042642
     68          1           0       -1.693709    5.194478    0.858544
     69          1           0       -6.142705    2.986728   -2.974352
     70          1           0       -4.885227   -3.460807    2.368939
     71          1           0       -2.170433   -2.850967    3.274753
     72          1           0       -3.051352   -2.621565    5.251054
     73          1           0       -4.713038   -2.898746    4.549382
     74          1           0       -4.008020   -1.332226    4.716359
     75          1           0       -4.041800   -4.559986    0.377280
     76          1           0       -2.810486   -4.822175    1.719285
     77          1           0       -1.550027   -2.886194    0.722390
     78          1           0       -2.492777   -3.031637   -0.687862
     79          1           0        0.614947    0.858272    4.179730
     80          1           0       -0.561069    1.062254    5.431879
     81          1           0        0.474875    2.501176    5.055095
     82          1           0       -1.630110    6.201399    2.785996
     83          1           0       -0.099164    6.213676    1.879564
     84          1           0       -0.210068    6.817523    3.615493
     85          1           0       -2.252570    5.603002   -1.738362
     86          1           0       -5.043011    5.268337   -2.562576
     87          1           0       -4.021527    6.531744    0.353292
     88          1           0       -4.854369    6.929602   -1.035370
     89          1           0       -3.272966    7.527414   -0.682684
     90          1           0       -3.555789    3.417767   -4.048716
     91          1           0       -2.377119    4.693718   -3.649194
     92          1           0       -3.332827    5.781428   -5.410593
     93          1           0       -4.949747    5.909308   -4.543538
     94          1           0       -4.540310    4.456170   -5.497258
     95          1           0       -8.754470    0.153800   -3.111387
     96          1           0       -7.479414    0.229643   -4.289572
     97          1           0       -8.019182    1.712641   -3.579465
     98          1           0       -5.540894   -3.593609   -0.987559
     99          1           0       -9.827267   -2.984877    1.594349
    100          1           0       -8.798700   -2.470756    2.845414
    101          1           0       -8.714864   -4.200177    2.289264
    102          1           0        0.474483   -5.043467   -2.691849
    103          1           0        1.051486   -5.724327   -1.264207
    104          1           0        3.031469   -4.291011   -1.356753
    105          1           0        0.687336   -2.624921   -3.610968
    106          1           0        2.056423   -2.291201   -4.756724
    107          1           0        1.694980   -1.130635   -3.567948
    108          1           0        4.198052   -1.953232   -3.842232
    109          1           0        4.721927   -3.170475   -2.750041
    110          1           0        4.449749   -1.982546   -0.806140
    111          1           0        3.697099   -0.564364   -1.698988
    112          1           0        6.231465   -1.027056   -2.933763
    113          1           0        6.678340   -1.772837   -1.533355
    114          1           0        5.738118    0.606713   -0.448526
    115          1           0        6.685539    1.921135   -2.912168
    116          1           0        5.656698    2.377099   -1.539830
    117          1           0        5.122749    1.250379   -2.891922
    118          1           0        8.182490    1.509653   -1.258089
    119          1           0        8.411378   -0.048044   -1.774989
    120          1           0        7.223952    0.025728    1.050456
    121          1           0        8.714774    0.918964    0.929222
    122          1           0        9.016112   -1.661726   -0.358201
    123          1           0        8.166954   -1.732408    1.272207
    124          1           0       10.378306   -0.138206    1.714142
    125          1           0       11.212842   -2.780529    2.147423
    126          1           0        9.600350   -2.402913    2.950495
    127          1           0       11.028782   -1.511572    3.278715
    128          1           0       11.096523   -0.458983   -0.529966
    129          1           0       11.343424   -2.251318   -0.174888
    130          1           0       13.413429   -1.586313    0.212071
    131          1           0       12.908674   -1.206282    1.805264
    132          1           0       13.781699    0.786128    1.472007
    133          1           0       12.460826    1.172210    0.358565
    134          1           0       13.879941   -0.355954   -1.298060
    135          1           0       15.960984    1.567803   -0.447903
    136          1           0       15.961751   -0.076181   -1.110351
    137          1           0       15.654134    0.249211    0.687287
    138          1           0       14.277626    2.698331   -1.298570
    139          1           0       12.654682    1.924286   -1.652649
    140          1           0       14.101894    1.659886   -2.662316
 ---------------------------------------------------------------------

 SCF Done:  E(RwB97XD) =  -3007.84708945     A.U. after   17 cycles

 Excitation energies and oscillator strengths:

 Excited State   1:      Singlet-A      1.7096 eV  725.22 nm  f=0.3681  <S**2>=0.000
     245 -> 248       -0.19183
     246 -> 247        0.68150
     245 <- 248       -0.11703
 This state for optimization and/or second-order correction.
 Total Energy, E(TD-HF/TD-DFT) =  -3007.78426267
 Copying the excited state density for this state as the 1-particle RhoCI density.

 Excited State   2:      Singlet-A      2.2365 eV  554.37 nm  f=0.0825  <S**2>=0.000
     245 -> 247        0.62343
     246 -> 248        0.31525

 Excited State   3:      Singlet-A      3.2441 eV  382.18 nm  f=0.0033  <S**2>=0.000
     243 -> 247        0.62670
     243 -> 249        0.12417
     244 -> 247       -0.18524
     246 -> 248       -0.15753

 Excited State   4:      Singlet-A      3.4531 eV  359.05 nm  f=0.0007  <S**2>=0.000
     240 -> 247        0.13596
     243 -> 247        0.12810
     244 -> 247        0.62514
     244 -> 249       -0.12250

 Excited State   5:      Singlet-A      3.5166 eV  352.57 nm  f=0.0762  <S**2>=0.000
     240 -> 247        0.48566
     240 -> 249        0.30756
     240 -> 250        0.17450
     244 -> 247       -0.10759
     246 -> 248        0.25333

 The electronic state is 1-A.
 Alpha  occ. eigenvalues --  -46.96370 -19.31443 -19.29571 -19.24774 -19.24284
 Alpha  occ. eigenvalues --  -19.24226 -19.24144 -14.47496 -14.47013 -14.44488
 Alpha  occ. eigenvalues --  -14.43869 -10.43480 -10.42941 -10.39622 -10.39136
 Alpha  occ. eigenvalues --  -10.35860 -10.35779 -10.35681 -10.35593 -10.35477
 Alpha  occ. eigenvalues --  -10.35444 -10.34518 -10.33750 -10.33268 -10.33020
 Alpha  occ. eigenvalues --  -10.32949 -10.32911 -10.32594 -10.32353 -10.32269
 Alpha  occ. eigenvalues --  -10.31931 -10.31907 -10.31819 -10.31557 -10.31541
 Alpha  occ. eigenvalues --  -10.31473 -10.31261 -10.31132 -10.31032 -10.30794
 Alpha  occ. eigenvalues --  -10.30669 -10.30545 -10.30433 -10.30079 -10.29959
 Alpha  occ. eigenvalues --  -10.29789 -10.29678 -10.29666 -10.29233 -10.29195
 Alpha  occ. eigenvalues --  -10.29172 -10.29068 -10.28998 -10.28989 -10.28575
 Alpha  occ. eigenvalues --  -10.28574 -10.28492 -10.28444 -10.28369 -10.28123
 Alpha  occ. eigenvalues --  -10.28033 -10.27885 -10.27885 -10.27768 -10.27741
 Alpha  occ. eigenvalues --  -10.27575  -3.22259  -1.95828  -1.95377  -1.95213
 Alpha  occ. eigenvalues --   -1.20827  -1.17574  -1.12251  -1.12190  -1.10765
 Alpha  occ. eigenvalues --   -1.08910  -1.07634  -1.06906  -1.06305  -1.04873
 Alpha  occ. eigenvalues --   -0.95695  -0.92335  -0.91807  -0.91461  -0.91063
 Alpha  occ. eigenvalues --   -0.90862  -0.90585  -0.90189  -0.89380  -0.89056
 Alpha  occ. eigenvalues --   -0.88535  -0.87643  -0.86611  -0.86241  -0.85787
 Alpha  occ. eigenvalues --   -0.84861  -0.84385  -0.83548  -0.83170  -0.82209
 Alpha  occ. eigenvalues --   -0.81628  -0.80256  -0.80006  -0.79584  -0.78812
 Alpha  occ. eigenvalues --   -0.77491  -0.77214  -0.76823  -0.76522  -0.76190
 Alpha  occ. eigenvalues --   -0.75283  -0.74585  -0.74160  -0.72473  -0.71108
 Alpha  occ. eigenvalues --   -0.70932  -0.70597  -0.69687  -0.68771  -0.68414
 Alpha  occ. eigenvalues --   -0.67771  -0.67298  -0.67068  -0.66550  -0.65878
 Alpha  occ. eigenvalues --   -0.65377  -0.65288  -0.64905  -0.63314  -0.62777
 Alpha  occ. eigenvalues --   -0.62057  -0.61459  -0.60748  -0.60543  -0.60407
 Alpha  occ. eigenvalues --   -0.60226  -0.59121  -0.58563  -0.58279  -0.58015
 Alpha  occ. eigenvalues --   -0.57458  -0.57302  -0.56479  -0.56192  -0.56094
 Alpha  occ. eigenvalues --   -0.55983  -0.55661  -0.55540  -0.55212  -0.55104
 Alpha  occ. eigenvalues --   -0.54996  -0.54597  -0.54530  -0.54308  -0.53981
 Alpha  occ. eigenvalues --   -0.53920  -0.53418  -0.53197  -0.52932  -0.52700
 Alpha  occ. eigenvalues --   -0.52372  -0.52333  -0.52183  -0.52067  -0.51773
 Alpha  occ. eigenvalues --   -0.51400  -0.51232  -0.51149  -0.50987  -0.50812
 Alpha  occ. eigenvalues --   -0.50540  -0.50364  -0.50216  -0.49462  -0.49410
 Alpha  occ. eigenvalues --   -0.49280  -0.49142  -0.49138  -0.48717  -0.48593
 Alpha  occ. eigenvalues --   -0.48503  -0.48433  -0.48295  -0.48168  -0.47857
 Alpha  occ. eigenvalues --   -0.47696  -0.47407  -0.47286  -0.47253  -0.46921
 Alpha  occ. eigenvalues --   -0.46787  -0.46755  -0.46446  -0.46293  -0.46067
 Alpha  occ. eigenvalues --   -0.45873  -0.45820  -0.45383  -0.45279  -0.45013
 Alpha  occ. eigenvalues --   -0.44865  -0.44796  -0.44563  -0.44445  -0.44099
 Alpha  occ. eigenvalues --   -0.44006  -0.43833  -0.43711  -0.43419  -0.43053
 Alpha  occ. eigenvalues --   -0.42849  -0.42560  -0.42297  -0.42236  -0.42093
 Alpha  occ. eigenvalues --   -0.42048  -0.41669  -0.41159  -0.41089  -0.40645
 Alpha  occ. eigenvalues --   -0.40310  -0.40010  -0.39689  -0.39262  -0.39160
 Alpha  occ. eigenvalues --   -0.39084  -0.38783  -0.38613  -0.38566  -0.37717
 Alpha  occ. eigenvalues --   -0.37434  -0.36824  -0.36732  -0.36424  -0.36228
 Alpha  occ. eigenvalues --   -0.36109  -0.35866  -0.35395  -0.33598  -0.33318
 Alpha  occ. eigenvalues --   -0.32857  -0.32253  -0.31831  -0.31467  -0.26498
 Alpha  occ. eigenvalues --   -0.23355
 Alpha virt. eigenvalues --   -0.07188  -0.00318   0.01775   0.03792   0.03952
 Alpha virt. eigenvalues --    0.06681   0.07606   0.07960   0.08251   0.09411
 Alpha virt. eigenvalues --    0.09975   0.10727   0.11565   0.12455   0.12502

 Mulliken charges:
               1
     1  Mg   0.959719
     2  C   -0.089522
     3  C   -0.083972
     4  C   -0.088594
     5  C   -0.118798
     6  N   -0.292481
     7  C   -0.009557
     8  C   -0.028988
     9  C   -0.129716
    10  C    0.040749
    11  C    0.028236
    12  C    0.051686
    13  C   -0.085651
    14  C    0.250093
    15  O   -0.274239
    16  O   -0.364094
    17  N   -0.449580
    18  C    0.181436
    19  C   -0.150537
    20  C   -0.075922
    21  C    0.179023
    22  C    0.052216
    23  C    0.025073
    24  O   -0.243593
    25  C   -0.007247
    26  N   -0.342670
    27  C    0.041945
    28  C   -0.045128
    29  C   -0.111963
    30  C    0.091601
    31  C    0.011128
    32  C   -0.018290
    33  C   -0.047207
    34  N   -0.427840
    35  C    0.144413
    36  C   -0.199310
    37  C   -0.055590
    38  C    0.144761
    39  C    0.070000
    40  C    0.144504
    41  O   -0.199814
    42  C   -0.059954
    43  C    0.243529
    44  O   -0.245486
    45  O   -0.330276
    46  C    0.122725
    47  C    0.284114
    48  C   -0.129827
    49  C   -0.169814
    50  C    0.005736
    51  C   -0.018810
    52  C   -0.026468
    53  C    0.000203
    54  C   -0.182272
    55  C    0.009393
    56  C    0.005939
    57  C    0.001989
    58  C    0.043001
    59  C   -0.208774
    60  C   -0.008690
    61  C    0.039702
    62  C   -0.034347
    63  C    0.008388
    64  C   -0.242323
    65  C    0.011499
    66  C    0.004079
    67  H   -0.006260
    68  H   -0.015232
    69  H   -0.003969
    70  H    0.040109
    71  H    0.037161
    72  H    0.040292
    73  H    0.047341
    74  H    0.025078
    75  H    0.061365
    76  H    0.049450
    77  H    0.057375
    78  H    0.065555
    79  H    0.044151
    80  H    0.051571
    81  H    0.075004
    82  H    0.045002
    83  H    0.084490
    84  H    0.058433
    85  H    0.038577
    86  H    0.031006
    87  H    0.018318
    88  H    0.040242
    89  H    0.030903
    90  H    0.040416
    91  H    0.030387
    92  H    0.045890
    93  H    0.043109
    94  H    0.040974
    95  H    0.057659
    96  H    0.047572
    97  H    0.026243
    98  H    0.079618
    99  H    0.050029
   100  H    0.048676
   101  H    0.082602
   102  H    0.034959
   103  H    0.050268
   104  H    0.011357
   105  H    0.039832
   106  H    0.047335
   107  H    0.029052
   108  H    0.029198
   109  H    0.020951
   110  H    0.035228
   111  H    0.040140
   112  H    0.000832
   113  H    0.021260
   114  H    0.019190
   115  H    0.019485
   116  H    0.037412
   117  H    0.016847
   118  H    0.001923
   119  H    0.010668
   120  H    0.020692
   121  H    0.021424
   122  H    0.021373
   123  H    0.009025
   124  H    0.008690
   125  H    0.019463
   126  H    0.028487
   127  H    0.023782
   128  H    0.015059
   129  H    0.024398
   130  H    0.006397
   131  H    0.012498
   132  H    0.022286
   133  H   -0.007320
   134  H    0.024028
   135  H    0.022713
   136  H    0.027207
   137  H    0.032712
   138  H    0.031013
   139  H    0.032438
   140  H    0.029029
 Sum of Mulliken charges =  -0.00000

 Dipole moment (field-independent basis, Debye):
    X=              0.3063    Y=              7.2453    Z=              0.3014  Tot=              7.2580
 Quadrupole moment (field-independent basis, Debye-Ang):
   XX=           -402.9021   YY=           -420.6195   ZZ=           -394.5279
   XY=            -48.1331   XZ=            -32.1878   YZ=            -28.1252

 Normal termination of Gaussian 16 at Wed Apr 27 12:29:21 2022.
