 Gaussian 16, Revision A.03,
 Gaussian 16:  ES64L-G16RevA.03 25-Dec-2016

 --------------------
 #p ZINDO=(nstates=5)
 --------------------

 ------------------------------
 step_1151_chromophore_26 ZINDO
 ------------------------------
 Symbolic Z-matrix:
 Charge =  0 Multiplicity = 1

                         Standard orientation:
 ---------------------------------------------------------------------
 Center     Atomic      Atomic             Coordinates (Angstroms)
 Number     Number       Type             X           Y           Z
 ---------------------------------------------------------------------
      1         12           0       -4.100058    1.450090    0.728349
      2          6           0       -5.449689   -1.781355    0.080425
      3          6           0       -2.050330   -0.051962    3.132858
      4          6           0       -2.267133    4.265515    0.883485
      5          6           0       -5.476547    2.567089   -2.217227
      6          7           0       -3.850848   -0.651377    1.573600
      7          6           0       -4.521427   -1.763194    1.186265
      8          6           0       -3.987197   -3.006946    1.949192
      9          6           0       -3.127177   -2.358950    3.100149
     10          6           0       -2.955827   -0.927992    2.531720
     11          6           0       -3.765486   -2.365453    4.468059
     12          6           0       -3.316602   -4.116705    1.059443
     13          6           0       -2.132940   -3.614697    0.159244
     14          6           0       -1.129179   -4.659306   -0.417924
     15          8           0       -1.167831   -5.897851   -0.402086
     16          8           0       -0.110121   -3.963629   -1.042312
     17          7           0       -2.414975    2.001803    1.932853
     18          6           0       -1.788313    1.260229    2.903048
     19          6           0       -0.789335    2.091473    3.510944
     20          6           0       -0.967924    3.442176    3.021400
     21          6           0       -1.917211    3.281969    1.872922
     22          6           0       -0.011680    1.606447    4.664182
     23          6           0       -0.315130    4.704361    3.504913
     24          8           0        0.525060    4.600418    4.398480
     25          6           0       -0.547197    6.100346    2.866966
     26          7           0       -3.797602    3.124368   -0.562294
     27          6           0       -3.003064    4.127927   -0.302680
     28          6           0       -3.216550    5.358849   -1.290504
     29          6           0       -4.140756    4.692548   -2.354997
     30          6           0       -4.506208    3.375719   -1.711225
     31          6           0       -3.860263    6.609717   -0.721009
     32          6           0       -3.433709    4.471713   -3.797509
     33          6           0       -4.140274    5.266491   -4.889034
     34          7           0       -5.315040    0.649869   -0.743654
     35          6           0       -5.828787    1.286628   -1.818413
     36          6           0       -6.822533    0.362008   -2.356170
     37          6           0       -6.689340   -0.874948   -1.678718
     38          6           0       -5.690487   -0.627047   -0.748344
     39          6           0       -7.822884    0.665742   -3.351453
     40          6           0       -7.205757   -2.232810   -1.557229
     41          8           0       -8.007630   -2.866909   -2.225229
     42          6           0       -6.231680   -2.883644   -0.531612
     43          6           0       -7.132775   -3.524980    0.446799
     44          8           0       -6.937869   -4.663271    0.837152
     45          8           0       -8.074623   -2.685341    0.878611
     46          6           0       -8.830091   -3.156206    1.998995
     47          6           0        0.899224   -4.751205   -1.732191
     48          6           0        2.176308   -3.951852   -1.943005
     49          6           0        2.579555   -2.886701   -2.657015
     50          6           0        1.686397   -2.207052   -3.734825
     51          6           0        3.992994   -2.367224   -2.854785
     52          6           0        4.449366   -1.352922   -1.696070
     53          6           0        5.978335   -1.009623   -1.872844
     54          6           0        6.350753    0.432417   -1.332729
     55          6           0        5.920751    1.567572   -2.220816
     56          6           0        7.849361    0.499925   -1.018272
     57          6           0        8.143157    0.110931    0.470733
     58          6           0        8.821532   -1.179565    0.599254
     59          6           0       10.263971   -1.106477    1.226913
     60          6           0       10.502296   -2.020607    2.471735
     61          6           0       11.341266   -1.227783    0.202232
     62          6           0       12.729051   -0.940798    0.762793
     63          6           0       13.272313    0.472931    0.560297
     64          6           0       14.068904    0.571192   -0.756689
     65          6           0       15.531873    0.571577   -0.346127
     66          6           0       13.739083    1.816950   -1.645438
     67          1           0       -1.618254   -0.473061    4.042642
     68          1           0       -1.693709    5.194478    0.858544
     69          1           0       -6.142705    2.986728   -2.974352
     70          1           0       -4.885227   -3.460807    2.368939
     71          1           0       -2.170433   -2.850967    3.274753
     72          1           0       -3.051352   -2.621565    5.251054
     73          1           0       -4.713038   -2.898746    4.549382
     74          1           0       -4.008020   -1.332226    4.716359
     75          1           0       -4.041800   -4.559986    0.377280
     76          1           0       -2.810486   -4.822175    1.719285
     77          1           0       -1.550027   -2.886194    0.722390
     78          1           0       -2.492777   -3.031637   -0.687862
     79          1           0        0.614947    0.858272    4.179730
     80          1           0       -0.561069    1.062254    5.431879
     81          1           0        0.474875    2.501176    5.055095
     82          1           0       -1.630110    6.201399    2.785996
     83          1           0       -0.099164    6.213676    1.879564
     84          1           0       -0.210068    6.817523    3.615493
     85          1           0       -2.252570    5.603002   -1.738362
     86          1           0       -5.043011    5.268337   -2.562576
     87          1           0       -4.021527    6.531744    0.353292
     88          1           0       -4.854369    6.929602   -1.035370
     89          1           0       -3.272966    7.527414   -0.682684
     90          1           0       -3.555789    3.417767   -4.048716
     91          1           0       -2.377119    4.693718   -3.649194
     92          1           0       -3.332827    5.781428   -5.410593
     93          1           0       -4.949747    5.909308   -4.543538
     94          1           0       -4.540310    4.456170   -5.497258
     95          1           0       -8.754470    0.153800   -3.111387
     96          1           0       -7.479414    0.229643   -4.289572
     97          1           0       -8.019182    1.712641   -3.579465
     98          1           0       -5.540894   -3.593609   -0.987559
     99          1           0       -9.827267   -2.984877    1.594349
    100          1           0       -8.798700   -2.470756    2.845414
    101          1           0       -8.714864   -4.200177    2.289264
    102          1           0        0.474483   -5.043467   -2.691849
    103          1           0        1.051486   -5.724327   -1.264207
    104          1           0        3.031469   -4.291011   -1.356753
    105          1           0        0.687336   -2.624921   -3.610968
    106          1           0        2.056423   -2.291201   -4.756724
    107          1           0        1.694980   -1.130635   -3.567948
    108          1           0        4.198052   -1.953232   -3.842232
    109          1           0        4.721927   -3.170475   -2.750041
    110          1           0        4.449749   -1.982546   -0.806140
    111          1           0        3.697099   -0.564364   -1.698988
    112          1           0        6.231465   -1.027056   -2.933763
    113          1           0        6.678340   -1.772837   -1.533355
    114          1           0        5.738118    0.606713   -0.448526
    115          1           0        6.685539    1.921135   -2.912168
    116          1           0        5.656698    2.377099   -1.539830
    117          1           0        5.122749    1.250379   -2.891922
    118          1           0        8.182490    1.509653   -1.258089
    119          1           0        8.411378   -0.048044   -1.774989
    120          1           0        7.223952    0.025728    1.050456
    121          1           0        8.714774    0.918964    0.929222
    122          1           0        9.016112   -1.661726   -0.358201
    123          1           0        8.166954   -1.732408    1.272207
    124          1           0       10.378306   -0.138206    1.714142
    125          1           0       11.212842   -2.780529    2.147423
    126          1           0        9.600350   -2.402913    2.950495
    127          1           0       11.028782   -1.511572    3.278715
    128          1           0       11.096523   -0.458983   -0.529966
    129          1           0       11.343424   -2.251318   -0.174888
    130          1           0       13.413429   -1.586313    0.212071
    131          1           0       12.908674   -1.206282    1.805264
    132          1           0       13.781699    0.786128    1.472007
    133          1           0       12.460826    1.172210    0.358565
    134          1           0       13.879941   -0.355954   -1.298060
    135          1           0       15.960984    1.567803   -0.447903
    136          1           0       15.961751   -0.076181   -1.110351
    137          1           0       15.654134    0.249211    0.687287
    138          1           0       14.277626    2.698331   -1.298570
    139          1           0       12.654682    1.924286   -1.652649
    140          1           0       14.101894    1.659886   -2.662316
 ---------------------------------------------------------------------

 SCF Done:  E(RZINDO/S) =  -474.597192357     A.U. after   19 cycles

 Excitation energies and oscillator strengths:

 Excited State   1:      Singlet-A      1.3168 eV  941.56 nm  f=0.5632  <S**2>=0.000
     175 ->178         0.18595
     176 ->177         0.66505
 This state for optimization and/or second-order correction.
 Total Energy, E(CIS/TDA) =  -474.548800981
 Copying the excited state density for this state as the 1-particle RhoCI density.

 Excited State   2:      Singlet-A      1.9384 eV  639.64 nm  f=0.0192  <S**2>=0.000
     175 ->177         0.51820
     176 ->178        -0.45333

 Excited State   3:      Singlet-A      2.8368 eV  437.06 nm  f=0.0012  <S**2>=0.000
     167 ->179         0.10222
     168 ->177         0.27994
     168 ->179        -0.38314
     168 ->181        -0.24023
     168 ->185        -0.19646
     168 ->187        -0.10247
     169 ->179         0.10920
     171 ->177         0.20472
     171 ->179        -0.13556

 Excited State   4:      Singlet-A      2.8867 eV  429.50 nm  f=0.0955  <S**2>=0.000
     175 ->177         0.14392
     176 ->178         0.19506
     176 ->179        -0.16643
     176 ->180         0.62875

 Excited State   5:      Singlet-A      3.0000 eV  413.28 nm  f=0.0411  <S**2>=0.000
     166 ->181         0.10744
     170 ->177         0.22482
     170 ->178        -0.12040
     170 ->179         0.24997
     170 ->181        -0.33739
     170 ->185         0.16256
     170 ->187        -0.11421
     170 ->200         0.10066
     174 ->177         0.15794
     176 ->179         0.23837
     176 ->180         0.13898
     176 ->181        -0.11526

 The electronic state is 1-A.
 Alpha  occ. eigenvalues --   -1.86573  -1.81992  -1.81437  -1.76460  -1.72617
 Alpha  occ. eigenvalues --   -1.71211  -1.67720  -1.62039  -1.59338  -1.59034
 Alpha  occ. eigenvalues --   -1.55713  -1.51326  -1.49098  -1.48449  -1.47203
 Alpha  occ. eigenvalues --   -1.46243  -1.42407  -1.41586  -1.40659  -1.39414
 Alpha  occ. eigenvalues --   -1.37580  -1.35098  -1.32726  -1.31697  -1.30534
 Alpha  occ. eigenvalues --   -1.28190  -1.27025  -1.23093  -1.22017  -1.18237
 Alpha  occ. eigenvalues --   -1.16679  -1.15923  -1.14978  -1.13339  -1.13035
 Alpha  occ. eigenvalues --   -1.12187  -1.11265  -1.10059  -1.06205  -1.04323
 Alpha  occ. eigenvalues --   -1.03208  -1.01258  -1.00096  -0.98819  -0.97750
 Alpha  occ. eigenvalues --   -0.95769  -0.95058  -0.94362  -0.92909  -0.91821
 Alpha  occ. eigenvalues --   -0.91613  -0.90340  -0.89328  -0.88966  -0.86409
 Alpha  occ. eigenvalues --   -0.85803  -0.84636  -0.83853  -0.82928  -0.81567
 Alpha  occ. eigenvalues --   -0.79181  -0.78767  -0.78008  -0.77655  -0.77294
 Alpha  occ. eigenvalues --   -0.76953  -0.75796  -0.75016  -0.74388  -0.73690
 Alpha  occ. eigenvalues --   -0.73225  -0.73059  -0.72142  -0.71508  -0.71198
 Alpha  occ. eigenvalues --   -0.70493  -0.69980  -0.69349  -0.68531  -0.68216
 Alpha  occ. eigenvalues --   -0.68018  -0.67192  -0.66837  -0.65866  -0.65770
 Alpha  occ. eigenvalues --   -0.65495  -0.65167  -0.64976  -0.64232  -0.63952
 Alpha  occ. eigenvalues --   -0.63478  -0.63118  -0.62678  -0.62336  -0.62132
 Alpha  occ. eigenvalues --   -0.61944  -0.61536  -0.61210  -0.60778  -0.60306
 Alpha  occ. eigenvalues --   -0.59604  -0.59278  -0.59057  -0.58333  -0.57917
 Alpha  occ. eigenvalues --   -0.57655  -0.57371  -0.57099  -0.56869  -0.56497
 Alpha  occ. eigenvalues --   -0.56043  -0.55584  -0.55349  -0.55166  -0.54888
 Alpha  occ. eigenvalues --   -0.54844  -0.54276  -0.53976  -0.53359  -0.53105
 Alpha  occ. eigenvalues --   -0.52674  -0.52217  -0.52033  -0.51963  -0.51949
 Alpha  occ. eigenvalues --   -0.51243  -0.51070  -0.50849  -0.50678  -0.50338
 Alpha  occ. eigenvalues --   -0.50245  -0.49724  -0.49472  -0.49358  -0.49176
 Alpha  occ. eigenvalues --   -0.48912  -0.48877  -0.48395  -0.48308  -0.48171
 Alpha  occ. eigenvalues --   -0.47625  -0.47502  -0.47070  -0.46937  -0.46524
 Alpha  occ. eigenvalues --   -0.46364  -0.46083  -0.45983  -0.45612  -0.45498
 Alpha  occ. eigenvalues --   -0.45336  -0.44862  -0.44503  -0.44095  -0.43818
 Alpha  occ. eigenvalues --   -0.43369  -0.43075  -0.42659  -0.41954  -0.41742
 Alpha  occ. eigenvalues --   -0.41484  -0.41128  -0.40804  -0.39512  -0.39177
 Alpha  occ. eigenvalues --   -0.38006  -0.37066  -0.36146  -0.35639  -0.34759
 Alpha  occ. eigenvalues --   -0.33463  -0.33093  -0.32958  -0.31551  -0.27228
 Alpha  occ. eigenvalues --   -0.22315
 Alpha virt. eigenvalues --   -0.08703  -0.02837  -0.01188  -0.00036   0.00890
 Alpha virt. eigenvalues --    0.01688   0.02359   0.03080   0.04076   0.04368
 Alpha virt. eigenvalues --    0.05497   0.06426   0.07456   0.07602   0.07911

 Mulliken charges:
               1
     1  Mg   0.433152
     2  C   -0.039214
     3  C   -0.067922
     4  C   -0.113169
     5  C   -0.057707
     6  N   -0.265230
     7  C    0.083180
     8  C    0.000542
     9  C    0.006518
    10  C    0.156877
    11  C   -0.047300
    12  C   -0.019983
    13  C    0.002823
    14  C    0.461011
    15  O   -0.511284
    16  O   -0.270977
    17  N   -0.342329
    18  C    0.130149
    19  C    0.061884
    20  C   -0.052376
    21  C    0.145279
    22  C   -0.045452
    23  C    0.323573
    24  O   -0.521483
    25  C   -0.028147
    26  N   -0.260513
    27  C    0.160396
    28  C    0.011228
    29  C   -0.011813
    30  C    0.098702
    31  C   -0.054102
    32  C   -0.037904
    33  C   -0.059820
    34  N   -0.308617
    35  C    0.072973
    36  C    0.021251
    37  C   -0.073228
    38  C    0.091012
    39  C   -0.037875
    40  C    0.334631
    41  O   -0.516500
    42  C    0.063987
    43  C    0.495302
    44  O   -0.546075
    45  O   -0.245431
    46  C    0.071333
    47  C    0.118062
    48  C   -0.076031
    49  C   -0.002098
    50  C   -0.054078
    51  C   -0.027638
    52  C   -0.038876
    53  C   -0.040432
    54  C   -0.011225
    55  C   -0.054062
    56  C   -0.035421
    57  C   -0.027083
    58  C   -0.032919
    59  C   -0.019323
    60  C   -0.064042
    61  C   -0.018922
    62  C   -0.038779
    63  C   -0.035793
    64  C   -0.018026
    65  C   -0.061311
    66  C   -0.058022
    67  H    0.022818
    68  H    0.022515
    69  H    0.022290
    70  H    0.033017
    71  H    0.029662
    72  H    0.022301
    73  H    0.031772
    74  H    0.012501
    75  H    0.044523
    76  H    0.033302
    77  H    0.035913
    78  H    0.042311
    79  H    0.035209
    80  H    0.034537
    81  H    0.053027
    82  H    0.027608
    83  H    0.050253
    84  H    0.041017
    85  H    0.032055
    86  H    0.032288
    87  H    0.009784
    88  H    0.027171
    89  H    0.017792
    90  H    0.023912
    91  H    0.024537
    92  H    0.022740
    93  H    0.031100
    94  H    0.021801
    95  H    0.032715
    96  H    0.029014
    97  H    0.019310
    98  H    0.065519
    99  H    0.027474
   100  H    0.034029
   101  H    0.062829
   102  H    0.038112
   103  H    0.055276
   104  H    0.013998
   105  H    0.020387
   106  H    0.030388
   107  H    0.021066
   108  H    0.027154
   109  H    0.012826
   110  H    0.022631
   111  H    0.038319
   112  H    0.009586
   113  H    0.026039
   114  H    0.017306
   115  H    0.014769
   116  H    0.019784
   117  H    0.014590
   118  H    0.008168
   119  H    0.021853
   120  H    0.018011
   121  H    0.018431
   122  H    0.024518
   123  H    0.018613
   124  H    0.011740
   125  H    0.017974
   126  H    0.020945
   127  H    0.012799
   128  H    0.020772
   129  H    0.021526
   130  H    0.006565
   131  H    0.019583
   132  H    0.023899
   133  H    0.008556
   134  H    0.023237
   135  H    0.017515
   136  H    0.015591
   137  H    0.024916
   138  H    0.024450
   139  H    0.019986
   140  H    0.014138
 Sum of Mulliken charges =  -0.00000

 Dipole moment (field-independent basis, Debye):
    X=              2.3750    Y=              9.4832    Z=              1.0208  Tot=              9.8293
 N-N= 4.421839765698D+03 E-N= 0.000000000000D+00  KE=-9.517483230556D+03
 Leave Link  601 at Wed Apr 27 12:42:56 2022, MaxMem=  6710886400 cpu:               0.8 elap:               0.1
 (Enter /sw/apps/gaussian-16.0/g16/l9999.exe)
 1\1\GINC-BP1-COMPUTE070\SP\RZINDO CIS\STO-3G\C55H74Mg1N4O6\OF15641\27-
 Apr-2022\0\\#p ZINDO=(nstates=5)\\step_1151_chromophore_26 ZINDO\\0,1\
 Mg,0,-8.955,18.026,42.498\C,0,-5.424,17.578,42.62\C,0,-8.352,21.331,41
 .522\C,0,-12.192,18.333,41.639\C,0,-9.346,14.611,42.559\N,0,-7.107,19.
 326,42.202\C,0,-5.816,18.94,42.344\C,0,-4.861,20.104,41.96\C,0,-5.835,
 21.342,41.906\C,0,-7.196,20.607,41.819\C,0,-5.758,22.279,43.087\C,0,-3
 .929,19.841,40.721\C,0,-4.681,19.44,39.403\C,0,-3.938,19.579,38.039\O,

 Normal termination of Gaussian 16 at Wed Apr 27 12:42:56 2022.
