 Gaussian 16, Revision A.03,
 Gaussian 16:  ES64L-G16RevA.03 25-Dec-2016

 ------------------------------
 #p blyp/Def2SVP td=(nstates=5)
 ------------------------------

 --------------------------------------------------
 step_1851_chromophore_1 TDDFT with blyp functional
 --------------------------------------------------
 Symbolic Z-matrix:
 Charge =  0 Multiplicity = 1

                         Standard orientation:
 ---------------------------------------------------------------------
 Center     Atomic      Atomic             Coordinates (Angstroms)
 Number     Number       Type             X           Y           Z
 ---------------------------------------------------------------------
      1         12           0        6.287457    0.519837    0.261121
      2          6           0        4.220208   -2.408480   -0.503309
      3          6           0        3.734574    2.480846   -1.117312
      4          6           0        8.427162    3.036307    0.246707
      5          6           0        8.891496   -1.780242    0.633261
      6          7           0        4.216762    0.065354   -0.580161
      7          6           0        3.535020   -1.196561   -0.790094
      8          6           0        2.190681   -0.996673   -1.494965
      9          6           0        2.094096    0.613031   -1.690141
     10          6           0        3.404022    1.126998   -1.094151
     11          6           0        1.837503    0.994502   -3.122743
     12          6           0        0.921222   -1.475328   -0.760100
     13          6           0       -0.465287   -1.020417   -1.327701
     14          6           0       -1.659368   -1.896214   -1.041396
     15          8           0       -1.604313   -3.122728   -0.890437
     16          8           0       -2.804226   -1.163854   -1.095371
     17          7           0        6.064225    2.534001   -0.240005
     18          6           0        4.943827    3.205088   -0.742500
     19          6           0        5.145991    4.694604   -0.709920
     20          6           0        6.546122    4.825828   -0.298267
     21          6           0        7.056913    3.446130   -0.082962
     22          6           0        4.145277    5.715835   -1.086500
     23          6           0        7.405275    6.049943   -0.213211
     24          8           0        8.571332    5.949188    0.101384
     25          6           0        6.775063    7.479690   -0.325762
     26          7           0        8.362402    0.607361    0.270841
     27          6           0        8.938614    1.786479    0.473780
     28          6           0       10.489803    1.521576    0.641507
     29          6           0       10.540703    0.065633    1.040164
     30          6           0        9.177731   -0.427305    0.598258
     31          6           0       11.473169    2.027800   -0.382890
     32          6           0       10.772901   -0.151125    2.552063
     33          6           0        9.592162   -0.373466    3.593792
     34          7           0        6.503569   -1.557924    0.326621
     35          6           0        7.656077   -2.350815    0.487775
     36          6           0        7.313913   -3.770922    0.408501
     37          6           0        5.980559   -3.763623    0.111313
     38          6           0        5.555815   -2.406940   -0.079102
     39          6           0        8.100641   -4.989727    0.524398
     40          6           0        4.920124   -4.672942   -0.101653
     41          8           0        4.924137   -5.882208   -0.024986
     42          6           0        3.647904   -3.878829   -0.509975
     43          6           0        2.504519   -4.162085    0.394871
     44          8           0        2.378118   -3.695145    1.519740
     45          8           0        1.652327   -5.028193   -0.170917
     46          6           0        0.549796   -5.393789    0.601136
     47          6           0       -4.068751   -1.829753   -0.684962
     48          6           0       -5.311825   -1.083908   -1.024854
     49          6           0       -6.579970   -1.399979   -0.838002
     50          6           0       -7.012945   -2.683603   -0.020431
     51          6           0       -7.684001   -0.640371   -1.621370
     52          6           0       -9.000288   -0.353792   -0.917573
     53          6           0       -8.771381    0.394406    0.419159
     54          6           0       -9.306333    1.894841    0.592467
     55          6           0       -8.134167    2.946049    0.458455
     56          6           0      -10.090897    1.959830    1.885441
     57          6           0      -11.611579    1.813310    1.661121
     58          6           0      -12.497712    0.978041    2.608737
     59          6           0      -13.944164    1.499380    2.782245
     60          6           0      -14.331950    1.368442    4.216481
     61          6           0      -14.980565    0.781087    1.968420
     62          6           0      -15.139910    1.225298    0.478576
     63          6           0      -14.889256   -0.025945   -0.441502
     64          6           0      -14.600668    0.416512   -1.911094
     65          6           0      -15.379050   -0.416699   -2.929099
     66          6           0      -13.070244    0.479338   -2.201525
     67          1           0        3.038601    3.182368   -1.582459
     68          1           0        9.181463    3.811669    0.100079
     69          1           0        9.782537   -2.395744    0.768884
     70          1           0        2.181980   -1.596244   -2.405837
     71          1           0        1.368917    1.160446   -1.087637
     72          1           0        2.707321    1.407668   -3.632782
     73          1           0        1.037331    1.729820   -3.035602
     74          1           0        1.441187    0.138323   -3.667659
     75          1           0        1.002795   -1.164184    0.281698
     76          1           0        0.947089   -2.564309   -0.714092
     77          1           0       -0.417960   -0.814318   -2.397670
     78          1           0       -0.545454   -0.109872   -0.735280
     79          1           0        3.142625    5.318672   -1.240128
     80          1           0        4.408260    6.236403   -2.007131
     81          1           0        4.145076    6.507168   -0.336603
     82          1           0        5.979139    7.613881    0.405917
     83          1           0        6.245487    7.587859   -1.272314
     84          1           0        7.564576    8.183556   -0.060400
     85          1           0       10.737115    2.088899    1.538700
     86          1           0       11.281393   -0.537590    0.516399
     87          1           0       12.104737    2.792312    0.069301
     88          1           0       10.847350    2.572080   -1.089704
     89          1           0       12.095298    1.217635   -0.762100
     90          1           0       11.356730    0.674822    2.958115
     91          1           0       11.344097   -1.077575    2.597045
     92          1           0        9.374611   -1.438267    3.673525
     93          1           0        8.684682    0.224438    3.516488
     94          1           0        9.939451    0.000844    4.557209
     95          1           0        9.097547   -4.665811    0.825416
     96          1           0        8.051796   -5.583331   -0.387862
     97          1           0        7.760460   -5.599706    1.361051
     98          1           0        3.278030   -4.025405   -1.524196
     99          1           0        0.179995   -6.332309    0.187532
    100          1           0       -0.270071   -4.689494    0.460945
    101          1           0        0.789961   -5.453425    1.663246
    102          1           0       -4.070924   -1.998479    0.392517
    103          1           0       -4.084257   -2.840971   -1.090109
    104          1           0       -5.140234   -0.246318   -1.700980
    105          1           0       -7.038506   -2.354199    1.017494
    106          1           0       -6.248233   -3.455324   -0.112416
    107          1           0       -7.933661   -3.081770   -0.446504
    108          1           0       -8.000429   -1.329321   -2.405590
    109          1           0       -7.253428    0.307906   -1.943657
    110          1           0       -9.498013   -1.304887   -0.730106
    111          1           0       -9.596942    0.240042   -1.609324
    112          1           0       -7.690495    0.443315    0.552962
    113          1           0       -9.161315   -0.326948    1.137448
    114          1           0       -9.940943    2.104958   -0.268550
    115          1           0       -8.416109    3.740092   -0.231805
    116          1           0       -7.270865    2.412832    0.060560
    117          1           0       -7.998537    3.446491    1.417738
    118          1           0      -10.106813    2.947493    2.346658
    119          1           0       -9.804333    1.220317    2.633926
    120          1           0      -11.777658    1.318892    0.704194
    121          1           0      -12.078717    2.796740    1.612390
    122          1           0      -12.008045    0.988872    3.581986
    123          1           0      -12.544664   -0.029356    2.195742
    124          1           0      -14.028109    2.559224    2.545757
    125          1           0      -13.593971    0.961005    4.907484
    126          1           0      -15.345651    0.977338    4.299655
    127          1           0      -14.430613    2.387877    4.590723
    128          1           0      -15.983650    0.822516    2.392890
    129          1           0      -14.779746   -0.280454    2.110675
    130          1           0      -14.328047    1.936970    0.327053
    131          1           0      -16.139132    1.594926    0.249738
    132          1           0      -15.769751   -0.668339   -0.425823
    133          1           0      -14.112111   -0.663117   -0.019243
    134          1           0      -14.993181    1.421454   -2.063079
    135          1           0      -14.721150   -1.121946   -3.437250
    136          1           0      -15.910792    0.193194   -3.658287
    137          1           0      -16.169819   -1.023682   -2.488782
    138          1           0      -12.873070    0.103331   -3.204981
    139          1           0      -12.348093   -0.046539   -1.575602
    140          1           0      -12.842763    1.544783   -2.178794
 ---------------------------------------------------------------------

 SCF Done:  E(RB-LYP) =  -3007.36408172     A.U. after   21 cycles

 Excitation energies and oscillator strengths:

 Excited State   1:      Singlet-A      1.7637 eV  702.98 nm  f=0.3061  <S**2>=0.000
     245 -> 248        0.18723
     246 -> 247        0.69451
     246 <- 247       -0.15897
 This state for optimization and/or second-order correction.
 Total Energy, E(TD-HF/TD-DFT) =  -3007.29926734
 Copying the excited state density for this state as the 1-particle RhoCI density.

 Excited State   2:      Singlet-A      1.9167 eV  646.88 nm  f=0.0147  <S**2>=0.000
     243 -> 247        0.23874
     244 -> 247        0.54847
     245 -> 247        0.35972
     246 -> 248       -0.10231

 Excited State   3:      Singlet-A      1.9559 eV  633.90 nm  f=0.0058  <S**2>=0.000
     243 -> 247        0.56919
     244 -> 247       -0.37499
     245 -> 247        0.17633

 Excited State   4:      Singlet-A      2.0384 eV  608.24 nm  f=0.0584  <S**2>=0.000
     243 -> 247       -0.34021
     244 -> 247       -0.23791
     245 -> 247        0.50952
     246 -> 248       -0.23384

 Excited State   5:      Singlet-A      2.5472 eV  486.74 nm  f=0.0012  <S**2>=0.000
     239 -> 247       -0.18810
     240 -> 247       -0.22780
     241 -> 247       -0.16130
     242 -> 247        0.61198

 The electronic state is 1-A.
 Alpha  occ. eigenvalues --  -46.27213 -18.83416 -18.81772 -18.77766 -18.75490
 Alpha  occ. eigenvalues --  -18.75339 -18.75305 -14.03343 -14.02673 -14.01353
 Alpha  occ. eigenvalues --  -14.01118 -10.05295 -10.03051  -9.99640  -9.98953
 Alpha  occ. eigenvalues --   -9.98908  -9.97005  -9.96456  -9.96150  -9.95981
 Alpha  occ. eigenvalues --   -9.95854  -9.95626  -9.95530  -9.95467  -9.94683
 Alpha  occ. eigenvalues --   -9.94611  -9.94517  -9.94231  -9.94049  -9.93695
 Alpha  occ. eigenvalues --   -9.93567  -9.93522  -9.93509  -9.93230  -9.93016
 Alpha  occ. eigenvalues --   -9.92947  -9.92820  -9.92797  -9.92784  -9.92742
 Alpha  occ. eigenvalues --   -9.92635  -9.92465  -9.92326  -9.92286  -9.92202
 Alpha  occ. eigenvalues --   -9.92096  -9.92071  -9.91973  -9.91961  -9.91941
 Alpha  occ. eigenvalues --   -9.91767  -9.91722  -9.91560  -9.91325  -9.91264
 Alpha  occ. eigenvalues --   -9.91260  -9.91152  -9.91150  -9.90980  -9.90954
 Alpha  occ. eigenvalues --   -9.90950  -9.90635  -9.90483  -9.90427  -9.90021
 Alpha  occ. eigenvalues --   -9.90017  -2.91835  -1.72239  -1.71708  -1.71566
 Alpha  occ. eigenvalues --   -0.99001  -0.98478  -0.91985  -0.91699  -0.90321
 Alpha  occ. eigenvalues --   -0.89368  -0.86850  -0.85765  -0.84248  -0.82126
 Alpha  occ. eigenvalues --   -0.74869  -0.74111  -0.73558  -0.72686  -0.72538
 Alpha  occ. eigenvalues --   -0.71904  -0.71433  -0.71050  -0.70993  -0.70585
 Alpha  occ. eigenvalues --   -0.70018  -0.69478  -0.68341  -0.67570  -0.66808
 Alpha  occ. eigenvalues --   -0.66414  -0.65902  -0.65214  -0.64981  -0.64584
 Alpha  occ. eigenvalues --   -0.63871  -0.62733  -0.62487  -0.61888  -0.61059
 Alpha  occ. eigenvalues --   -0.60483  -0.60208  -0.59893  -0.59821  -0.58821
 Alpha  occ. eigenvalues --   -0.58664  -0.57631  -0.56417  -0.55643  -0.54944
 Alpha  occ. eigenvalues --   -0.53982  -0.53226  -0.52505  -0.52083  -0.51257
 Alpha  occ. eigenvalues --   -0.50884  -0.50615  -0.50335  -0.49967  -0.49924
 Alpha  occ. eigenvalues --   -0.49766  -0.49697  -0.48786  -0.48165  -0.46457
 Alpha  occ. eigenvalues --   -0.46314  -0.45773  -0.45396  -0.44876  -0.44170
 Alpha  occ. eigenvalues --   -0.43862  -0.43401  -0.43136  -0.42789  -0.42667
 Alpha  occ. eigenvalues --   -0.42521  -0.41741  -0.41700  -0.41623  -0.41223
 Alpha  occ. eigenvalues --   -0.41059  -0.40918  -0.40608  -0.40217  -0.40089
 Alpha  occ. eigenvalues --   -0.39842  -0.39621  -0.39425  -0.39260  -0.39221
 Alpha  occ. eigenvalues --   -0.38936  -0.38864  -0.38746  -0.38511  -0.38350
 Alpha  occ. eigenvalues --   -0.38175  -0.38087  -0.37820  -0.37693  -0.37427
 Alpha  occ. eigenvalues --   -0.37108  -0.37010  -0.36816  -0.36641  -0.36292
 Alpha  occ. eigenvalues --   -0.36218  -0.36137  -0.36092  -0.35910  -0.35625
 Alpha  occ. eigenvalues --   -0.35579  -0.35364  -0.35152  -0.34765  -0.34709
 Alpha  occ. eigenvalues --   -0.34592  -0.34485  -0.34199  -0.34123  -0.34006
 Alpha  occ. eigenvalues --   -0.33826  -0.33608  -0.33248  -0.33161  -0.33088
 Alpha  occ. eigenvalues --   -0.32998  -0.32795  -0.32785  -0.32674  -0.32470
 Alpha  occ. eigenvalues --   -0.32173  -0.32045  -0.31828  -0.31587  -0.31557
 Alpha  occ. eigenvalues --   -0.31109  -0.30958  -0.30705  -0.30461  -0.30422
 Alpha  occ. eigenvalues --   -0.30181  -0.30155  -0.30031  -0.29722  -0.29672
 Alpha  occ. eigenvalues --   -0.29444  -0.29387  -0.28913  -0.28760  -0.28507
 Alpha  occ. eigenvalues --   -0.28451  -0.28219  -0.28204  -0.27741  -0.27284
 Alpha  occ. eigenvalues --   -0.27025  -0.26865  -0.26779  -0.26618  -0.26425
 Alpha  occ. eigenvalues --   -0.26342  -0.26325  -0.26090  -0.25979  -0.25578
 Alpha  occ. eigenvalues --   -0.24865  -0.24801  -0.24079  -0.23489  -0.23296
 Alpha  occ. eigenvalues --   -0.23075  -0.22778  -0.21713  -0.20917  -0.20904
 Alpha  occ. eigenvalues --   -0.20688  -0.20262  -0.18566  -0.18436  -0.17119
 Alpha  occ. eigenvalues --   -0.15494
 Alpha virt. eigenvalues --   -0.11427  -0.06630  -0.06008  -0.04533  -0.03990
 Alpha virt. eigenvalues --   -0.02681  -0.01829  -0.01773  -0.01587   0.00533
 Alpha virt. eigenvalues --    0.01439   0.01541   0.01971   0.02346   0.02683

 Mulliken charges:
               1
     1  Mg   0.703442
     2  C   -0.107507
     3  C   -0.051031
     4  C   -0.046594
     5  C   -0.105013
     6  N   -0.265603
     7  C   -0.023059
     8  C    0.018568
     9  C   -0.023038
    10  C    0.070147
    11  C    0.136415
    12  C    0.039670
    13  C    0.131415
    14  C    0.110940
    15  O   -0.198390
    16  O   -0.265352
    17  N   -0.289084
    18  C    0.065926
    19  C   -0.116431
    20  C    0.037368
    21  C    0.074001
    22  C    0.165658
    23  C   -0.085046
    24  O   -0.156786
    25  C    0.104698
    26  N   -0.231461
    27  C    0.045516
    28  C    0.014585
    29  C    0.032957
    30  C    0.017539
    31  C    0.171917
    32  C    0.059962
    33  C    0.070559
    34  N   -0.252590
    35  C    0.176691
    36  C   -0.201467
    37  C    0.122755
    38  C    0.138786
    39  C    0.198367
    40  C   -0.077206
    41  O   -0.124035
    42  C    0.142721
    43  C    0.084622
    44  O   -0.193291
    45  O   -0.220697
    46  C    0.210698
    47  C    0.306994
    48  C   -0.094503
    49  C   -0.171529
    50  C    0.125263
    51  C    0.137470
    52  C    0.047324
    53  C    0.062539
    54  C   -0.070762
    55  C    0.108980
    56  C    0.176165
    57  C   -0.020334
    58  C    0.129919
    59  C   -0.076868
    60  C    0.130844
    61  C    0.082995
    62  C    0.088546
    63  C    0.065122
    64  C   -0.069097
    65  C    0.097503
    66  C    0.090917
    67  H   -0.071540
    68  H   -0.027973
    69  H   -0.064553
    70  H   -0.015629
    71  H   -0.010814
    72  H    0.002997
    73  H   -0.017024
    74  H   -0.006521
    75  H   -0.017197
    76  H    0.009410
    77  H    0.010358
    78  H    0.002295
    79  H   -0.009110
    80  H    0.005906
    81  H   -0.003026
    82  H    0.003584
    83  H   -0.000588
    84  H    0.001143
    85  H   -0.039096
    86  H   -0.036840
    87  H   -0.014062
    88  H   -0.007117
    89  H   -0.006996
    90  H   -0.015821
    91  H   -0.024883
    92  H    0.004735
    93  H   -0.007437
    94  H   -0.017557
    95  H   -0.032372
    96  H    0.019426
    97  H    0.007149
    98  H   -0.013943
    99  H   -0.000573
   100  H    0.009148
   101  H    0.010385
   102  H    0.000459
   103  H    0.013459
   104  H   -0.037113
   105  H    0.017372
   106  H   -0.009074
   107  H    0.001086
   108  H   -0.021352
   109  H   -0.021694
   110  H   -0.031813
   111  H   -0.013562
   112  H   -0.020038
   113  H   -0.029953
   114  H   -0.029286
   115  H   -0.019689
   116  H   -0.009633
   117  H   -0.014206
   118  H   -0.043661
   119  H   -0.028488
   120  H   -0.024807
   121  H   -0.029250
   122  H   -0.037618
   123  H   -0.032405
   124  H   -0.042891
   125  H   -0.017001
   126  H   -0.028040
   127  H   -0.038303
   128  H   -0.046119
   129  H   -0.044811
   130  H   -0.020974
   131  H   -0.018800
   132  H   -0.040323
   133  H   -0.031094
   134  H   -0.033601
   135  H   -0.020627
   136  H   -0.018015
   137  H   -0.029014
   138  H   -0.028639
   139  H    0.005001
   140  H   -0.011079
 Sum of Mulliken charges =  -0.00000

 Dipole moment (field-independent basis, Debye):
    X=             -3.8576    Y=              3.3244    Z=             -1.1272  Tot=              5.2157
 Quadrupole moment (field-independent basis, Debye-Ang):
   XX=           -375.9365   YY=           -430.5761   ZZ=           -404.3672
   XY=             -6.5892   XZ=              8.3018   YZ=             -1.3182

 Normal termination of Gaussian 16 at Wed May  4 14:52:05 2022.
