 Gaussian 16, Revision A.03,
 Gaussian 16:  ES64L-G16RevA.03 25-Dec-2016

 -----------------------------------
 #p cam-b3lyp/Def2SVP td=(nstates=5)
 -----------------------------------

 -------------------------------------------------------
 step_1851_chromophore_1 TDDFT with cam-b3lyp functional
 -------------------------------------------------------
 Symbolic Z-matrix:
 Charge =  0 Multiplicity = 1

                         Standard orientation:
 ---------------------------------------------------------------------
 Center     Atomic      Atomic             Coordinates (Angstroms)
 Number     Number       Type             X           Y           Z
 ---------------------------------------------------------------------
      1         12           0        6.287457    0.519837    0.261121
      2          6           0        4.220208   -2.408480   -0.503309
      3          6           0        3.734574    2.480846   -1.117312
      4          6           0        8.427162    3.036307    0.246707
      5          6           0        8.891496   -1.780242    0.633261
      6          7           0        4.216762    0.065354   -0.580161
      7          6           0        3.535020   -1.196561   -0.790094
      8          6           0        2.190681   -0.996673   -1.494965
      9          6           0        2.094096    0.613031   -1.690141
     10          6           0        3.404022    1.126998   -1.094151
     11          6           0        1.837503    0.994502   -3.122743
     12          6           0        0.921222   -1.475328   -0.760100
     13          6           0       -0.465287   -1.020417   -1.327701
     14          6           0       -1.659368   -1.896214   -1.041396
     15          8           0       -1.604313   -3.122728   -0.890437
     16          8           0       -2.804226   -1.163854   -1.095371
     17          7           0        6.064225    2.534001   -0.240005
     18          6           0        4.943827    3.205088   -0.742500
     19          6           0        5.145991    4.694604   -0.709920
     20          6           0        6.546122    4.825828   -0.298267
     21          6           0        7.056913    3.446130   -0.082962
     22          6           0        4.145277    5.715835   -1.086500
     23          6           0        7.405275    6.049943   -0.213211
     24          8           0        8.571332    5.949188    0.101384
     25          6           0        6.775063    7.479690   -0.325762
     26          7           0        8.362402    0.607361    0.270841
     27          6           0        8.938614    1.786479    0.473780
     28          6           0       10.489803    1.521576    0.641507
     29          6           0       10.540703    0.065633    1.040164
     30          6           0        9.177731   -0.427305    0.598258
     31          6           0       11.473169    2.027800   -0.382890
     32          6           0       10.772901   -0.151125    2.552063
     33          6           0        9.592162   -0.373466    3.593792
     34          7           0        6.503569   -1.557924    0.326621
     35          6           0        7.656077   -2.350815    0.487775
     36          6           0        7.313913   -3.770922    0.408501
     37          6           0        5.980559   -3.763623    0.111313
     38          6           0        5.555815   -2.406940   -0.079102
     39          6           0        8.100641   -4.989727    0.524398
     40          6           0        4.920124   -4.672942   -0.101653
     41          8           0        4.924137   -5.882208   -0.024986
     42          6           0        3.647904   -3.878829   -0.509975
     43          6           0        2.504519   -4.162085    0.394871
     44          8           0        2.378118   -3.695145    1.519740
     45          8           0        1.652327   -5.028193   -0.170917
     46          6           0        0.549796   -5.393789    0.601136
     47          6           0       -4.068751   -1.829753   -0.684962
     48          6           0       -5.311825   -1.083908   -1.024854
     49          6           0       -6.579970   -1.399979   -0.838002
     50          6           0       -7.012945   -2.683603   -0.020431
     51          6           0       -7.684001   -0.640371   -1.621370
     52          6           0       -9.000288   -0.353792   -0.917573
     53          6           0       -8.771381    0.394406    0.419159
     54          6           0       -9.306333    1.894841    0.592467
     55          6           0       -8.134167    2.946049    0.458455
     56          6           0      -10.090897    1.959830    1.885441
     57          6           0      -11.611579    1.813310    1.661121
     58          6           0      -12.497712    0.978041    2.608737
     59          6           0      -13.944164    1.499380    2.782245
     60          6           0      -14.331950    1.368442    4.216481
     61          6           0      -14.980565    0.781087    1.968420
     62          6           0      -15.139910    1.225298    0.478576
     63          6           0      -14.889256   -0.025945   -0.441502
     64          6           0      -14.600668    0.416512   -1.911094
     65          6           0      -15.379050   -0.416699   -2.929099
     66          6           0      -13.070244    0.479338   -2.201525
     67          1           0        3.038601    3.182368   -1.582459
     68          1           0        9.181463    3.811669    0.100079
     69          1           0        9.782537   -2.395744    0.768884
     70          1           0        2.181980   -1.596244   -2.405837
     71          1           0        1.368917    1.160446   -1.087637
     72          1           0        2.707321    1.407668   -3.632782
     73          1           0        1.037331    1.729820   -3.035602
     74          1           0        1.441187    0.138323   -3.667659
     75          1           0        1.002795   -1.164184    0.281698
     76          1           0        0.947089   -2.564309   -0.714092
     77          1           0       -0.417960   -0.814318   -2.397670
     78          1           0       -0.545454   -0.109872   -0.735280
     79          1           0        3.142625    5.318672   -1.240128
     80          1           0        4.408260    6.236403   -2.007131
     81          1           0        4.145076    6.507168   -0.336603
     82          1           0        5.979139    7.613881    0.405917
     83          1           0        6.245487    7.587859   -1.272314
     84          1           0        7.564576    8.183556   -0.060400
     85          1           0       10.737115    2.088899    1.538700
     86          1           0       11.281393   -0.537590    0.516399
     87          1           0       12.104737    2.792312    0.069301
     88          1           0       10.847350    2.572080   -1.089704
     89          1           0       12.095298    1.217635   -0.762100
     90          1           0       11.356730    0.674822    2.958115
     91          1           0       11.344097   -1.077575    2.597045
     92          1           0        9.374611   -1.438267    3.673525
     93          1           0        8.684682    0.224438    3.516488
     94          1           0        9.939451    0.000844    4.557209
     95          1           0        9.097547   -4.665811    0.825416
     96          1           0        8.051796   -5.583331   -0.387862
     97          1           0        7.760460   -5.599706    1.361051
     98          1           0        3.278030   -4.025405   -1.524196
     99          1           0        0.179995   -6.332309    0.187532
    100          1           0       -0.270071   -4.689494    0.460945
    101          1           0        0.789961   -5.453425    1.663246
    102          1           0       -4.070924   -1.998479    0.392517
    103          1           0       -4.084257   -2.840971   -1.090109
    104          1           0       -5.140234   -0.246318   -1.700980
    105          1           0       -7.038506   -2.354199    1.017494
    106          1           0       -6.248233   -3.455324   -0.112416
    107          1           0       -7.933661   -3.081770   -0.446504
    108          1           0       -8.000429   -1.329321   -2.405590
    109          1           0       -7.253428    0.307906   -1.943657
    110          1           0       -9.498013   -1.304887   -0.730106
    111          1           0       -9.596942    0.240042   -1.609324
    112          1           0       -7.690495    0.443315    0.552962
    113          1           0       -9.161315   -0.326948    1.137448
    114          1           0       -9.940943    2.104958   -0.268550
    115          1           0       -8.416109    3.740092   -0.231805
    116          1           0       -7.270865    2.412832    0.060560
    117          1           0       -7.998537    3.446491    1.417738
    118          1           0      -10.106813    2.947493    2.346658
    119          1           0       -9.804333    1.220317    2.633926
    120          1           0      -11.777658    1.318892    0.704194
    121          1           0      -12.078717    2.796740    1.612390
    122          1           0      -12.008045    0.988872    3.581986
    123          1           0      -12.544664   -0.029356    2.195742
    124          1           0      -14.028109    2.559224    2.545757
    125          1           0      -13.593971    0.961005    4.907484
    126          1           0      -15.345651    0.977338    4.299655
    127          1           0      -14.430613    2.387877    4.590723
    128          1           0      -15.983650    0.822516    2.392890
    129          1           0      -14.779746   -0.280454    2.110675
    130          1           0      -14.328047    1.936970    0.327053
    131          1           0      -16.139132    1.594926    0.249738
    132          1           0      -15.769751   -0.668339   -0.425823
    133          1           0      -14.112111   -0.663117   -0.019243
    134          1           0      -14.993181    1.421454   -2.063079
    135          1           0      -14.721150   -1.121946   -3.437250
    136          1           0      -15.910792    0.193194   -3.658287
    137          1           0      -16.169819   -1.023682   -2.488782
    138          1           0      -12.873070    0.103331   -3.204981
    139          1           0      -12.348093   -0.046539   -1.575602
    140          1           0      -12.842763    1.544783   -2.178794
 ---------------------------------------------------------------------

 SCF Done:  E(RCAM-B3LYP) =  -3007.16023070     A.U. after   19 cycles

 Excitation energies and oscillator strengths:

 Excited State   1:      Singlet-A      1.6521 eV  750.48 nm  f=0.3870  <S**2>=0.000
     245 -> 248       -0.17212
     246 -> 247        0.68865
     245 <- 248       -0.10873
 This state for optimization and/or second-order correction.
 Total Energy, E(TD-HF/TD-DFT) =  -3007.09951810
 Copying the excited state density for this state as the 1-particle RhoCI density.

 Excited State   2:      Singlet-A      2.2209 eV  558.26 nm  f=0.1029  <S**2>=0.000
     245 -> 247        0.63446
     246 -> 248        0.30257

 Excited State   3:      Singlet-A      3.3874 eV  366.02 nm  f=0.0029  <S**2>=0.000
     239 -> 247        0.20584
     239 -> 249       -0.18291
     239 -> 251        0.10930
     242 -> 247        0.17746
     243 -> 247        0.46417
     243 -> 249       -0.11528
     244 -> 247       -0.34240

 Excited State   4:      Singlet-A      3.4221 eV  362.30 nm  f=0.1337  <S**2>=0.000
     239 -> 247        0.14860
     243 -> 247        0.14109
     244 -> 247        0.49628
     245 -> 247        0.14524
     246 -> 248       -0.38768

 Excited State   5:      Singlet-A      3.5288 eV  351.35 nm  f=0.4744  <S**2>=0.000
     239 -> 247        0.34432
     239 -> 249       -0.17378
     244 -> 247        0.25043
     245 -> 247       -0.22485
     246 -> 248        0.45020

 The electronic state is 1-A.
 Alpha  occ. eigenvalues --  -46.88747 -19.26297 -19.24827 -19.20729 -19.18892
 Alpha  occ. eigenvalues --  -19.18768 -19.18284 -14.42244 -14.41524 -14.39749
 Alpha  occ. eigenvalues --  -14.39650 -10.40621 -10.38639 -10.34594 -10.34514
 Alpha  occ. eigenvalues --  -10.33027 -10.31924 -10.30666 -10.30523 -10.30353
 Alpha  occ. eigenvalues --  -10.30087 -10.30019 -10.29599 -10.29436 -10.29244
 Alpha  occ. eigenvalues --  -10.28839 -10.28826 -10.28247 -10.28170 -10.28058
 Alpha  occ. eigenvalues --  -10.27969 -10.27844 -10.27709 -10.27122 -10.26961
 Alpha  occ. eigenvalues --  -10.26927 -10.26822 -10.26710 -10.26701 -10.26614
 Alpha  occ. eigenvalues --  -10.26545 -10.26365 -10.26228 -10.26059 -10.26030
 Alpha  occ. eigenvalues --  -10.25994 -10.25964 -10.25925 -10.25688 -10.25657
 Alpha  occ. eigenvalues --  -10.25630 -10.25463 -10.25086 -10.25016 -10.24979
 Alpha  occ. eigenvalues --  -10.24869 -10.24783 -10.24782 -10.24658 -10.24650
 Alpha  occ. eigenvalues --  -10.24563 -10.24472 -10.24302 -10.24079 -10.24075
 Alpha  occ. eigenvalues --  -10.23573  -3.17269  -1.92150  -1.91714  -1.91588
 Alpha  occ. eigenvalues --   -1.17706  -1.16899  -1.10493  -1.10170  -1.08159
 Alpha  occ. eigenvalues --   -1.07558  -1.04667  -1.03613  -1.01436  -0.99588
 Alpha  occ. eigenvalues --   -0.92215  -0.91016  -0.90401  -0.89465  -0.89284
 Alpha  occ. eigenvalues --   -0.88574  -0.88239  -0.87774  -0.87605  -0.87047
 Alpha  occ. eigenvalues --   -0.86428  -0.85795  -0.84604  -0.83826  -0.82869
 Alpha  occ. eigenvalues --   -0.82463  -0.81917  -0.81097  -0.80920  -0.80400
 Alpha  occ. eigenvalues --   -0.79695  -0.78534  -0.78055  -0.77388  -0.76463
 Alpha  occ. eigenvalues --   -0.76018  -0.75576  -0.75204  -0.75115  -0.74072
 Alpha  occ. eigenvalues --   -0.73725  -0.72719  -0.71271  -0.70456  -0.69644
 Alpha  occ. eigenvalues --   -0.68681  -0.67748  -0.66821  -0.66408  -0.65393
 Alpha  occ. eigenvalues --   -0.64919  -0.64805  -0.64382  -0.63992  -0.63913
 Alpha  occ. eigenvalues --   -0.63706  -0.63612  -0.62680  -0.61992  -0.60061
 Alpha  occ. eigenvalues --   -0.59750  -0.59438  -0.59028  -0.58213  -0.57993
 Alpha  occ. eigenvalues --   -0.57201  -0.56771  -0.56451  -0.56114  -0.55673
 Alpha  occ. eigenvalues --   -0.55484  -0.55029  -0.54723  -0.54438  -0.54369
 Alpha  occ. eigenvalues --   -0.54204  -0.53695  -0.53407  -0.53154  -0.52679
 Alpha  occ. eigenvalues --   -0.52596  -0.52282  -0.52048  -0.51825  -0.51766
 Alpha  occ. eigenvalues --   -0.51633  -0.51334  -0.51268  -0.51012  -0.50866
 Alpha  occ. eigenvalues --   -0.50607  -0.50503  -0.50060  -0.49901  -0.49602
 Alpha  occ. eigenvalues --   -0.49418  -0.49328  -0.49182  -0.49031  -0.48736
 Alpha  occ. eigenvalues --   -0.48562  -0.48248  -0.48203  -0.48109  -0.47927
 Alpha  occ. eigenvalues --   -0.47857  -0.47365  -0.47156  -0.46930  -0.46705
 Alpha  occ. eigenvalues --   -0.46558  -0.46321  -0.45988  -0.45936  -0.45862
 Alpha  occ. eigenvalues --   -0.45680  -0.45547  -0.45050  -0.44855  -0.44782
 Alpha  occ. eigenvalues --   -0.44689  -0.44416  -0.44404  -0.44321  -0.44173
 Alpha  occ. eigenvalues --   -0.43992  -0.43837  -0.43537  -0.43390  -0.43291
 Alpha  occ. eigenvalues --   -0.42788  -0.42428  -0.42290  -0.41872  -0.41804
 Alpha  occ. eigenvalues --   -0.41532  -0.41496  -0.41366  -0.41189  -0.40914
 Alpha  occ. eigenvalues --   -0.40786  -0.40540  -0.40506  -0.39892  -0.39619
 Alpha  occ. eigenvalues --   -0.39398  -0.39270  -0.39152  -0.38613  -0.38131
 Alpha  occ. eigenvalues --   -0.38100  -0.38009  -0.37664  -0.37546  -0.37437
 Alpha  occ. eigenvalues --   -0.37331  -0.37073  -0.36839  -0.36684  -0.36144
 Alpha  occ. eigenvalues --   -0.35745  -0.35575  -0.35345  -0.34970  -0.34180
 Alpha  occ. eigenvalues --   -0.33707  -0.33621  -0.32483  -0.31028  -0.30903
 Alpha  occ. eigenvalues --   -0.30651  -0.30419  -0.30198  -0.29226  -0.23959
 Alpha  occ. eigenvalues --   -0.20704
 Alpha virt. eigenvalues --   -0.08562  -0.01443   0.00408   0.02349   0.02494
 Alpha virt. eigenvalues --    0.03896   0.05531   0.05721   0.05981   0.07078
 Alpha virt. eigenvalues --    0.07729   0.08088   0.08705   0.08851   0.09034

 Mulliken charges:
               1
     1  Mg   0.832908
     2  C   -0.126330
     3  C   -0.064228
     4  C   -0.057367
     5  C   -0.111968
     6  N   -0.332837
     7  C    0.024103
     8  C   -0.029551
     9  C   -0.081112
    10  C    0.089367
    11  C    0.075635
    12  C   -0.001494
    13  C    0.058315
    14  C    0.194226
    15  O   -0.243107
    16  O   -0.331180
    17  N   -0.372929
    18  C    0.071477
    19  C   -0.124719
    20  C   -0.032633
    21  C    0.094181
    22  C    0.107118
    23  C   -0.009718
    24  O   -0.201545
    25  C    0.031018
    26  N   -0.301946
    27  C    0.059038
    28  C   -0.040357
    29  C   -0.030839
    30  C    0.040176
    31  C    0.109619
    32  C    0.009556
    33  C    0.010442
    34  N   -0.340226
    35  C    0.179749
    36  C   -0.190409
    37  C    0.039475
    38  C    0.174909
    39  C    0.144237
    40  C    0.017832
    41  O   -0.159237
    42  C    0.071997
    43  C    0.167171
    44  O   -0.228433
    45  O   -0.281499
    46  C    0.167705
    47  C    0.277433
    48  C   -0.117588
    49  C   -0.196775
    50  C    0.067045
    51  C    0.082741
    52  C   -0.002921
    53  C    0.009151
    54  C   -0.125263
    55  C    0.055725
    56  C    0.112446
    57  C   -0.057153
    58  C    0.077859
    59  C   -0.136750
    60  C    0.067357
    61  C    0.029272
    62  C    0.035305
    63  C    0.016262
    64  C   -0.131161
    65  C    0.038549
    66  C    0.035550
    67  H   -0.039224
    68  H    0.010213
    69  H   -0.027224
    70  H    0.018055
    71  H    0.022675
    72  H    0.030901
    73  H    0.007324
    74  H    0.015125
    75  H    0.014611
    76  H    0.033027
    77  H    0.041508
    78  H    0.035716
    79  H    0.017199
    80  H    0.030428
    81  H    0.020869
    82  H    0.029811
    83  H    0.025014
    84  H    0.034421
    85  H   -0.001872
    86  H    0.000222
    87  H    0.011234
    88  H    0.018248
    89  H    0.016628
    90  H    0.012596
    91  H    0.002763
    92  H    0.026050
    93  H    0.015019
    94  H    0.008030
    95  H   -0.005892
    96  H    0.047578
    97  H    0.037350
    98  H    0.031339
    99  H    0.024016
   100  H    0.031306
   101  H    0.036776
   102  H    0.026443
   103  H    0.042575
   104  H   -0.001359
   105  H    0.040652
   106  H    0.015031
   107  H    0.024820
   108  H    0.009523
   109  H    0.005476
   110  H   -0.005076
   111  H    0.012213
   112  H    0.007385
   113  H   -0.002472
   114  H    0.001577
   115  H    0.004664
   116  H    0.011273
   117  H    0.010028
   118  H   -0.012271
   119  H    0.000539
   120  H   -0.005449
   121  H   -0.003161
   122  H   -0.008953
   123  H   -0.006144
   124  H   -0.009745
   125  H    0.008299
   126  H   -0.001437
   127  H   -0.011709
   128  H   -0.014569
   129  H   -0.015354
   130  H    0.003237
   131  H    0.009531
   132  H   -0.011139
   133  H   -0.005379
   134  H   -0.000593
   135  H    0.003041
   136  H    0.006547
   137  H   -0.003885
   138  H   -0.002912
   139  H    0.022496
   140  H    0.010745
 Sum of Mulliken charges =  -0.00000

 Dipole moment (field-independent basis, Debye):
    X=             -3.9025    Y=              2.9713    Z=             -1.0869  Tot=              5.0239
 Quadrupole moment (field-independent basis, Debye-Ang):
   XX=           -372.0529   YY=           -426.8664   ZZ=           -404.2346
   XY=             -9.4674   XZ=              9.0743   YZ=             -1.7410

 Normal termination of Gaussian 16 at Wed May  4 14:00:25 2022.
