 Gaussian 16, Revision A.03,
 Gaussian 16:  ES64L-G16RevA.03 25-Dec-2016

 ---------------------------------
 #p PBE1PBE/Def2SVP td=(nstates=5)
 ---------------------------------

 -----------------------------------------------------
 step_1851_chromophore_1 TDDFT with PBE1PBE functional
 -----------------------------------------------------
 Symbolic Z-matrix:
 Charge =  0 Multiplicity = 1

                         Standard orientation:
 ---------------------------------------------------------------------
 Center     Atomic      Atomic             Coordinates (Angstroms)
 Number     Number       Type             X           Y           Z
 ---------------------------------------------------------------------
      1         12           0        6.287457    0.519837    0.261121
      2          6           0        4.220208   -2.408480   -0.503309
      3          6           0        3.734574    2.480846   -1.117312
      4          6           0        8.427162    3.036307    0.246707
      5          6           0        8.891496   -1.780242    0.633261
      6          7           0        4.216762    0.065354   -0.580161
      7          6           0        3.535020   -1.196561   -0.790094
      8          6           0        2.190681   -0.996673   -1.494965
      9          6           0        2.094096    0.613031   -1.690141
     10          6           0        3.404022    1.126998   -1.094151
     11          6           0        1.837503    0.994502   -3.122743
     12          6           0        0.921222   -1.475328   -0.760100
     13          6           0       -0.465287   -1.020417   -1.327701
     14          6           0       -1.659368   -1.896214   -1.041396
     15          8           0       -1.604313   -3.122728   -0.890437
     16          8           0       -2.804226   -1.163854   -1.095371
     17          7           0        6.064225    2.534001   -0.240005
     18          6           0        4.943827    3.205088   -0.742500
     19          6           0        5.145991    4.694604   -0.709920
     20          6           0        6.546122    4.825828   -0.298267
     21          6           0        7.056913    3.446130   -0.082962
     22          6           0        4.145277    5.715835   -1.086500
     23          6           0        7.405275    6.049943   -0.213211
     24          8           0        8.571332    5.949188    0.101384
     25          6           0        6.775063    7.479690   -0.325762
     26          7           0        8.362402    0.607361    0.270841
     27          6           0        8.938614    1.786479    0.473780
     28          6           0       10.489803    1.521576    0.641507
     29          6           0       10.540703    0.065633    1.040164
     30          6           0        9.177731   -0.427305    0.598258
     31          6           0       11.473169    2.027800   -0.382890
     32          6           0       10.772901   -0.151125    2.552063
     33          6           0        9.592162   -0.373466    3.593792
     34          7           0        6.503569   -1.557924    0.326621
     35          6           0        7.656077   -2.350815    0.487775
     36          6           0        7.313913   -3.770922    0.408501
     37          6           0        5.980559   -3.763623    0.111313
     38          6           0        5.555815   -2.406940   -0.079102
     39          6           0        8.100641   -4.989727    0.524398
     40          6           0        4.920124   -4.672942   -0.101653
     41          8           0        4.924137   -5.882208   -0.024986
     42          6           0        3.647904   -3.878829   -0.509975
     43          6           0        2.504519   -4.162085    0.394871
     44          8           0        2.378118   -3.695145    1.519740
     45          8           0        1.652327   -5.028193   -0.170917
     46          6           0        0.549796   -5.393789    0.601136
     47          6           0       -4.068751   -1.829753   -0.684962
     48          6           0       -5.311825   -1.083908   -1.024854
     49          6           0       -6.579970   -1.399979   -0.838002
     50          6           0       -7.012945   -2.683603   -0.020431
     51          6           0       -7.684001   -0.640371   -1.621370
     52          6           0       -9.000288   -0.353792   -0.917573
     53          6           0       -8.771381    0.394406    0.419159
     54          6           0       -9.306333    1.894841    0.592467
     55          6           0       -8.134167    2.946049    0.458455
     56          6           0      -10.090897    1.959830    1.885441
     57          6           0      -11.611579    1.813310    1.661121
     58          6           0      -12.497712    0.978041    2.608737
     59          6           0      -13.944164    1.499380    2.782245
     60          6           0      -14.331950    1.368442    4.216481
     61          6           0      -14.980565    0.781087    1.968420
     62          6           0      -15.139910    1.225298    0.478576
     63          6           0      -14.889256   -0.025945   -0.441502
     64          6           0      -14.600668    0.416512   -1.911094
     65          6           0      -15.379050   -0.416699   -2.929099
     66          6           0      -13.070244    0.479338   -2.201525
     67          1           0        3.038601    3.182368   -1.582459
     68          1           0        9.181463    3.811669    0.100079
     69          1           0        9.782537   -2.395744    0.768884
     70          1           0        2.181980   -1.596244   -2.405837
     71          1           0        1.368917    1.160446   -1.087637
     72          1           0        2.707321    1.407668   -3.632782
     73          1           0        1.037331    1.729820   -3.035602
     74          1           0        1.441187    0.138323   -3.667659
     75          1           0        1.002795   -1.164184    0.281698
     76          1           0        0.947089   -2.564309   -0.714092
     77          1           0       -0.417960   -0.814318   -2.397670
     78          1           0       -0.545454   -0.109872   -0.735280
     79          1           0        3.142625    5.318672   -1.240128
     80          1           0        4.408260    6.236403   -2.007131
     81          1           0        4.145076    6.507168   -0.336603
     82          1           0        5.979139    7.613881    0.405917
     83          1           0        6.245487    7.587859   -1.272314
     84          1           0        7.564576    8.183556   -0.060400
     85          1           0       10.737115    2.088899    1.538700
     86          1           0       11.281393   -0.537590    0.516399
     87          1           0       12.104737    2.792312    0.069301
     88          1           0       10.847350    2.572080   -1.089704
     89          1           0       12.095298    1.217635   -0.762100
     90          1           0       11.356730    0.674822    2.958115
     91          1           0       11.344097   -1.077575    2.597045
     92          1           0        9.374611   -1.438267    3.673525
     93          1           0        8.684682    0.224438    3.516488
     94          1           0        9.939451    0.000844    4.557209
     95          1           0        9.097547   -4.665811    0.825416
     96          1           0        8.051796   -5.583331   -0.387862
     97          1           0        7.760460   -5.599706    1.361051
     98          1           0        3.278030   -4.025405   -1.524196
     99          1           0        0.179995   -6.332309    0.187532
    100          1           0       -0.270071   -4.689494    0.460945
    101          1           0        0.789961   -5.453425    1.663246
    102          1           0       -4.070924   -1.998479    0.392517
    103          1           0       -4.084257   -2.840971   -1.090109
    104          1           0       -5.140234   -0.246318   -1.700980
    105          1           0       -7.038506   -2.354199    1.017494
    106          1           0       -6.248233   -3.455324   -0.112416
    107          1           0       -7.933661   -3.081770   -0.446504
    108          1           0       -8.000429   -1.329321   -2.405590
    109          1           0       -7.253428    0.307906   -1.943657
    110          1           0       -9.498013   -1.304887   -0.730106
    111          1           0       -9.596942    0.240042   -1.609324
    112          1           0       -7.690495    0.443315    0.552962
    113          1           0       -9.161315   -0.326948    1.137448
    114          1           0       -9.940943    2.104958   -0.268550
    115          1           0       -8.416109    3.740092   -0.231805
    116          1           0       -7.270865    2.412832    0.060560
    117          1           0       -7.998537    3.446491    1.417738
    118          1           0      -10.106813    2.947493    2.346658
    119          1           0       -9.804333    1.220317    2.633926
    120          1           0      -11.777658    1.318892    0.704194
    121          1           0      -12.078717    2.796740    1.612390
    122          1           0      -12.008045    0.988872    3.581986
    123          1           0      -12.544664   -0.029356    2.195742
    124          1           0      -14.028109    2.559224    2.545757
    125          1           0      -13.593971    0.961005    4.907484
    126          1           0      -15.345651    0.977338    4.299655
    127          1           0      -14.430613    2.387877    4.590723
    128          1           0      -15.983650    0.822516    2.392890
    129          1           0      -14.779746   -0.280454    2.110675
    130          1           0      -14.328047    1.936970    0.327053
    131          1           0      -16.139132    1.594926    0.249738
    132          1           0      -15.769751   -0.668339   -0.425823
    133          1           0      -14.112111   -0.663117   -0.019243
    134          1           0      -14.993181    1.421454   -2.063079
    135          1           0      -14.721150   -1.121946   -3.437250
    136          1           0      -15.910792    0.193194   -3.658287
    137          1           0      -16.169819   -1.023682   -2.488782
    138          1           0      -12.873070    0.103331   -3.204981
    139          1           0      -12.348093   -0.046539   -1.575602
    140          1           0      -12.842763    1.544783   -2.178794
 ---------------------------------------------------------------------

 SCF Done:  E(RPBE1PBE) =  -3005.34845035     A.U. after   16 cycles

 Excitation energies and oscillator strengths:

 Excited State   1:      Singlet-A      1.8024 eV  687.87 nm  f=0.3733  <S**2>=0.000
     245 -> 248       -0.16783
     246 -> 247        0.69624
     246 <- 247       -0.11563
 This state for optimization and/or second-order correction.
 Total Energy, E(TD-HF/TD-DFT) =  -3005.28221246
 Copying the excited state density for this state as the 1-particle RhoCI density.

 Excited State   2:      Singlet-A      2.2234 eV  557.64 nm  f=0.1021  <S**2>=0.000
     245 -> 247        0.64642
     246 -> 248        0.27642

 Excited State   3:      Singlet-A      2.9526 eV  419.91 nm  f=0.0004  <S**2>=0.000
     240 -> 247       -0.12854
     243 -> 247        0.60412
     243 -> 249       -0.14431
     244 -> 247       -0.27970

 Excited State   4:      Singlet-A      3.0424 eV  407.51 nm  f=0.0001  <S**2>=0.000
     242 -> 247        0.30870
     243 -> 247        0.22504
     244 -> 247        0.55837
     246 -> 248       -0.10781

 Excited State   5:      Singlet-A      3.1186 eV  397.56 nm  f=0.0002  <S**2>=0.000
     240 -> 247        0.10920
     242 -> 247        0.60172
     244 -> 247       -0.29234

 The electronic state is 1-A.
 Alpha  occ. eigenvalues --  -46.92165 -19.26991 -19.25395 -19.21006 -19.18906
 Alpha  occ. eigenvalues --  -19.18860 -19.18692 -14.41892 -14.40976 -14.39452
 Alpha  occ. eigenvalues --  -14.39291 -10.37639 -10.35542 -10.31914 -10.31412
 Alpha  occ. eigenvalues --  -10.30426 -10.29522 -10.28622 -10.28184 -10.28055
 Alpha  occ. eigenvalues --  -10.28027 -10.27763 -10.27470 -10.26861 -10.26672
 Alpha  occ. eigenvalues --  -10.26630 -10.26619 -10.25856 -10.25851 -10.25751
 Alpha  occ. eigenvalues --  -10.25654 -10.25416 -10.25174 -10.24749 -10.24742
 Alpha  occ. eigenvalues --  -10.24737 -10.24469 -10.24403 -10.24347 -10.24222
 Alpha  occ. eigenvalues --  -10.23993 -10.23945 -10.23927 -10.23835 -10.23588
 Alpha  occ. eigenvalues --  -10.23452 -10.23451 -10.23425 -10.23328 -10.23168
 Alpha  occ. eigenvalues --  -10.23015 -10.23004 -10.22583 -10.22567 -10.22554
 Alpha  occ. eigenvalues --  -10.22460 -10.22328 -10.22269 -10.22223 -10.22200
 Alpha  occ. eigenvalues --  -10.21962 -10.21910 -10.21825 -10.21651 -10.21459
 Alpha  occ. eigenvalues --  -10.20982  -3.14268  -1.87087  -1.86631  -1.86509
 Alpha  occ. eigenvalues --   -1.12446  -1.11713  -1.05095  -1.05013  -1.03011
 Alpha  occ. eigenvalues --   -1.02272  -0.99216  -0.98128  -0.96324  -0.94147
 Alpha  occ. eigenvalues --   -0.86426  -0.85143  -0.84509  -0.83666  -0.83553
 Alpha  occ. eigenvalues --   -0.82702  -0.82452  -0.82030  -0.81714  -0.81433
 Alpha  occ. eigenvalues --   -0.80790  -0.80037  -0.78909  -0.78074  -0.77121
 Alpha  occ. eigenvalues --   -0.76656  -0.76147  -0.75362  -0.75191  -0.74622
 Alpha  occ. eigenvalues --   -0.74004  -0.72725  -0.72486  -0.71694  -0.70607
 Alpha  occ. eigenvalues --   -0.70287  -0.69664  -0.69508  -0.69324  -0.68237
 Alpha  occ. eigenvalues --   -0.68035  -0.67147  -0.65694  -0.64823  -0.63941
 Alpha  occ. eigenvalues --   -0.63091  -0.62000  -0.61321  -0.60756  -0.59845
 Alpha  occ. eigenvalues --   -0.59344  -0.59209  -0.58808  -0.58389  -0.58156
 Alpha  occ. eigenvalues --   -0.58094  -0.57834  -0.56889  -0.56503  -0.54487
 Alpha  occ. eigenvalues --   -0.54393  -0.53918  -0.53514  -0.52751  -0.52338
 Alpha  occ. eigenvalues --   -0.51666  -0.51267  -0.50880  -0.50616  -0.50277
 Alpha  occ. eigenvalues --   -0.49935  -0.49591  -0.49277  -0.48948  -0.48815
 Alpha  occ. eigenvalues --   -0.48658  -0.48143  -0.47941  -0.47725  -0.47219
 Alpha  occ. eigenvalues --   -0.47070  -0.46833  -0.46595  -0.46385  -0.46274
 Alpha  occ. eigenvalues --   -0.46141  -0.45837  -0.45808  -0.45540  -0.45359
 Alpha  occ. eigenvalues --   -0.45147  -0.45127  -0.44647  -0.44424  -0.44264
 Alpha  occ. eigenvalues --   -0.44020  -0.43900  -0.43860  -0.43635  -0.43328
 Alpha  occ. eigenvalues --   -0.43161  -0.42870  -0.42830  -0.42747  -0.42657
 Alpha  occ. eigenvalues --   -0.42501  -0.42050  -0.41793  -0.41560  -0.41412
 Alpha  occ. eigenvalues --   -0.41286  -0.40932  -0.40789  -0.40607  -0.40497
 Alpha  occ. eigenvalues --   -0.40326  -0.40237  -0.39771  -0.39540  -0.39475
 Alpha  occ. eigenvalues --   -0.39341  -0.39231  -0.39162  -0.39042  -0.38985
 Alpha  occ. eigenvalues --   -0.38746  -0.38674  -0.38338  -0.38166  -0.38103
 Alpha  occ. eigenvalues --   -0.37527  -0.37216  -0.37012  -0.36774  -0.36528
 Alpha  occ. eigenvalues --   -0.36383  -0.36332  -0.36098  -0.35916  -0.35865
 Alpha  occ. eigenvalues --   -0.35657  -0.35317  -0.35251  -0.34788  -0.34531
 Alpha  occ. eigenvalues --   -0.34255  -0.34174  -0.33967  -0.33418  -0.33081
 Alpha  occ. eigenvalues --   -0.32977  -0.32874  -0.32644  -0.32542  -0.32245
 Alpha  occ. eigenvalues --   -0.32163  -0.31858  -0.31763  -0.31691  -0.31016
 Alpha  occ. eigenvalues --   -0.30779  -0.30478  -0.30225  -0.29755  -0.29390
 Alpha  occ. eigenvalues --   -0.28655  -0.28348  -0.28088  -0.26494  -0.26004
 Alpha  occ. eigenvalues --   -0.25914  -0.25452  -0.25333  -0.25048  -0.20851
 Alpha  occ. eigenvalues --   -0.18374
 Alpha virt. eigenvalues --   -0.11028  -0.04961  -0.03743  -0.01976  -0.00743
 Alpha virt. eigenvalues --   -0.00404   0.01039   0.01157   0.01464   0.03483
 Alpha virt. eigenvalues --    0.04330   0.04458   0.04867   0.05447   0.05617

 Mulliken charges:
               1
     1  Mg   0.978078
     2  C   -0.112410
     3  C   -0.064973
     4  C   -0.052834
     5  C   -0.093788
     6  N   -0.426032
     7  C    0.100723
     8  C   -0.101482
     9  C   -0.161213
    10  C    0.127753
    11  C    0.019921
    12  C   -0.054148
    13  C   -0.021226
    14  C    0.262655
    15  O   -0.277540
    16  O   -0.364318
    17  N   -0.483369
    18  C    0.100038
    19  C   -0.152518
    20  C   -0.081255
    21  C    0.130983
    22  C    0.046470
    23  C    0.042752
    24  O   -0.236594
    25  C   -0.042530
    26  N   -0.410482
    27  C    0.092654
    28  C   -0.111970
    29  C   -0.115700
    30  C    0.079800
    31  C    0.047653
    32  C   -0.042752
    33  C   -0.063913
    34  N   -0.462834
    35  C    0.184064
    36  C   -0.197773
    37  C   -0.013919
    38  C    0.206731
    39  C    0.089628
    40  C    0.109767
    41  O   -0.208396
    42  C   -0.035104
    43  C    0.251476
    44  O   -0.263785
    45  O   -0.316335
    46  C    0.111565
    47  C    0.241401
    48  C   -0.125459
    49  C   -0.244651
    50  C    0.004689
    51  C    0.014146
    52  C   -0.066714
    53  C   -0.039872
    54  C   -0.211195
    55  C   -0.003856
    56  C    0.052853
    57  C   -0.120475
    58  C    0.026913
    59  C   -0.230404
    60  C    0.009636
    61  C   -0.019107
    62  C   -0.034132
    63  C   -0.036151
    64  C   -0.225741
    65  C   -0.020356
    66  C   -0.024479
    67  H   -0.005248
    68  H    0.040936
    69  H    0.002503
    70  H    0.054139
    71  H    0.058967
    72  H    0.058343
    73  H    0.034409
    74  H    0.043014
    75  H    0.047617
    76  H    0.075763
    77  H    0.073626
    78  H    0.067577
    79  H    0.044979
    80  H    0.059312
    81  H    0.050304
    82  H    0.057000
    83  H    0.052130
    84  H    0.061944
    85  H    0.037760
    86  H    0.036714
    87  H    0.038768
    88  H    0.046414
    89  H    0.044475
    90  H    0.043642
    91  H    0.035365
    92  H    0.053827
    93  H    0.043782
    94  H    0.036327
    95  H    0.022458
    96  H    0.072956
    97  H    0.063879
    98  H    0.066865
    99  H    0.046724
   100  H    0.057296
   101  H    0.058469
   102  H    0.053329
   103  H    0.067357
   104  H    0.028788
   105  H    0.067655
   106  H    0.042445
   107  H    0.051073
   108  H    0.044646
   109  H    0.037452
   110  H    0.027037
   111  H    0.045587
   112  H    0.042267
   113  H    0.028891
   114  H    0.038363
   115  H    0.032297
   116  H    0.038028
   117  H    0.037104
   118  H    0.021747
   119  H    0.032427
   120  H    0.034745
   121  H    0.028185
   122  H    0.024278
   123  H    0.025829
   124  H    0.027765
   125  H    0.034591
   126  H    0.025816
   127  H    0.017167
   128  H    0.018710
   129  H    0.016953
   130  H    0.039040
   131  H    0.041885
   132  H    0.021843
   133  H    0.026805
   134  H    0.037391
   135  H    0.030154
   136  H    0.033803
   137  H    0.023229
   138  H    0.024843
   139  H    0.049378
   140  H    0.037495
 Sum of Mulliken charges =  -0.00000

 Dipole moment (field-independent basis, Debye):
    X=             -3.9491    Y=              3.4774    Z=             -1.1099  Tot=              5.3777
 Quadrupole moment (field-independent basis, Debye-Ang):
   XX=           -367.4333   YY=           -423.5073   ZZ=           -401.6740
   XY=             -6.6393   XZ=              9.6492   YZ=             -2.1244

 Normal termination of Gaussian 16 at Wed May  4 14:16:09 2022.
