 Gaussian 16, Revision A.03,
 Gaussian 16:  ES64L-G16RevA.03 25-Dec-2016

 --------------------------------
 #p wB97XD/Def2SVP td=(nstates=5)
 --------------------------------

 ----------------------------------------------------
 step_1851_chromophore_1 TDDFT with wB97XD functional
 ----------------------------------------------------
 Symbolic Z-matrix:
 Charge =  0 Multiplicity = 1

                         Standard orientation:
 ---------------------------------------------------------------------
 Center     Atomic      Atomic             Coordinates (Angstroms)
 Number     Number       Type             X           Y           Z
 ---------------------------------------------------------------------
      1         12           0        6.287457    0.519837    0.261121
      2          6           0        4.220208   -2.408480   -0.503309
      3          6           0        3.734574    2.480846   -1.117312
      4          6           0        8.427162    3.036307    0.246707
      5          6           0        8.891496   -1.780242    0.633261
      6          7           0        4.216762    0.065354   -0.580161
      7          6           0        3.535020   -1.196561   -0.790094
      8          6           0        2.190681   -0.996673   -1.494965
      9          6           0        2.094096    0.613031   -1.690141
     10          6           0        3.404022    1.126998   -1.094151
     11          6           0        1.837503    0.994502   -3.122743
     12          6           0        0.921222   -1.475328   -0.760100
     13          6           0       -0.465287   -1.020417   -1.327701
     14          6           0       -1.659368   -1.896214   -1.041396
     15          8           0       -1.604313   -3.122728   -0.890437
     16          8           0       -2.804226   -1.163854   -1.095371
     17          7           0        6.064225    2.534001   -0.240005
     18          6           0        4.943827    3.205088   -0.742500
     19          6           0        5.145991    4.694604   -0.709920
     20          6           0        6.546122    4.825828   -0.298267
     21          6           0        7.056913    3.446130   -0.082962
     22          6           0        4.145277    5.715835   -1.086500
     23          6           0        7.405275    6.049943   -0.213211
     24          8           0        8.571332    5.949188    0.101384
     25          6           0        6.775063    7.479690   -0.325762
     26          7           0        8.362402    0.607361    0.270841
     27          6           0        8.938614    1.786479    0.473780
     28          6           0       10.489803    1.521576    0.641507
     29          6           0       10.540703    0.065633    1.040164
     30          6           0        9.177731   -0.427305    0.598258
     31          6           0       11.473169    2.027800   -0.382890
     32          6           0       10.772901   -0.151125    2.552063
     33          6           0        9.592162   -0.373466    3.593792
     34          7           0        6.503569   -1.557924    0.326621
     35          6           0        7.656077   -2.350815    0.487775
     36          6           0        7.313913   -3.770922    0.408501
     37          6           0        5.980559   -3.763623    0.111313
     38          6           0        5.555815   -2.406940   -0.079102
     39          6           0        8.100641   -4.989727    0.524398
     40          6           0        4.920124   -4.672942   -0.101653
     41          8           0        4.924137   -5.882208   -0.024986
     42          6           0        3.647904   -3.878829   -0.509975
     43          6           0        2.504519   -4.162085    0.394871
     44          8           0        2.378118   -3.695145    1.519740
     45          8           0        1.652327   -5.028193   -0.170917
     46          6           0        0.549796   -5.393789    0.601136
     47          6           0       -4.068751   -1.829753   -0.684962
     48          6           0       -5.311825   -1.083908   -1.024854
     49          6           0       -6.579970   -1.399979   -0.838002
     50          6           0       -7.012945   -2.683603   -0.020431
     51          6           0       -7.684001   -0.640371   -1.621370
     52          6           0       -9.000288   -0.353792   -0.917573
     53          6           0       -8.771381    0.394406    0.419159
     54          6           0       -9.306333    1.894841    0.592467
     55          6           0       -8.134167    2.946049    0.458455
     56          6           0      -10.090897    1.959830    1.885441
     57          6           0      -11.611579    1.813310    1.661121
     58          6           0      -12.497712    0.978041    2.608737
     59          6           0      -13.944164    1.499380    2.782245
     60          6           0      -14.331950    1.368442    4.216481
     61          6           0      -14.980565    0.781087    1.968420
     62          6           0      -15.139910    1.225298    0.478576
     63          6           0      -14.889256   -0.025945   -0.441502
     64          6           0      -14.600668    0.416512   -1.911094
     65          6           0      -15.379050   -0.416699   -2.929099
     66          6           0      -13.070244    0.479338   -2.201525
     67          1           0        3.038601    3.182368   -1.582459
     68          1           0        9.181463    3.811669    0.100079
     69          1           0        9.782537   -2.395744    0.768884
     70          1           0        2.181980   -1.596244   -2.405837
     71          1           0        1.368917    1.160446   -1.087637
     72          1           0        2.707321    1.407668   -3.632782
     73          1           0        1.037331    1.729820   -3.035602
     74          1           0        1.441187    0.138323   -3.667659
     75          1           0        1.002795   -1.164184    0.281698
     76          1           0        0.947089   -2.564309   -0.714092
     77          1           0       -0.417960   -0.814318   -2.397670
     78          1           0       -0.545454   -0.109872   -0.735280
     79          1           0        3.142625    5.318672   -1.240128
     80          1           0        4.408260    6.236403   -2.007131
     81          1           0        4.145076    6.507168   -0.336603
     82          1           0        5.979139    7.613881    0.405917
     83          1           0        6.245487    7.587859   -1.272314
     84          1           0        7.564576    8.183556   -0.060400
     85          1           0       10.737115    2.088899    1.538700
     86          1           0       11.281393   -0.537590    0.516399
     87          1           0       12.104737    2.792312    0.069301
     88          1           0       10.847350    2.572080   -1.089704
     89          1           0       12.095298    1.217635   -0.762100
     90          1           0       11.356730    0.674822    2.958115
     91          1           0       11.344097   -1.077575    2.597045
     92          1           0        9.374611   -1.438267    3.673525
     93          1           0        8.684682    0.224438    3.516488
     94          1           0        9.939451    0.000844    4.557209
     95          1           0        9.097547   -4.665811    0.825416
     96          1           0        8.051796   -5.583331   -0.387862
     97          1           0        7.760460   -5.599706    1.361051
     98          1           0        3.278030   -4.025405   -1.524196
     99          1           0        0.179995   -6.332309    0.187532
    100          1           0       -0.270071   -4.689494    0.460945
    101          1           0        0.789961   -5.453425    1.663246
    102          1           0       -4.070924   -1.998479    0.392517
    103          1           0       -4.084257   -2.840971   -1.090109
    104          1           0       -5.140234   -0.246318   -1.700980
    105          1           0       -7.038506   -2.354199    1.017494
    106          1           0       -6.248233   -3.455324   -0.112416
    107          1           0       -7.933661   -3.081770   -0.446504
    108          1           0       -8.000429   -1.329321   -2.405590
    109          1           0       -7.253428    0.307906   -1.943657
    110          1           0       -9.498013   -1.304887   -0.730106
    111          1           0       -9.596942    0.240042   -1.609324
    112          1           0       -7.690495    0.443315    0.552962
    113          1           0       -9.161315   -0.326948    1.137448
    114          1           0       -9.940943    2.104958   -0.268550
    115          1           0       -8.416109    3.740092   -0.231805
    116          1           0       -7.270865    2.412832    0.060560
    117          1           0       -7.998537    3.446491    1.417738
    118          1           0      -10.106813    2.947493    2.346658
    119          1           0       -9.804333    1.220317    2.633926
    120          1           0      -11.777658    1.318892    0.704194
    121          1           0      -12.078717    2.796740    1.612390
    122          1           0      -12.008045    0.988872    3.581986
    123          1           0      -12.544664   -0.029356    2.195742
    124          1           0      -14.028109    2.559224    2.545757
    125          1           0      -13.593971    0.961005    4.907484
    126          1           0      -15.345651    0.977338    4.299655
    127          1           0      -14.430613    2.387877    4.590723
    128          1           0      -15.983650    0.822516    2.392890
    129          1           0      -14.779746   -0.280454    2.110675
    130          1           0      -14.328047    1.936970    0.327053
    131          1           0      -16.139132    1.594926    0.249738
    132          1           0      -15.769751   -0.668339   -0.425823
    133          1           0      -14.112111   -0.663117   -0.019243
    134          1           0      -14.993181    1.421454   -2.063079
    135          1           0      -14.721150   -1.121946   -3.437250
    136          1           0      -15.910792    0.193194   -3.658287
    137          1           0      -16.169819   -1.023682   -2.488782
    138          1           0      -12.873070    0.103331   -3.204981
    139          1           0      -12.348093   -0.046539   -1.575602
    140          1           0      -12.842763    1.544783   -2.178794
 ---------------------------------------------------------------------

 SCF Done:  E(RwB97XD) =  -3007.85932182     A.U. after   19 cycles

 Excitation energies and oscillator strengths:

 Excited State   1:      Singlet-A      1.5990 eV  775.40 nm  f=0.3860  <S**2>=0.000
     245 -> 248       -0.17690
     246 -> 247        0.68633
     245 <- 248       -0.11756
 This state for optimization and/or second-order correction.
 Total Energy, E(TD-HF/TD-DFT) =  -3007.80056086
 Copying the excited state density for this state as the 1-particle RhoCI density.

 Excited State   2:      Singlet-A      2.1663 eV  572.32 nm  f=0.0998  <S**2>=0.000
     245 -> 247        0.63236
     246 -> 248        0.30525

 Excited State   3:      Singlet-A      3.3933 eV  365.37 nm  f=0.0209  <S**2>=0.000
     240 -> 247        0.16955
     240 -> 249       -0.16933
     242 -> 247        0.49501
     242 -> 249       -0.16440
     243 -> 247       -0.24677
     244 -> 247       -0.19572
     246 -> 248       -0.15005

 Excited State   4:      Singlet-A      3.4573 eV  358.62 nm  f=0.2066  <S**2>=0.000
     244 -> 247        0.51533
     245 -> 247        0.17518
     246 -> 248       -0.42636

 Excited State   5:      Singlet-A      3.5450 eV  349.75 nm  f=0.3377  <S**2>=0.000
     239 -> 247       -0.25013
     239 -> 249        0.12790
     240 -> 247        0.34071
     240 -> 249       -0.16988
     244 -> 247        0.26963
     245 -> 247       -0.18122
     246 -> 248        0.36559

 The electronic state is 1-A.
 Alpha  occ. eigenvalues --  -46.95090 -19.31561 -19.30076 -19.25682 -19.24008
 Alpha  occ. eigenvalues --  -19.23755 -19.23234 -14.46896 -14.46111 -14.44400
 Alpha  occ. eigenvalues --  -14.44206 -10.44437 -10.42517 -10.38569 -10.38499
 Alpha  occ. eigenvalues --  -10.36933 -10.36041 -10.34654 -10.34571 -10.34464
 Alpha  occ. eigenvalues --  -10.34062 -10.33987 -10.33572 -10.33317 -10.33197
 Alpha  occ. eigenvalues --  -10.32913 -10.32905 -10.32249 -10.32208 -10.32188
 Alpha  occ. eigenvalues --  -10.32037 -10.31999 -10.31732 -10.30991 -10.30949
 Alpha  occ. eigenvalues --  -10.30828 -10.30806 -10.30757 -10.30736 -10.30586
 Alpha  occ. eigenvalues --  -10.30583 -10.30304 -10.30229 -10.30010 -10.29989
 Alpha  occ. eigenvalues --  -10.29893 -10.29851 -10.29770 -10.29740 -10.29607
 Alpha  occ. eigenvalues --  -10.29492 -10.29385 -10.28935 -10.28930 -10.28910
 Alpha  occ. eigenvalues --  -10.28740 -10.28710 -10.28693 -10.28587 -10.28578
 Alpha  occ. eigenvalues --  -10.28572 -10.28383 -10.28218 -10.28009 -10.27882
 Alpha  occ. eigenvalues --  -10.27399  -3.21064  -1.94630  -1.94177  -1.94050
 Alpha  occ. eigenvalues --   -1.19936  -1.19101  -1.12794  -1.12316  -1.10362
 Alpha  occ. eigenvalues --   -1.09777  -1.06691  -1.05694  -1.03399  -1.01568
 Alpha  occ. eigenvalues --   -0.94238  -0.92826  -0.92165  -0.91323  -0.91183
 Alpha  occ. eigenvalues --   -0.90374  -0.90213  -0.89699  -0.89374  -0.88943
 Alpha  occ. eigenvalues --   -0.88315  -0.87659  -0.86498  -0.85761  -0.84728
 Alpha  occ. eigenvalues --   -0.84317  -0.83843  -0.82977  -0.82804  -0.82260
 Alpha  occ. eigenvalues --   -0.81626  -0.80478  -0.79959  -0.79294  -0.78315
 Alpha  occ. eigenvalues --   -0.77997  -0.77358  -0.77114  -0.76988  -0.75898
 Alpha  occ. eigenvalues --   -0.75636  -0.74721  -0.73225  -0.72415  -0.71576
 Alpha  occ. eigenvalues --   -0.70674  -0.69630  -0.68778  -0.68318  -0.67356
 Alpha  occ. eigenvalues --   -0.66828  -0.66777  -0.66328  -0.65885  -0.65786
 Alpha  occ. eigenvalues --   -0.65611  -0.65508  -0.64513  -0.63986  -0.61988
 Alpha  occ. eigenvalues --   -0.61710  -0.61426  -0.61038  -0.60179  -0.59969
 Alpha  occ. eigenvalues --   -0.59135  -0.58706  -0.58380  -0.58068  -0.57606
 Alpha  occ. eigenvalues --   -0.57383  -0.57004  -0.56678  -0.56400  -0.56277
 Alpha  occ. eigenvalues --   -0.56112  -0.55571  -0.55334  -0.55125  -0.54590
 Alpha  occ. eigenvalues --   -0.54480  -0.54177  -0.53965  -0.53731  -0.53689
 Alpha  occ. eigenvalues --   -0.53562  -0.53214  -0.53167  -0.52930  -0.52825
 Alpha  occ. eigenvalues --   -0.52486  -0.52398  -0.51957  -0.51767  -0.51498
 Alpha  occ. eigenvalues --   -0.51390  -0.51240  -0.51070  -0.50926  -0.50635
 Alpha  occ. eigenvalues --   -0.50464  -0.50132  -0.50117  -0.50004  -0.49849
 Alpha  occ. eigenvalues --   -0.49777  -0.49280  -0.49034  -0.48906  -0.48644
 Alpha  occ. eigenvalues --   -0.48471  -0.48159  -0.47912  -0.47794  -0.47765
 Alpha  occ. eigenvalues --   -0.47595  -0.47475  -0.46984  -0.46820  -0.46686
 Alpha  occ. eigenvalues --   -0.46555  -0.46327  -0.46312  -0.46256  -0.46089
 Alpha  occ. eigenvalues --   -0.45900  -0.45756  -0.45465  -0.45332  -0.45207
 Alpha  occ. eigenvalues --   -0.44719  -0.44332  -0.44150  -0.43825  -0.43675
 Alpha  occ. eigenvalues --   -0.43493  -0.43409  -0.43225  -0.43152  -0.42859
 Alpha  occ. eigenvalues --   -0.42709  -0.42403  -0.42355  -0.41832  -0.41516
 Alpha  occ. eigenvalues --   -0.41276  -0.41156  -0.41013  -0.40466  -0.40119
 Alpha  occ. eigenvalues --   -0.39968  -0.39944  -0.39603  -0.39466  -0.39278
 Alpha  occ. eigenvalues --   -0.39191  -0.38911  -0.38788  -0.38693  -0.37981
 Alpha  occ. eigenvalues --   -0.37723  -0.37569  -0.37184  -0.36885  -0.36184
 Alpha  occ. eigenvalues --   -0.35580  -0.35536  -0.34733  -0.33153  -0.33059
 Alpha  occ. eigenvalues --   -0.32678  -0.32413  -0.32274  -0.31348  -0.25890
 Alpha  occ. eigenvalues --   -0.22500
 Alpha virt. eigenvalues --   -0.06907   0.00477   0.02487   0.04585   0.05538
 Alpha virt. eigenvalues --    0.06167   0.07774   0.07866   0.08207   0.09991
 Alpha virt. eigenvalues --    0.10928   0.11155   0.11614   0.12175   0.12251

 Mulliken charges:
               1
     1  Mg   0.966546
     2  C   -0.127452
     3  C   -0.075028
     4  C   -0.062991
     5  C   -0.118357
     6  N   -0.398662
     7  C    0.069217
     8  C   -0.077293
     9  C   -0.130481
    10  C    0.113200
    11  C    0.026772
    12  C   -0.031715
    13  C   -0.004284
    14  C    0.252649
    15  O   -0.274481
    16  O   -0.362770
    17  N   -0.452508
    18  C    0.087765
    19  C   -0.144145
    20  C   -0.075602
    21  C    0.116294
    22  C    0.059153
    23  C    0.036195
    24  O   -0.233654
    25  C   -0.028322
    26  N   -0.373636
    27  C    0.075350
    28  C   -0.085597
    29  C   -0.089023
    30  C    0.069613
    31  C    0.059177
    32  C   -0.033730
    33  C   -0.045768
    34  N   -0.428067
    35  C    0.187231
    36  C   -0.196110
    37  C   -0.007923
    38  C    0.201127
    39  C    0.099294
    40  C    0.092438
    41  O   -0.195462
    42  C    0.005049
    43  C    0.228538
    44  O   -0.256727
    45  O   -0.313293
    46  C    0.129029
    47  C    0.253221
    48  C   -0.136142
    49  C   -0.230902
    50  C    0.018344
    51  C    0.037021
    52  C   -0.050166
    53  C   -0.022853
    54  C   -0.180576
    55  C    0.010769
    56  C    0.066098
    57  C   -0.090297
    58  C    0.038930
    59  C   -0.196358
    60  C    0.020634
    61  C   -0.005960
    62  C   -0.012317
    63  C   -0.019825
    64  C   -0.195534
    65  C   -0.007912
    66  C   -0.011327
    67  H   -0.015083
    68  H    0.035918
    69  H   -0.001301
    70  H    0.044168
    71  H    0.046824
    72  H    0.053760
    73  H    0.029433
    74  H    0.035407
    75  H    0.041078
    76  H    0.051771
    77  H    0.067224
    78  H    0.060569
    79  H    0.040253
    80  H    0.052755
    81  H    0.042266
    82  H    0.050521
    83  H    0.045517
    84  H    0.060001
    85  H    0.024570
    86  H    0.027515
    87  H    0.033882
    88  H    0.039038
    89  H    0.038654
    90  H    0.036657
    91  H    0.028001
    92  H    0.046896
    93  H    0.036163
    94  H    0.031551
    95  H    0.016971
    96  H    0.070967
    97  H    0.061576
    98  H    0.062069
    99  H    0.043488
   100  H    0.049883
   101  H    0.054385
   102  H    0.048271
   103  H    0.062205
   104  H    0.025851
   105  H    0.062122
   106  H    0.036934
   107  H    0.045937
   108  H    0.036850
   109  H    0.028674
   110  H    0.018068
   111  H    0.036247
   112  H    0.025040
   113  H    0.020152
   114  H    0.024523
   115  H    0.027204
   116  H    0.030557
   117  H    0.031295
   118  H    0.014064
   119  H    0.023496
   120  H    0.011011
   121  H    0.018508
   122  H    0.013737
   123  H    0.016549
   124  H    0.014974
   125  H    0.029085
   126  H    0.019487
   127  H    0.011346
   128  H    0.010146
   129  H    0.005223
   130  H    0.023090
   131  H    0.035604
   132  H    0.012453
   133  H    0.015019
   134  H    0.026361
   135  H    0.023486
   136  H    0.028798
   137  H    0.016647
   138  H    0.018991
   139  H    0.040977
   140  H    0.031267
 Sum of Mulliken charges =  -0.00000

 Dipole moment (field-independent basis, Debye):
    X=             -3.9254    Y=              2.8512    Z=             -1.0097  Tot=              4.9555
 Quadrupole moment (field-independent basis, Debye-Ang):
   XX=           -366.6421   YY=           -422.5076   ZZ=           -401.2515
   XY=            -10.5419   XZ=              9.9413   YZ=             -2.0119

 Normal termination of Gaussian 16 at Wed May  4 14:40:58 2022.
