 Gaussian 16, Revision A.03,
 Gaussian 16:  ES64L-G16RevA.03 25-Dec-2016

 --------------------
 #p ZINDO=(nstates=5)
 --------------------

 -----------------------------
 step_1851_chromophore_1 ZINDO
 -----------------------------
 Symbolic Z-matrix:
 Charge =  0 Multiplicity = 1

                         Standard orientation:
 ---------------------------------------------------------------------
 Center     Atomic      Atomic             Coordinates (Angstroms)
 Number     Number       Type             X           Y           Z
 ---------------------------------------------------------------------
      1         12           0        6.287457    0.519837    0.261121
      2          6           0        4.220208   -2.408480   -0.503309
      3          6           0        3.734574    2.480846   -1.117312
      4          6           0        8.427162    3.036307    0.246707
      5          6           0        8.891496   -1.780242    0.633261
      6          7           0        4.216762    0.065354   -0.580161
      7          6           0        3.535020   -1.196561   -0.790094
      8          6           0        2.190681   -0.996673   -1.494965
      9          6           0        2.094096    0.613031   -1.690141
     10          6           0        3.404022    1.126998   -1.094151
     11          6           0        1.837503    0.994502   -3.122743
     12          6           0        0.921222   -1.475328   -0.760100
     13          6           0       -0.465287   -1.020417   -1.327701
     14          6           0       -1.659368   -1.896214   -1.041396
     15          8           0       -1.604313   -3.122728   -0.890437
     16          8           0       -2.804226   -1.163854   -1.095371
     17          7           0        6.064225    2.534001   -0.240005
     18          6           0        4.943827    3.205088   -0.742500
     19          6           0        5.145991    4.694604   -0.709920
     20          6           0        6.546122    4.825828   -0.298267
     21          6           0        7.056913    3.446130   -0.082962
     22          6           0        4.145277    5.715835   -1.086500
     23          6           0        7.405275    6.049943   -0.213211
     24          8           0        8.571332    5.949188    0.101384
     25          6           0        6.775063    7.479690   -0.325762
     26          7           0        8.362402    0.607361    0.270841
     27          6           0        8.938614    1.786479    0.473780
     28          6           0       10.489803    1.521576    0.641507
     29          6           0       10.540703    0.065633    1.040164
     30          6           0        9.177731   -0.427305    0.598258
     31          6           0       11.473169    2.027800   -0.382890
     32          6           0       10.772901   -0.151125    2.552063
     33          6           0        9.592162   -0.373466    3.593792
     34          7           0        6.503569   -1.557924    0.326621
     35          6           0        7.656077   -2.350815    0.487775
     36          6           0        7.313913   -3.770922    0.408501
     37          6           0        5.980559   -3.763623    0.111313
     38          6           0        5.555815   -2.406940   -0.079102
     39          6           0        8.100641   -4.989727    0.524398
     40          6           0        4.920124   -4.672942   -0.101653
     41          8           0        4.924137   -5.882208   -0.024986
     42          6           0        3.647904   -3.878829   -0.509975
     43          6           0        2.504519   -4.162085    0.394871
     44          8           0        2.378118   -3.695145    1.519740
     45          8           0        1.652327   -5.028193   -0.170917
     46          6           0        0.549796   -5.393789    0.601136
     47          6           0       -4.068751   -1.829753   -0.684962
     48          6           0       -5.311825   -1.083908   -1.024854
     49          6           0       -6.579970   -1.399979   -0.838002
     50          6           0       -7.012945   -2.683603   -0.020431
     51          6           0       -7.684001   -0.640371   -1.621370
     52          6           0       -9.000288   -0.353792   -0.917573
     53          6           0       -8.771381    0.394406    0.419159
     54          6           0       -9.306333    1.894841    0.592467
     55          6           0       -8.134167    2.946049    0.458455
     56          6           0      -10.090897    1.959830    1.885441
     57          6           0      -11.611579    1.813310    1.661121
     58          6           0      -12.497712    0.978041    2.608737
     59          6           0      -13.944164    1.499380    2.782245
     60          6           0      -14.331950    1.368442    4.216481
     61          6           0      -14.980565    0.781087    1.968420
     62          6           0      -15.139910    1.225298    0.478576
     63          6           0      -14.889256   -0.025945   -0.441502
     64          6           0      -14.600668    0.416512   -1.911094
     65          6           0      -15.379050   -0.416699   -2.929099
     66          6           0      -13.070244    0.479338   -2.201525
     67          1           0        3.038601    3.182368   -1.582459
     68          1           0        9.181463    3.811669    0.100079
     69          1           0        9.782537   -2.395744    0.768884
     70          1           0        2.181980   -1.596244   -2.405837
     71          1           0        1.368917    1.160446   -1.087637
     72          1           0        2.707321    1.407668   -3.632782
     73          1           0        1.037331    1.729820   -3.035602
     74          1           0        1.441187    0.138323   -3.667659
     75          1           0        1.002795   -1.164184    0.281698
     76          1           0        0.947089   -2.564309   -0.714092
     77          1           0       -0.417960   -0.814318   -2.397670
     78          1           0       -0.545454   -0.109872   -0.735280
     79          1           0        3.142625    5.318672   -1.240128
     80          1           0        4.408260    6.236403   -2.007131
     81          1           0        4.145076    6.507168   -0.336603
     82          1           0        5.979139    7.613881    0.405917
     83          1           0        6.245487    7.587859   -1.272314
     84          1           0        7.564576    8.183556   -0.060400
     85          1           0       10.737115    2.088899    1.538700
     86          1           0       11.281393   -0.537590    0.516399
     87          1           0       12.104737    2.792312    0.069301
     88          1           0       10.847350    2.572080   -1.089704
     89          1           0       12.095298    1.217635   -0.762100
     90          1           0       11.356730    0.674822    2.958115
     91          1           0       11.344097   -1.077575    2.597045
     92          1           0        9.374611   -1.438267    3.673525
     93          1           0        8.684682    0.224438    3.516488
     94          1           0        9.939451    0.000844    4.557209
     95          1           0        9.097547   -4.665811    0.825416
     96          1           0        8.051796   -5.583331   -0.387862
     97          1           0        7.760460   -5.599706    1.361051
     98          1           0        3.278030   -4.025405   -1.524196
     99          1           0        0.179995   -6.332309    0.187532
    100          1           0       -0.270071   -4.689494    0.460945
    101          1           0        0.789961   -5.453425    1.663246
    102          1           0       -4.070924   -1.998479    0.392517
    103          1           0       -4.084257   -2.840971   -1.090109
    104          1           0       -5.140234   -0.246318   -1.700980
    105          1           0       -7.038506   -2.354199    1.017494
    106          1           0       -6.248233   -3.455324   -0.112416
    107          1           0       -7.933661   -3.081770   -0.446504
    108          1           0       -8.000429   -1.329321   -2.405590
    109          1           0       -7.253428    0.307906   -1.943657
    110          1           0       -9.498013   -1.304887   -0.730106
    111          1           0       -9.596942    0.240042   -1.609324
    112          1           0       -7.690495    0.443315    0.552962
    113          1           0       -9.161315   -0.326948    1.137448
    114          1           0       -9.940943    2.104958   -0.268550
    115          1           0       -8.416109    3.740092   -0.231805
    116          1           0       -7.270865    2.412832    0.060560
    117          1           0       -7.998537    3.446491    1.417738
    118          1           0      -10.106813    2.947493    2.346658
    119          1           0       -9.804333    1.220317    2.633926
    120          1           0      -11.777658    1.318892    0.704194
    121          1           0      -12.078717    2.796740    1.612390
    122          1           0      -12.008045    0.988872    3.581986
    123          1           0      -12.544664   -0.029356    2.195742
    124          1           0      -14.028109    2.559224    2.545757
    125          1           0      -13.593971    0.961005    4.907484
    126          1           0      -15.345651    0.977338    4.299655
    127          1           0      -14.430613    2.387877    4.590723
    128          1           0      -15.983650    0.822516    2.392890
    129          1           0      -14.779746   -0.280454    2.110675
    130          1           0      -14.328047    1.936970    0.327053
    131          1           0      -16.139132    1.594926    0.249738
    132          1           0      -15.769751   -0.668339   -0.425823
    133          1           0      -14.112111   -0.663117   -0.019243
    134          1           0      -14.993181    1.421454   -2.063079
    135          1           0      -14.721150   -1.121946   -3.437250
    136          1           0      -15.910792    0.193194   -3.658287
    137          1           0      -16.169819   -1.023682   -2.488782
    138          1           0      -12.873070    0.103331   -3.204981
    139          1           0      -12.348093   -0.046539   -1.575602
    140          1           0      -12.842763    1.544783   -2.178794
 ---------------------------------------------------------------------

 SCF Done:  E(RZINDO/S) =  -474.362954214     A.U. after   19 cycles

 Excitation energies and oscillator strengths:

 Excited State   1:      Singlet-A      1.2463 eV  994.84 nm  f=0.5865  <S**2>=0.000
     175 ->178         0.16761
     176 ->177         0.66951
 This state for optimization and/or second-order correction.
 Total Energy, E(CIS/TDA) =  -474.317154458
 Copying the excited state density for this state as the 1-particle RhoCI density.

 Excited State   2:      Singlet-A      1.9270 eV  643.40 nm  f=0.0248  <S**2>=0.000
     175 ->177         0.52822
     176 ->178        -0.43819

 Excited State   3:      Singlet-A      2.8773 eV  430.91 nm  f=0.0167  <S**2>=0.000
     168 ->177         0.34172
     168 ->178        -0.10009
     168 ->179        -0.42696
     168 ->181         0.11192
     168 ->182        -0.11130
     168 ->186        -0.17904
     168 ->195         0.10569
     170 ->177        -0.18366
     170 ->179         0.13260

 Excited State   4:      Singlet-A      2.9441 eV  421.13 nm  f=0.8178  <S**2>=0.000
     175 ->177         0.36268
     176 ->178         0.48687
     176 ->179         0.27412

 Excited State   5:      Singlet-A      2.9901 eV  414.66 nm  f=0.2481  <S**2>=0.000
     175 ->177        -0.18248
     176 ->178        -0.17818
     176 ->179         0.50864
     176 ->181         0.32572

 The electronic state is 1-A.
 Alpha  occ. eigenvalues --   -1.85879  -1.81817  -1.76669  -1.74028  -1.71835
 Alpha  occ. eigenvalues --   -1.67727  -1.66485  -1.61139  -1.60843  -1.57623
 Alpha  occ. eigenvalues --   -1.54876  -1.51725  -1.49721  -1.48738  -1.45891
 Alpha  occ. eigenvalues --   -1.44658  -1.42572  -1.41230  -1.38091  -1.37680
 Alpha  occ. eigenvalues --   -1.36538  -1.35481  -1.33825  -1.30444  -1.29733
 Alpha  occ. eigenvalues --   -1.28735  -1.24709  -1.21068  -1.19889  -1.18532
 Alpha  occ. eigenvalues --   -1.17124  -1.16153  -1.15899  -1.14810  -1.14026
 Alpha  occ. eigenvalues --   -1.13149  -1.10640  -1.09759  -1.05465  -1.04064
 Alpha  occ. eigenvalues --   -1.03788  -1.00247  -0.98766  -0.97496  -0.97088
 Alpha  occ. eigenvalues --   -0.96204  -0.94630  -0.92814  -0.92655  -0.91939
 Alpha  occ. eigenvalues --   -0.90715  -0.90048  -0.88391  -0.87412  -0.86616
 Alpha  occ. eigenvalues --   -0.85061  -0.84105  -0.83304  -0.81499  -0.79888
 Alpha  occ. eigenvalues --   -0.79559  -0.79332  -0.77361  -0.76635  -0.75976
 Alpha  occ. eigenvalues --   -0.75560  -0.74296  -0.73763  -0.73589  -0.73401
 Alpha  occ. eigenvalues --   -0.73203  -0.72630  -0.71814  -0.71265  -0.70533
 Alpha  occ. eigenvalues --   -0.70032  -0.69243  -0.68903  -0.68652  -0.68176
 Alpha  occ. eigenvalues --   -0.67595  -0.67483  -0.66426  -0.66033  -0.65696
 Alpha  occ. eigenvalues --   -0.65036  -0.64822  -0.64275  -0.64234  -0.64126
 Alpha  occ. eigenvalues --   -0.63535  -0.63312  -0.62913  -0.62231  -0.61849
 Alpha  occ. eigenvalues --   -0.61663  -0.60786  -0.60499  -0.60308  -0.59740
 Alpha  occ. eigenvalues --   -0.59573  -0.59041  -0.58857  -0.58511  -0.58334
 Alpha  occ. eigenvalues --   -0.58174  -0.57293  -0.57181  -0.57004  -0.56905
 Alpha  occ. eigenvalues --   -0.56547  -0.55494  -0.54884  -0.54777  -0.54190
 Alpha  occ. eigenvalues --   -0.53984  -0.53685  -0.53429  -0.53034  -0.52921
 Alpha  occ. eigenvalues --   -0.52631  -0.52108  -0.51707  -0.51437  -0.51254
 Alpha  occ. eigenvalues --   -0.50974  -0.50598  -0.50451  -0.50395  -0.50001
 Alpha  occ. eigenvalues --   -0.49812  -0.49572  -0.49176  -0.49099  -0.48794
 Alpha  occ. eigenvalues --   -0.48538  -0.48451  -0.48312  -0.48001  -0.47711
 Alpha  occ. eigenvalues --   -0.46939  -0.46711  -0.46661  -0.46596  -0.46141
 Alpha  occ. eigenvalues --   -0.46016  -0.45833  -0.45541  -0.45264  -0.45092
 Alpha  occ. eigenvalues --   -0.44920  -0.44582  -0.44506  -0.44098  -0.43905
 Alpha  occ. eigenvalues --   -0.43528  -0.42799  -0.42407  -0.42153  -0.42060
 Alpha  occ. eigenvalues --   -0.41446  -0.40909  -0.40897  -0.39113  -0.38761
 Alpha  occ. eigenvalues --   -0.38180  -0.37358  -0.35740  -0.34260  -0.33832
 Alpha  occ. eigenvalues --   -0.33739  -0.32784  -0.32135  -0.31166  -0.26786
 Alpha  occ. eigenvalues --   -0.21363
 Alpha virt. eigenvalues --   -0.08277  -0.01884  -0.00563   0.01537   0.01675
 Alpha virt. eigenvalues --    0.01745   0.02750   0.02974   0.04803   0.04978
 Alpha virt. eigenvalues --    0.06547   0.06681   0.07759   0.07942   0.08655

 Mulliken charges:
               1
     1  Mg   0.435066
     2  C   -0.069129
     3  C   -0.079277
     4  C   -0.051554
     5  C   -0.056139
     6  N   -0.333004
     7  C    0.151095
     8  C    0.009355
     9  C   -0.000422
    10  C    0.097119
    11  C   -0.049661
    12  C   -0.025671
    13  C    0.001234
    14  C    0.475963
    15  O   -0.525339
    16  O   -0.269473
    17  N   -0.301629
    18  C    0.061517
    19  C   -0.018837
    20  C   -0.069481
    21  C    0.115565
    22  C   -0.031536
    23  C    0.319147
    24  O   -0.528691
    25  C   -0.038575
    26  N   -0.249300
    27  C    0.098200
    28  C   -0.003671
    29  C    0.010502
    30  C    0.158850
    31  C   -0.049775
    32  C   -0.027640
    33  C   -0.059340
    34  N   -0.327320
    35  C    0.122630
    36  C    0.064172
    37  C   -0.045828
    38  C    0.159687
    39  C   -0.030137
    40  C    0.343753
    41  O   -0.512254
    42  C    0.050788
    43  C    0.498724
    44  O   -0.536533
    45  O   -0.246900
    46  C    0.077718
    47  C    0.109751
    48  C   -0.077371
    49  C   -0.021376
    50  C   -0.051025
    51  C   -0.019283
    52  C   -0.034720
    53  C   -0.046500
    54  C   -0.008957
    55  C   -0.063189
    56  C   -0.026711
    57  C   -0.048669
    58  C   -0.033410
    59  C    0.000128
    60  C   -0.063650
    61  C   -0.036500
    62  C   -0.043922
    63  C   -0.038124
    64  C   -0.008455
    65  C   -0.057397
    66  C   -0.059682
    67  H    0.017469
    68  H    0.051866
    69  H    0.028343
    70  H    0.036192
    71  H    0.037492
    72  H    0.031635
    73  H    0.014802
    74  H    0.015846
    75  H    0.028561
    76  H    0.027540
    77  H    0.052442
    78  H    0.038210
    79  H    0.024737
    80  H    0.025886
    81  H    0.026912
    82  H    0.029769
    83  H    0.037286
    84  H    0.041505
    85  H    0.015985
    86  H    0.026515
    87  H    0.020676
    88  H    0.031346
    89  H    0.025612
    90  H    0.024576
    91  H    0.012486
    92  H    0.023524
    93  H    0.031603
    94  H    0.012963
    95  H    0.016025
    96  H    0.049118
    97  H    0.043394
    98  H    0.052912
    99  H    0.027302
   100  H    0.044317
   101  H    0.050058
   102  H    0.043373
   103  H    0.054962
   104  H    0.022358
   105  H    0.036050
   106  H    0.023220
   107  H    0.030171
   108  H    0.024837
   109  H    0.027945
   110  H    0.019543
   111  H    0.017721
   112  H    0.019704
   113  H    0.018649
   114  H    0.022693
   115  H    0.015804
   116  H    0.027472
   117  H    0.023937
   118  H    0.015201
   119  H    0.025864
   120  H    0.010162
   121  H    0.016406
   122  H    0.018314
   123  H    0.021070
   124  H    0.020131
   125  H    0.025291
   126  H    0.021686
   127  H    0.001587
   128  H    0.009184
   129  H    0.015065
   130  H    0.025505
   131  H    0.030297
   132  H    0.014522
   133  H    0.021468
   134  H    0.019168
   135  H    0.016951
   136  H    0.016453
   137  H    0.013251
   138  H    0.013718
   139  H    0.026478
   140  H    0.013975
 Sum of Mulliken charges =  -0.00000

 Dipole moment (field-independent basis, Debye):
    X=             -3.0729    Y=              1.2098    Z=             -2.5036  Tot=              4.1442
 N-N= 4.215411449899D+03 E-N= 0.000000000000D+00  KE=-9.105639163180D+03
 Leave Link  601 at Wed May  4 14:52:12 2022, MaxMem=  6710886400 cpu:               0.8 elap:               0.1
 (Enter /sw/apps/gaussian-16.0/g16/l9999.exe)
 1\1\GINC-BP1-COMPUTE100\SP\RZINDO CIS\STO-3G\C55H74Mg1N4O6\OF15641\04-
 May-2022\0\\#p ZINDO=(nstates=5)\\step_1851_chromophore_1 ZINDO\\0,1\M
 g,0,-1.776,17.478,25.57\C,0,-2.361,15.044,28.247\C,0,-2.558,19.979,27.
 893\C,0,-1.996,19.571,23.024\C,0,-2.014,14.733,23.421\N,0,-2.273,17.47
 6,27.796\C,0,-2.444,16.379,28.728\C,0,-2.89,16.878,30.105\C,0,-2.959,1
 8.491,29.926\C,0,-2.567,18.708,28.465\C,0,-4.297,19.048,30.33\C,0,-1.9
 79,16.56,31.309\C,0,-2.266,17.303,32.657\C,0,-1.835,16.626,33.934\O,0,

 Normal termination of Gaussian 16 at Wed May  4 14:52:12 2022.
