 Gaussian 16, Revision A.03,
 Gaussian 16:  ES64L-G16RevA.03 25-Dec-2016

 ------------------------------
 #p blyp/Def2SVP td=(nstates=5)
 ------------------------------

 --------------------------------------------------
 step_151_chromophore_26 TDDFT with blyp functional
 --------------------------------------------------
 Symbolic Z-matrix:
 Charge =  0 Multiplicity = 1

                         Standard orientation:
 ---------------------------------------------------------------------
 Center     Atomic      Atomic             Coordinates (Angstroms)
 Number     Number       Type             X           Y           Z
 ---------------------------------------------------------------------
      1         12           0       -3.741863    1.194098    0.529890
      2          6           0       -4.573666   -2.022906   -0.479731
      3          6           0       -2.579250   -0.032480    3.504245
      4          6           0       -2.603891    4.228203    1.184766
      5          6           0       -5.055714    2.387143   -2.621428
      6          7           0       -3.500015   -0.794943    1.410446
      7          6           0       -4.043171   -1.913045    0.833975
      8          6           0       -3.989631   -3.130965    1.822778
      9          6           0       -3.571620   -2.448898    3.120479
     10          6           0       -3.258242   -1.029400    2.704811
     11          6           0       -4.452084   -2.633984    4.367483
     12          6           0       -2.990950   -4.268230    1.348354
     13          6           0       -1.768592   -3.853862    0.469175
     14          6           0       -0.374881   -3.820108    1.085681
     15          8           0       -0.075055   -3.646261    2.239195
     16          8           0        0.520182   -4.057973    0.089261
     17          7           0       -2.695469    2.032132    2.090743
     18          6           0       -2.275420    1.333651    3.202865
     19          6           0       -1.519032    2.247870    4.044207
     20          6           0       -1.292817    3.396141    3.248876
     21          6           0       -2.266511    3.293154    2.135931
     22          6           0       -0.897815    1.921077    5.398611
     23          6           0       -0.397060    4.554971    3.706661
     24          8           0        0.260524    4.452399    4.753572
     25          6           0       -0.343468    5.863186    3.020880
     26          7           0       -3.820577    3.073713   -0.646549
     27          6           0       -3.271700    4.217102   -0.056156
     28          6           0       -3.557129    5.474201   -0.907906
     29          6           0       -4.667293    4.868510   -1.867300
     30          6           0       -4.532852    3.349859   -1.733413
     31          6           0       -4.016249    6.616275    0.034205
     32          6           0       -4.541273    5.349213   -3.354900
     33          6           0       -5.826440    5.553694   -4.307728
     34          7           0       -4.529425    0.398201   -1.275499
     35          6           0       -5.096690    1.021180   -2.407765
     36          6           0       -5.704765   -0.000362   -3.189181
     37          6           0       -5.555234   -1.230389   -2.536682
     38          6           0       -4.775703   -0.940565   -1.415881
     39          6           0       -6.452140    0.181737   -4.461219
     40          6           0       -5.901803   -2.660303   -2.400333
     41          8           0       -6.641678   -3.333649   -3.087849
     42          6           0       -5.129917   -3.238759   -1.148230
     43          6           0       -6.236353   -3.858665   -0.374696
     44          8           0       -7.225573   -3.230297   -0.014091
     45          8           0       -5.948608   -5.215530   -0.229837
     46          6           0       -6.777552   -6.099974    0.611406
     47          6           0        1.920886   -4.318983    0.416639
     48          6           0        2.902994   -3.297676   -0.132783
     49          6           0        3.096339   -3.077648   -1.452916
     50          6           0        2.191473   -3.585985   -2.579703
     51          6           0        4.267114   -2.174126   -1.796412
     52          6           0        3.930526   -0.774403   -2.384111
     53          6           0        5.241355   -0.100025   -2.750805
     54          6           0        5.392480    1.282017   -2.141810
     55          6           0        5.206029    2.502767   -3.065831
     56          6           0        6.697798    1.591047   -1.429497
     57          6           0        7.033619    0.672671   -0.289905
     58          6           0        8.242201   -0.278974   -0.460697
     59          6           0        9.138471   -0.235040    0.855971
     60          6           0        8.581005   -1.023815    2.001873
     61          6           0       10.600463   -0.686560    0.429930
     62          6           0       11.671186    0.361952    0.995710
     63          6           0       12.698912    0.812332   -0.087749
     64          6           0       13.689882   -0.355039   -0.656884
     65          6           0       15.121746   -0.191866   -0.252122
     66          6           0       13.600123   -0.408350   -2.194098
     67          1           0       -2.256117   -0.357231    4.495194
     68          1           0       -2.146038    5.206821    1.342711
     69          1           0       -5.546104    2.716511   -3.540172
     70          1           0       -5.006999   -3.513163    1.901911
     71          1           0       -2.653743   -2.938876    3.444015
     72          1           0       -5.153833   -1.809340    4.489112
     73          1           0       -3.901063   -2.655569    5.308001
     74          1           0       -5.073576   -3.529678    4.343093
     75          1           0       -3.649267   -5.011671    0.897066
     76          1           0       -2.565300   -4.674758    2.264840
     77          1           0       -1.924247   -2.847335    0.080045
     78          1           0       -1.722578   -4.518495   -0.393166
     79          1           0       -1.020411    2.753489    6.091332
     80          1           0        0.140201    1.588128    5.402713
     81          1           0       -1.461321    1.065932    5.772064
     82          1           0       -1.290782    6.402644    3.000259
     83          1           0       -0.157320    5.526424    2.000971
     84          1           0        0.591705    6.276625    3.398307
     85          1           0       -2.672743    5.798845   -1.456488
     86          1           0       -5.646952    5.229684   -1.554688
     87          1           0       -3.118657    7.179183    0.290270
     88          1           0       -4.484388    6.236182    0.942324
     89          1           0       -4.718839    7.235514   -0.523808
     90          1           0       -3.945399    4.490006   -3.662940
     91          1           0       -3.846123    6.187446   -3.406679
     92          1           0       -5.876209    4.735135   -5.026171
     93          1           0       -5.811848    6.514116   -4.823650
     94          1           0       -6.711316    5.498991   -3.673614
     95          1           0       -5.856746    0.090268   -5.369170
     96          1           0       -6.801772    1.213939   -4.484914
     97          1           0       -7.262529   -0.529710   -4.619010
     98          1           0       -4.575374   -4.073800   -1.576265
     99          1           0       -7.010605   -5.698076    1.597577
    100          1           0       -6.224378   -7.039061    0.598814
    101          1           0       -7.780256   -6.162794    0.188460
    102          1           0        2.130014   -5.328393    0.062775
    103          1           0        2.086809   -4.379474    1.492353
    104          1           0        3.537811   -2.746419    0.561298
    105          1           0        1.524757   -4.333902   -2.151224
    106          1           0        2.803983   -3.890094   -3.428676
    107          1           0        1.633573   -2.750477   -3.001076
    108          1           0        4.901465   -2.741228   -2.477787
    109          1           0        4.904298   -1.953990   -0.939746
    110          1           0        3.310450   -0.126746   -1.763841
    111          1           0        3.441476   -0.975166   -3.336916
    112          1           0        5.169005    0.123018   -3.814729
    113          1           0        6.138181   -0.718122   -2.703863
    114          1           0        4.657347    1.277719   -1.336988
    115          1           0        6.081547    2.895809   -3.582726
    116          1           0        4.720872    3.337410   -2.562229
    117          1           0        4.540570    2.169486   -3.862817
    118          1           0        6.674942    2.584996   -0.982748
    119          1           0        7.496982    1.566082   -2.170429
    120          1           0        6.230102    0.027064    0.063341
    121          1           0        7.095638    1.438950    0.482043
    122          1           0        8.766403    0.118060   -1.330111
    123          1           0        7.938511   -1.312346   -0.628231
    124          1           0        9.172243    0.771594    1.271778
    125          1           0        7.942576   -0.505935    2.717724
    126          1           0        9.415589   -1.271252    2.658002
    127          1           0        8.037790   -1.878822    1.600119
    128          1           0       10.574168   -0.836248   -0.649382
    129          1           0       10.808287   -1.617397    0.957365
    130          1           0       12.149460   -0.076829    1.871792
    131          1           0       11.181179    1.279384    1.318180
    132          1           0       13.306517    1.644634    0.268087
    133          1           0       12.257976    1.362346   -0.918606
    134          1           0       13.380003   -1.323685   -0.264831
    135          1           0       15.557980   -1.148664    0.034374
    136          1           0       15.240127    0.603661    0.483261
    137          1           0       15.683752    0.215311   -1.091855
    138          1           0       13.991320    0.464658   -2.716439
    139          1           0       12.565063   -0.598042   -2.477027
    140          1           0       14.128407   -1.327070   -2.449083
 ---------------------------------------------------------------------

 SCF Done:  E(RB-LYP) =  -3007.38697963     A.U. after   21 cycles

 Excitation energies and oscillator strengths:

 Excited State   1:      Singlet-A      1.7948 eV  690.78 nm  f=0.2559  <S**2>=0.000
     244 -> 247       -0.12260
     245 -> 248        0.19551
     246 -> 247        0.67553
     246 <- 247       -0.13956
 This state for optimization and/or second-order correction.
 Total Energy, E(TD-HF/TD-DFT) =  -3007.32102017
 Copying the excited state density for this state as the 1-particle RhoCI density.

 Excited State   2:      Singlet-A      1.9026 eV  651.66 nm  f=0.0097  <S**2>=0.000
     244 -> 247        0.69247
     246 -> 247        0.11479

 Excited State   3:      Singlet-A      1.9933 eV  621.99 nm  f=0.0349  <S**2>=0.000
     243 -> 247        0.45512
     245 -> 247        0.49989
     246 -> 248       -0.17147

 Excited State   4:      Singlet-A      2.1045 eV  589.12 nm  f=0.0250  <S**2>=0.000
     243 -> 247        0.53484
     245 -> 247       -0.38555
     246 -> 248        0.23032

 Excited State   5:      Singlet-A      2.4638 eV  503.22 nm  f=0.0004  <S**2>=0.000
     241 -> 247        0.70527

 The electronic state is 1-A.
 Alpha  occ. eigenvalues --  -46.27635 -18.82634 -18.81635 -18.77106 -18.76994
 Alpha  occ. eigenvalues --  -18.75696 -18.75183 -14.03796 -14.02945 -14.01203
 Alpha  occ. eigenvalues --  -14.00482 -10.04159 -10.04082  -9.99801  -9.99651
 Alpha  occ. eigenvalues --   -9.98569  -9.97516  -9.97016  -9.96926  -9.96806
 Alpha  occ. eigenvalues --   -9.96410  -9.96014  -9.96005  -9.95117  -9.94628
 Alpha  occ. eigenvalues --   -9.94369  -9.94146  -9.94077  -9.93911  -9.93698
 Alpha  occ. eigenvalues --   -9.93623  -9.93433  -9.93422  -9.93393  -9.93217
 Alpha  occ. eigenvalues --   -9.93196  -9.92994  -9.92883  -9.92872  -9.92856
 Alpha  occ. eigenvalues --   -9.92807  -9.92643  -9.92638  -9.92383  -9.92361
 Alpha  occ. eigenvalues --   -9.92110  -9.91983  -9.91747  -9.91724  -9.91649
 Alpha  occ. eigenvalues --   -9.91586  -9.91572  -9.91458  -9.91337  -9.91224
 Alpha  occ. eigenvalues --   -9.91104  -9.91035  -9.90903  -9.90832  -9.90777
 Alpha  occ. eigenvalues --   -9.90696  -9.90551  -9.90449  -9.90216  -9.90123
 Alpha  occ. eigenvalues --   -9.89986  -2.92128  -1.72566  -1.72025  -1.71819
 Alpha  occ. eigenvalues --   -0.98193  -0.96904  -0.91798  -0.90637  -0.90491
 Alpha  occ. eigenvalues --   -0.90153  -0.86969  -0.86228  -0.85740  -0.84664
 Alpha  occ. eigenvalues --   -0.75364  -0.73992  -0.72775  -0.72439  -0.72261
 Alpha  occ. eigenvalues --   -0.71730  -0.71608  -0.70613  -0.70524  -0.69948
 Alpha  occ. eigenvalues --   -0.69412  -0.69166  -0.68332  -0.67859  -0.67321
 Alpha  occ. eigenvalues --   -0.66237  -0.66144  -0.65634  -0.65171  -0.64504
 Alpha  occ. eigenvalues --   -0.64121  -0.62335  -0.61976  -0.61558  -0.60971
 Alpha  occ. eigenvalues --   -0.60888  -0.60019  -0.59659  -0.59435  -0.58506
 Alpha  occ. eigenvalues --   -0.58386  -0.57699  -0.57178  -0.55980  -0.54791
 Alpha  occ. eigenvalues --   -0.53619  -0.53384  -0.52573  -0.52306  -0.51526
 Alpha  occ. eigenvalues --   -0.51230  -0.50974  -0.50759  -0.50507  -0.49652
 Alpha  occ. eigenvalues --   -0.49348  -0.49143  -0.49102  -0.48332  -0.46424
 Alpha  occ. eigenvalues --   -0.45915  -0.45631  -0.45286  -0.45177  -0.44544
 Alpha  occ. eigenvalues --   -0.44174  -0.43605  -0.43437  -0.43028  -0.42588
 Alpha  occ. eigenvalues --   -0.42183  -0.41865  -0.41644  -0.41481  -0.41036
 Alpha  occ. eigenvalues --   -0.40933  -0.40814  -0.40463  -0.40289  -0.39966
 Alpha  occ. eigenvalues --   -0.39910  -0.39537  -0.39159  -0.38981  -0.38704
 Alpha  occ. eigenvalues --   -0.38662  -0.38581  -0.38332  -0.38246  -0.38190
 Alpha  occ. eigenvalues --   -0.38061  -0.37749  -0.37694  -0.37110  -0.37073
 Alpha  occ. eigenvalues --   -0.36891  -0.36608  -0.36471  -0.36365  -0.36156
 Alpha  occ. eigenvalues --   -0.36073  -0.35865  -0.35674  -0.35565  -0.35434
 Alpha  occ. eigenvalues --   -0.35198  -0.35067  -0.34880  -0.34517  -0.34442
 Alpha  occ. eigenvalues --   -0.34366  -0.34265  -0.34188  -0.34097  -0.33856
 Alpha  occ. eigenvalues --   -0.33770  -0.33735  -0.33632  -0.33444  -0.33392
 Alpha  occ. eigenvalues --   -0.33239  -0.33076  -0.32919  -0.32719  -0.32539
 Alpha  occ. eigenvalues --   -0.32261  -0.32169  -0.31957  -0.31802  -0.31358
 Alpha  occ. eigenvalues --   -0.31304  -0.31111  -0.30992  -0.30787  -0.30584
 Alpha  occ. eigenvalues --   -0.30266  -0.30054  -0.29878  -0.29721  -0.29622
 Alpha  occ. eigenvalues --   -0.29277  -0.29151  -0.29023  -0.28843  -0.28823
 Alpha  occ. eigenvalues --   -0.28725  -0.28596  -0.28323  -0.28218  -0.27476
 Alpha  occ. eigenvalues --   -0.27377  -0.27231  -0.27009  -0.26573  -0.26517
 Alpha  occ. eigenvalues --   -0.26494  -0.26456  -0.25739  -0.25545  -0.25336
 Alpha  occ. eigenvalues --   -0.25043  -0.24708  -0.24479  -0.23934  -0.23396
 Alpha  occ. eigenvalues --   -0.22576  -0.22209  -0.22108  -0.21749  -0.20718
 Alpha  occ. eigenvalues --   -0.20512  -0.20089  -0.18896  -0.18341  -0.17452
 Alpha  occ. eigenvalues --   -0.15797
 Alpha virt. eigenvalues --   -0.11460  -0.07338  -0.06039  -0.04534  -0.03011
 Alpha virt. eigenvalues --   -0.02715  -0.02209  -0.01648  -0.01515  -0.00146
 Alpha virt. eigenvalues --    0.01019   0.01203   0.02231   0.02453   0.02750

 Mulliken charges:
               1
     1  Mg   0.677582
     2  C    0.075771
     3  C   -0.065454
     4  C   -0.028676
     5  C   -0.075522
     6  N   -0.200660
     7  C   -0.098480
     8  C   -0.000528
     9  C    0.059196
    10  C    0.024535
    11  C    0.113634
    12  C    0.132073
    13  C    0.096066
    14  C    0.057420
    15  O   -0.165654
    16  O   -0.269864
    17  N   -0.282371
    18  C    0.140609
    19  C   -0.152307
    20  C    0.031420
    21  C    0.145781
    22  C    0.196878
    23  C   -0.106973
    24  O   -0.188655
    25  C    0.169322
    26  N   -0.188440
    27  C   -0.041119
    28  C    0.004320
    29  C    0.029276
    30  C    0.032928
    31  C    0.127803
    32  C    0.035944
    33  C    0.076924
    34  N   -0.281363
    35  C    0.141705
    36  C   -0.182372
    37  C    0.122239
    38  C    0.026530
    39  C    0.163012
    40  C   -0.089979
    41  O   -0.122255
    42  C    0.096942
    43  C    0.095971
    44  O   -0.176962
    45  O   -0.292815
    46  C    0.222204
    47  C    0.317778
    48  C   -0.113979
    49  C   -0.123164
    50  C    0.166435
    51  C    0.079896
    52  C    0.092813
    53  C    0.149860
    54  C   -0.090932
    55  C    0.132066
    56  C    0.082215
    57  C    0.080334
    58  C    0.097056
    59  C   -0.105942
    60  C    0.116934
    61  C    0.119950
    62  C    0.069894
    63  C    0.094421
    64  C   -0.099276
    65  C    0.131107
    66  C    0.094671
    67  H   -0.056555
    68  H   -0.102075
    69  H   -0.077504
    70  H   -0.020113
    71  H   -0.011513
    72  H   -0.016189
    73  H   -0.005525
    74  H   -0.011622
    75  H   -0.013263
    76  H   -0.019739
    77  H    0.030240
    78  H   -0.002108
    79  H    0.008755
    80  H    0.012760
    81  H   -0.035286
    82  H    0.036644
    83  H   -0.006210
    84  H   -0.001761
    85  H   -0.013080
    86  H   -0.022709
    87  H   -0.001274
    88  H    0.000657
    89  H   -0.006405
    90  H   -0.025784
    91  H   -0.023796
    92  H    0.010986
    93  H    0.000251
    94  H   -0.006638
    95  H   -0.005024
    96  H   -0.022198
    97  H    0.008830
    98  H   -0.006601
    99  H    0.010723
   100  H    0.031304
   101  H    0.017217
   102  H   -0.003345
   103  H   -0.012148
   104  H   -0.031822
   105  H    0.006698
   106  H   -0.017638
   107  H    0.005602
   108  H   -0.022693
   109  H   -0.030119
   110  H   -0.014431
   111  H   -0.036189
   112  H   -0.058601
   113  H   -0.034140
   114  H   -0.044669
   115  H   -0.016128
   116  H   -0.017820
   117  H   -0.038456
   118  H   -0.039702
   119  H   -0.041033
   120  H   -0.038681
   121  H   -0.042974
   122  H   -0.030295
   123  H   -0.019927
   124  H   -0.033121
   125  H   -0.020820
   126  H   -0.025232
   127  H   -0.018475
   128  H   -0.018360
   129  H   -0.038810
   130  H   -0.022623
   131  H   -0.024916
   132  H   -0.055032
   133  H   -0.046584
   134  H   -0.032431
   135  H   -0.011062
   136  H   -0.024400
   137  H   -0.034259
   138  H   -0.002650
   139  H   -0.021581
   140  H   -0.024303
 Sum of Mulliken charges =  -0.00000

 Dipole moment (field-independent basis, Debye):
    X=              0.6886    Y=              0.9313    Z=             -1.2035  Tot=              1.6703
 Quadrupole moment (field-independent basis, Debye-Ang):
   XX=           -424.0666   YY=           -372.3083   ZZ=           -417.0355
   XY=            -18.7992   XZ=            -22.4157   YZ=            -28.2293

 Normal termination of Gaussian 16 at Thu Apr 28 10:58:55 2022.
