 Gaussian 16, Revision A.03,
 Gaussian 16:  ES64L-G16RevA.03 25-Dec-2016

 -----------------------------------
 #p cam-b3lyp/Def2SVP td=(nstates=5)
 -----------------------------------

 -------------------------------------------------------
 step_151_chromophore_26 TDDFT with cam-b3lyp functional
 -------------------------------------------------------
 Symbolic Z-matrix:
 Charge =  0 Multiplicity = 1

                         Standard orientation:
 ---------------------------------------------------------------------
 Center     Atomic      Atomic             Coordinates (Angstroms)
 Number     Number       Type             X           Y           Z
 ---------------------------------------------------------------------
      1         12           0       -3.741863    1.194098    0.529890
      2          6           0       -4.573666   -2.022906   -0.479731
      3          6           0       -2.579250   -0.032480    3.504245
      4          6           0       -2.603891    4.228203    1.184766
      5          6           0       -5.055714    2.387143   -2.621428
      6          7           0       -3.500015   -0.794943    1.410446
      7          6           0       -4.043171   -1.913045    0.833975
      8          6           0       -3.989631   -3.130965    1.822778
      9          6           0       -3.571620   -2.448898    3.120479
     10          6           0       -3.258242   -1.029400    2.704811
     11          6           0       -4.452084   -2.633984    4.367483
     12          6           0       -2.990950   -4.268230    1.348354
     13          6           0       -1.768592   -3.853862    0.469175
     14          6           0       -0.374881   -3.820108    1.085681
     15          8           0       -0.075055   -3.646261    2.239195
     16          8           0        0.520182   -4.057973    0.089261
     17          7           0       -2.695469    2.032132    2.090743
     18          6           0       -2.275420    1.333651    3.202865
     19          6           0       -1.519032    2.247870    4.044207
     20          6           0       -1.292817    3.396141    3.248876
     21          6           0       -2.266511    3.293154    2.135931
     22          6           0       -0.897815    1.921077    5.398611
     23          6           0       -0.397060    4.554971    3.706661
     24          8           0        0.260524    4.452399    4.753572
     25          6           0       -0.343468    5.863186    3.020880
     26          7           0       -3.820577    3.073713   -0.646549
     27          6           0       -3.271700    4.217102   -0.056156
     28          6           0       -3.557129    5.474201   -0.907906
     29          6           0       -4.667293    4.868510   -1.867300
     30          6           0       -4.532852    3.349859   -1.733413
     31          6           0       -4.016249    6.616275    0.034205
     32          6           0       -4.541273    5.349213   -3.354900
     33          6           0       -5.826440    5.553694   -4.307728
     34          7           0       -4.529425    0.398201   -1.275499
     35          6           0       -5.096690    1.021180   -2.407765
     36          6           0       -5.704765   -0.000362   -3.189181
     37          6           0       -5.555234   -1.230389   -2.536682
     38          6           0       -4.775703   -0.940565   -1.415881
     39          6           0       -6.452140    0.181737   -4.461219
     40          6           0       -5.901803   -2.660303   -2.400333
     41          8           0       -6.641678   -3.333649   -3.087849
     42          6           0       -5.129917   -3.238759   -1.148230
     43          6           0       -6.236353   -3.858665   -0.374696
     44          8           0       -7.225573   -3.230297   -0.014091
     45          8           0       -5.948608   -5.215530   -0.229837
     46          6           0       -6.777552   -6.099974    0.611406
     47          6           0        1.920886   -4.318983    0.416639
     48          6           0        2.902994   -3.297676   -0.132783
     49          6           0        3.096339   -3.077648   -1.452916
     50          6           0        2.191473   -3.585985   -2.579703
     51          6           0        4.267114   -2.174126   -1.796412
     52          6           0        3.930526   -0.774403   -2.384111
     53          6           0        5.241355   -0.100025   -2.750805
     54          6           0        5.392480    1.282017   -2.141810
     55          6           0        5.206029    2.502767   -3.065831
     56          6           0        6.697798    1.591047   -1.429497
     57          6           0        7.033619    0.672671   -0.289905
     58          6           0        8.242201   -0.278974   -0.460697
     59          6           0        9.138471   -0.235040    0.855971
     60          6           0        8.581005   -1.023815    2.001873
     61          6           0       10.600463   -0.686560    0.429930
     62          6           0       11.671186    0.361952    0.995710
     63          6           0       12.698912    0.812332   -0.087749
     64          6           0       13.689882   -0.355039   -0.656884
     65          6           0       15.121746   -0.191866   -0.252122
     66          6           0       13.600123   -0.408350   -2.194098
     67          1           0       -2.256117   -0.357231    4.495194
     68          1           0       -2.146038    5.206821    1.342711
     69          1           0       -5.546104    2.716511   -3.540172
     70          1           0       -5.006999   -3.513163    1.901911
     71          1           0       -2.653743   -2.938876    3.444015
     72          1           0       -5.153833   -1.809340    4.489112
     73          1           0       -3.901063   -2.655569    5.308001
     74          1           0       -5.073576   -3.529678    4.343093
     75          1           0       -3.649267   -5.011671    0.897066
     76          1           0       -2.565300   -4.674758    2.264840
     77          1           0       -1.924247   -2.847335    0.080045
     78          1           0       -1.722578   -4.518495   -0.393166
     79          1           0       -1.020411    2.753489    6.091332
     80          1           0        0.140201    1.588128    5.402713
     81          1           0       -1.461321    1.065932    5.772064
     82          1           0       -1.290782    6.402644    3.000259
     83          1           0       -0.157320    5.526424    2.000971
     84          1           0        0.591705    6.276625    3.398307
     85          1           0       -2.672743    5.798845   -1.456488
     86          1           0       -5.646952    5.229684   -1.554688
     87          1           0       -3.118657    7.179183    0.290270
     88          1           0       -4.484388    6.236182    0.942324
     89          1           0       -4.718839    7.235514   -0.523808
     90          1           0       -3.945399    4.490006   -3.662940
     91          1           0       -3.846123    6.187446   -3.406679
     92          1           0       -5.876209    4.735135   -5.026171
     93          1           0       -5.811848    6.514116   -4.823650
     94          1           0       -6.711316    5.498991   -3.673614
     95          1           0       -5.856746    0.090268   -5.369170
     96          1           0       -6.801772    1.213939   -4.484914
     97          1           0       -7.262529   -0.529710   -4.619010
     98          1           0       -4.575374   -4.073800   -1.576265
     99          1           0       -7.010605   -5.698076    1.597577
    100          1           0       -6.224378   -7.039061    0.598814
    101          1           0       -7.780256   -6.162794    0.188460
    102          1           0        2.130014   -5.328393    0.062775
    103          1           0        2.086809   -4.379474    1.492353
    104          1           0        3.537811   -2.746419    0.561298
    105          1           0        1.524757   -4.333902   -2.151224
    106          1           0        2.803983   -3.890094   -3.428676
    107          1           0        1.633573   -2.750477   -3.001076
    108          1           0        4.901465   -2.741228   -2.477787
    109          1           0        4.904298   -1.953990   -0.939746
    110          1           0        3.310450   -0.126746   -1.763841
    111          1           0        3.441476   -0.975166   -3.336916
    112          1           0        5.169005    0.123018   -3.814729
    113          1           0        6.138181   -0.718122   -2.703863
    114          1           0        4.657347    1.277719   -1.336988
    115          1           0        6.081547    2.895809   -3.582726
    116          1           0        4.720872    3.337410   -2.562229
    117          1           0        4.540570    2.169486   -3.862817
    118          1           0        6.674942    2.584996   -0.982748
    119          1           0        7.496982    1.566082   -2.170429
    120          1           0        6.230102    0.027064    0.063341
    121          1           0        7.095638    1.438950    0.482043
    122          1           0        8.766403    0.118060   -1.330111
    123          1           0        7.938511   -1.312346   -0.628231
    124          1           0        9.172243    0.771594    1.271778
    125          1           0        7.942576   -0.505935    2.717724
    126          1           0        9.415589   -1.271252    2.658002
    127          1           0        8.037790   -1.878822    1.600119
    128          1           0       10.574168   -0.836248   -0.649382
    129          1           0       10.808287   -1.617397    0.957365
    130          1           0       12.149460   -0.076829    1.871792
    131          1           0       11.181179    1.279384    1.318180
    132          1           0       13.306517    1.644634    0.268087
    133          1           0       12.257976    1.362346   -0.918606
    134          1           0       13.380003   -1.323685   -0.264831
    135          1           0       15.557980   -1.148664    0.034374
    136          1           0       15.240127    0.603661    0.483261
    137          1           0       15.683752    0.215311   -1.091855
    138          1           0       13.991320    0.464658   -2.716439
    139          1           0       12.565063   -0.598042   -2.477027
    140          1           0       14.128407   -1.327070   -2.449083
 ---------------------------------------------------------------------

 SCF Done:  E(RCAM-B3LYP) =  -3007.18153713     A.U. after   19 cycles

 Excitation energies and oscillator strengths:

 Excited State   1:      Singlet-A      1.7138 eV  723.45 nm  f=0.3348  <S**2>=0.000
     245 -> 248       -0.18661
     246 -> 247        0.68237
     245 <- 248       -0.10883
 This state for optimization and/or second-order correction.
 Total Energy, E(TD-HF/TD-DFT) =  -3007.11855678
 Copying the excited state density for this state as the 1-particle RhoCI density.

 Excited State   2:      Singlet-A      2.2631 eV  547.86 nm  f=0.0627  <S**2>=0.000
     245 -> 247        0.60912
     246 -> 248        0.34533

 Excited State   3:      Singlet-A      3.3538 eV  369.68 nm  f=0.0244  <S**2>=0.000
     243 -> 247       -0.12687
     244 -> 247        0.65399
     246 -> 248       -0.17021

 Excited State   4:      Singlet-A      3.4284 eV  361.63 nm  f=0.4437  <S**2>=0.000
     241 -> 247       -0.15114
     242 -> 247        0.16703
     243 -> 247       -0.30789
     245 -> 247       -0.26027
     246 -> 248        0.49964

 Excited State   5:      Singlet-A      3.5340 eV  350.83 nm  f=0.3280  <S**2>=0.000
     240 -> 247       -0.22178
     240 -> 249       -0.18111
     240 -> 250        0.11207
     241 -> 249        0.13273
     242 -> 247       -0.19892
     243 -> 247        0.37034
     244 -> 247        0.19640
     245 -> 247       -0.20692
     246 -> 248        0.28412

 The electronic state is 1-A.
 Alpha  occ. eigenvalues --  -46.89214 -19.25590 -19.24441 -19.20169 -19.19893
 Alpha  occ. eigenvalues --  -19.18750 -19.18552 -14.42749 -14.41797 -14.39797
 Alpha  occ. eigenvalues --  -14.38738 -10.39628 -10.39280 -10.34999 -10.34991
 Alpha  occ. eigenvalues --  -10.32619 -10.31758 -10.31636 -10.31570 -10.31253
 Alpha  occ. eigenvalues --  -10.30692 -10.30674 -10.30595 -10.29033 -10.28646
 Alpha  occ. eigenvalues --  -10.28511 -10.28487 -10.28405 -10.28016 -10.27990
 Alpha  occ. eigenvalues --  -10.27985 -10.27743 -10.27436 -10.27303 -10.27274
 Alpha  occ. eigenvalues --  -10.27271 -10.27164 -10.27087 -10.26837 -10.26785
 Alpha  occ. eigenvalues --  -10.26651 -10.26568 -10.26528 -10.26236 -10.26179
 Alpha  occ. eigenvalues --  -10.25925 -10.25656 -10.25554 -10.25380 -10.25318
 Alpha  occ. eigenvalues --  -10.25287 -10.25285 -10.25241 -10.25072 -10.24859
 Alpha  occ. eigenvalues --  -10.24809 -10.24775 -10.24649 -10.24626 -10.24412
 Alpha  occ. eigenvalues --  -10.24268 -10.24138 -10.24008 -10.23827 -10.23673
 Alpha  occ. eigenvalues --  -10.23605  -3.17606  -1.92523  -1.92071  -1.91890
 Alpha  occ. eigenvalues --   -1.16626  -1.15407  -1.10090  -1.09164  -1.08303
 Alpha  occ. eigenvalues --   -1.08091  -1.04814  -1.04008  -1.03381  -1.02031
 Alpha  occ. eigenvalues --   -0.92423  -0.90840  -0.89543  -0.89201  -0.89046
 Alpha  occ. eigenvalues --   -0.88364  -0.88298  -0.87189  -0.87105  -0.86383
 Alpha  occ. eigenvalues --   -0.85966  -0.85694  -0.84608  -0.84013  -0.83587
 Alpha  occ. eigenvalues --   -0.82486  -0.82193  -0.81405  -0.81054  -0.80390
 Alpha  occ. eigenvalues --   -0.79871  -0.77916  -0.77479  -0.77212  -0.76477
 Alpha  occ. eigenvalues --   -0.76217  -0.75328  -0.75000  -0.74723  -0.73649
 Alpha  occ. eigenvalues --   -0.73515  -0.72634  -0.72135  -0.70829  -0.69378
 Alpha  occ. eigenvalues --   -0.68153  -0.67863  -0.67147  -0.66700  -0.65618
 Alpha  occ. eigenvalues --   -0.65350  -0.64974  -0.64950  -0.64531  -0.63463
 Alpha  occ. eigenvalues --   -0.63271  -0.63112  -0.62790  -0.62195  -0.60129
 Alpha  occ. eigenvalues --   -0.59444  -0.59195  -0.58694  -0.58532  -0.58091
 Alpha  occ. eigenvalues --   -0.57621  -0.57013  -0.56711  -0.56330  -0.55774
 Alpha  occ. eigenvalues --   -0.55386  -0.54889  -0.54529  -0.54336  -0.53831
 Alpha  occ. eigenvalues --   -0.53791  -0.53734  -0.53361  -0.53141  -0.52757
 Alpha  occ. eigenvalues --   -0.52452  -0.52241  -0.51986  -0.51656  -0.51368
 Alpha  occ. eigenvalues --   -0.51296  -0.51060  -0.50919  -0.50680  -0.50579
 Alpha  occ. eigenvalues --   -0.50348  -0.50018  -0.49980  -0.49690  -0.49436
 Alpha  occ. eigenvalues --   -0.49216  -0.48947  -0.48667  -0.48552  -0.48424
 Alpha  occ. eigenvalues --   -0.48252  -0.48225  -0.48110  -0.47657  -0.47497
 Alpha  occ. eigenvalues --   -0.47326  -0.47038  -0.46872  -0.46756  -0.46263
 Alpha  occ. eigenvalues --   -0.46175  -0.46117  -0.46057  -0.45927  -0.45779
 Alpha  occ. eigenvalues --   -0.45642  -0.45519  -0.45262  -0.45193  -0.45095
 Alpha  occ. eigenvalues --   -0.45018  -0.44948  -0.44704  -0.44255  -0.44082
 Alpha  occ. eigenvalues --   -0.43812  -0.43686  -0.43470  -0.43279  -0.43090
 Alpha  occ. eigenvalues --   -0.42914  -0.42687  -0.42526  -0.42301  -0.42108
 Alpha  occ. eigenvalues --   -0.41836  -0.41446  -0.41315  -0.41151  -0.40926
 Alpha  occ. eigenvalues --   -0.40607  -0.40306  -0.40157  -0.40078  -0.39953
 Alpha  occ. eigenvalues --   -0.39878  -0.39653  -0.39336  -0.39280  -0.38415
 Alpha  occ. eigenvalues --   -0.38326  -0.38029  -0.37815  -0.37797  -0.37493
 Alpha  occ. eigenvalues --   -0.37252  -0.37237  -0.36869  -0.36520  -0.36223
 Alpha  occ. eigenvalues --   -0.35822  -0.35572  -0.35004  -0.34637  -0.34410
 Alpha  occ. eigenvalues --   -0.34248  -0.33258  -0.32346  -0.31308  -0.31098
 Alpha  occ. eigenvalues --   -0.30558  -0.30057  -0.30034  -0.29184  -0.24286
 Alpha  occ. eigenvalues --   -0.21036
 Alpha virt. eigenvalues --   -0.08455  -0.02362   0.00454   0.02411   0.03128
 Alpha virt. eigenvalues --    0.04740   0.04840   0.05231   0.06300   0.06779
 Alpha virt. eigenvalues --    0.07471   0.08268   0.08388   0.08810   0.09027

 Mulliken charges:
               1
     1  Mg   0.809866
     2  C    0.036756
     3  C   -0.072311
     4  C   -0.063444
     5  C   -0.078103
     6  N   -0.269268
     7  C   -0.063373
     8  C   -0.043215
     9  C   -0.002588
    10  C    0.043673
    11  C    0.057218
    12  C    0.079238
    13  C    0.023031
    14  C    0.145499
    15  O   -0.209910
    16  O   -0.335447
    17  N   -0.373299
    18  C    0.147100
    19  C   -0.155705
    20  C   -0.033216
    21  C    0.179192
    22  C    0.143214
    23  C   -0.028015
    24  O   -0.227739
    25  C    0.082005
    26  N   -0.260550
    27  C   -0.005675
    28  C   -0.048140
    29  C   -0.020583
    30  C    0.047590
    31  C    0.067615
    32  C   -0.022519
    33  C    0.016635
    34  N   -0.367339
    35  C    0.142260
    36  C   -0.184441
    37  C    0.044373
    38  C    0.069156
    39  C    0.112737
    40  C    0.013764
    41  O   -0.162007
    42  C    0.018572
    43  C    0.186341
    44  O   -0.212682
    45  O   -0.359493
    46  C    0.182699
    47  C    0.279020
    48  C   -0.140522
    49  C   -0.140590
    50  C    0.108178
    51  C    0.028609
    52  C    0.035041
    53  C    0.084863
    54  C   -0.143215
    55  C    0.069903
    56  C    0.031868
    57  C    0.025984
    58  C    0.044404
    59  C   -0.155793
    60  C    0.059783
    61  C    0.063299
    62  C    0.019143
    63  C    0.041503
    64  C   -0.160266
    65  C    0.068884
    66  C    0.037177
    67  H   -0.020930
    68  H   -0.067007
    69  H   -0.042364
    70  H    0.012464
    71  H    0.026888
    72  H    0.010117
    73  H    0.018864
    74  H    0.013659
    75  H    0.017364
    76  H    0.012572
    77  H    0.061804
    78  H    0.032203
    79  H    0.037604
    80  H    0.041475
    81  H   -0.010139
    82  H    0.062619
    83  H    0.020939
    84  H    0.035287
    85  H    0.021068
    86  H    0.010133
    87  H    0.020858
    88  H    0.027553
    89  H    0.019025
    90  H    0.004840
    91  H    0.004682
    92  H    0.031221
    93  H    0.024802
    94  H    0.015494
    95  H    0.020911
    96  H   -0.000529
    97  H    0.035258
    98  H    0.037245
    99  H    0.032353
   100  H    0.053937
   101  H    0.041507
   102  H    0.024760
   103  H    0.022824
   104  H    0.001592
   105  H    0.031995
   106  H    0.006630
   107  H    0.029523
   108  H    0.005335
   109  H   -0.005174
   110  H    0.014734
   111  H   -0.007793
   112  H   -0.025267
   113  H   -0.004630
   114  H   -0.012868
   115  H    0.008344
   116  H    0.007850
   117  H   -0.013072
   118  H   -0.008936
   119  H   -0.013833
   120  H   -0.013254
   121  H   -0.012929
   122  H   -0.002981
   123  H    0.005158
   124  H   -0.003022
   125  H    0.004364
   126  H   -0.001266
   127  H    0.003958
   128  H    0.006881
   129  H   -0.009075
   130  H    0.003736
   131  H    0.002513
   132  H   -0.024951
   133  H   -0.017251
   134  H   -0.001532
   135  H    0.013327
   136  H    0.000919
   137  H   -0.008883
   138  H    0.019568
   139  H    0.001352
   140  H    0.000833
 Sum of Mulliken charges =  -0.00000

 Dipole moment (field-independent basis, Debye):
    X=              0.9804    Y=              1.2288    Z=             -0.6315  Tot=              1.6941
 Quadrupole moment (field-independent basis, Debye-Ang):
   XX=           -426.0192   YY=           -367.2346   ZZ=           -415.1878
   XY=            -17.9992   XZ=            -24.5823   YZ=            -28.9160

 Normal termination of Gaussian 16 at Thu Apr 28 09:58:58 2022.
