 Gaussian 16, Revision A.03,
 Gaussian 16:  ES64L-G16RevA.03 25-Dec-2016

 ---------------------------------
 #p PBE1PBE/Def2SVP td=(nstates=5)
 ---------------------------------

 -----------------------------------------------------
 step_151_chromophore_26 TDDFT with PBE1PBE functional
 -----------------------------------------------------
 Symbolic Z-matrix:
 Charge =  0 Multiplicity = 1

                         Standard orientation:
 ---------------------------------------------------------------------
 Center     Atomic      Atomic             Coordinates (Angstroms)
 Number     Number       Type             X           Y           Z
 ---------------------------------------------------------------------
      1         12           0       -3.741863    1.194098    0.529890
      2          6           0       -4.573666   -2.022906   -0.479731
      3          6           0       -2.579250   -0.032480    3.504245
      4          6           0       -2.603891    4.228203    1.184766
      5          6           0       -5.055714    2.387143   -2.621428
      6          7           0       -3.500015   -0.794943    1.410446
      7          6           0       -4.043171   -1.913045    0.833975
      8          6           0       -3.989631   -3.130965    1.822778
      9          6           0       -3.571620   -2.448898    3.120479
     10          6           0       -3.258242   -1.029400    2.704811
     11          6           0       -4.452084   -2.633984    4.367483
     12          6           0       -2.990950   -4.268230    1.348354
     13          6           0       -1.768592   -3.853862    0.469175
     14          6           0       -0.374881   -3.820108    1.085681
     15          8           0       -0.075055   -3.646261    2.239195
     16          8           0        0.520182   -4.057973    0.089261
     17          7           0       -2.695469    2.032132    2.090743
     18          6           0       -2.275420    1.333651    3.202865
     19          6           0       -1.519032    2.247870    4.044207
     20          6           0       -1.292817    3.396141    3.248876
     21          6           0       -2.266511    3.293154    2.135931
     22          6           0       -0.897815    1.921077    5.398611
     23          6           0       -0.397060    4.554971    3.706661
     24          8           0        0.260524    4.452399    4.753572
     25          6           0       -0.343468    5.863186    3.020880
     26          7           0       -3.820577    3.073713   -0.646549
     27          6           0       -3.271700    4.217102   -0.056156
     28          6           0       -3.557129    5.474201   -0.907906
     29          6           0       -4.667293    4.868510   -1.867300
     30          6           0       -4.532852    3.349859   -1.733413
     31          6           0       -4.016249    6.616275    0.034205
     32          6           0       -4.541273    5.349213   -3.354900
     33          6           0       -5.826440    5.553694   -4.307728
     34          7           0       -4.529425    0.398201   -1.275499
     35          6           0       -5.096690    1.021180   -2.407765
     36          6           0       -5.704765   -0.000362   -3.189181
     37          6           0       -5.555234   -1.230389   -2.536682
     38          6           0       -4.775703   -0.940565   -1.415881
     39          6           0       -6.452140    0.181737   -4.461219
     40          6           0       -5.901803   -2.660303   -2.400333
     41          8           0       -6.641678   -3.333649   -3.087849
     42          6           0       -5.129917   -3.238759   -1.148230
     43          6           0       -6.236353   -3.858665   -0.374696
     44          8           0       -7.225573   -3.230297   -0.014091
     45          8           0       -5.948608   -5.215530   -0.229837
     46          6           0       -6.777552   -6.099974    0.611406
     47          6           0        1.920886   -4.318983    0.416639
     48          6           0        2.902994   -3.297676   -0.132783
     49          6           0        3.096339   -3.077648   -1.452916
     50          6           0        2.191473   -3.585985   -2.579703
     51          6           0        4.267114   -2.174126   -1.796412
     52          6           0        3.930526   -0.774403   -2.384111
     53          6           0        5.241355   -0.100025   -2.750805
     54          6           0        5.392480    1.282017   -2.141810
     55          6           0        5.206029    2.502767   -3.065831
     56          6           0        6.697798    1.591047   -1.429497
     57          6           0        7.033619    0.672671   -0.289905
     58          6           0        8.242201   -0.278974   -0.460697
     59          6           0        9.138471   -0.235040    0.855971
     60          6           0        8.581005   -1.023815    2.001873
     61          6           0       10.600463   -0.686560    0.429930
     62          6           0       11.671186    0.361952    0.995710
     63          6           0       12.698912    0.812332   -0.087749
     64          6           0       13.689882   -0.355039   -0.656884
     65          6           0       15.121746   -0.191866   -0.252122
     66          6           0       13.600123   -0.408350   -2.194098
     67          1           0       -2.256117   -0.357231    4.495194
     68          1           0       -2.146038    5.206821    1.342711
     69          1           0       -5.546104    2.716511   -3.540172
     70          1           0       -5.006999   -3.513163    1.901911
     71          1           0       -2.653743   -2.938876    3.444015
     72          1           0       -5.153833   -1.809340    4.489112
     73          1           0       -3.901063   -2.655569    5.308001
     74          1           0       -5.073576   -3.529678    4.343093
     75          1           0       -3.649267   -5.011671    0.897066
     76          1           0       -2.565300   -4.674758    2.264840
     77          1           0       -1.924247   -2.847335    0.080045
     78          1           0       -1.722578   -4.518495   -0.393166
     79          1           0       -1.020411    2.753489    6.091332
     80          1           0        0.140201    1.588128    5.402713
     81          1           0       -1.461321    1.065932    5.772064
     82          1           0       -1.290782    6.402644    3.000259
     83          1           0       -0.157320    5.526424    2.000971
     84          1           0        0.591705    6.276625    3.398307
     85          1           0       -2.672743    5.798845   -1.456488
     86          1           0       -5.646952    5.229684   -1.554688
     87          1           0       -3.118657    7.179183    0.290270
     88          1           0       -4.484388    6.236182    0.942324
     89          1           0       -4.718839    7.235514   -0.523808
     90          1           0       -3.945399    4.490006   -3.662940
     91          1           0       -3.846123    6.187446   -3.406679
     92          1           0       -5.876209    4.735135   -5.026171
     93          1           0       -5.811848    6.514116   -4.823650
     94          1           0       -6.711316    5.498991   -3.673614
     95          1           0       -5.856746    0.090268   -5.369170
     96          1           0       -6.801772    1.213939   -4.484914
     97          1           0       -7.262529   -0.529710   -4.619010
     98          1           0       -4.575374   -4.073800   -1.576265
     99          1           0       -7.010605   -5.698076    1.597577
    100          1           0       -6.224378   -7.039061    0.598814
    101          1           0       -7.780256   -6.162794    0.188460
    102          1           0        2.130014   -5.328393    0.062775
    103          1           0        2.086809   -4.379474    1.492353
    104          1           0        3.537811   -2.746419    0.561298
    105          1           0        1.524757   -4.333902   -2.151224
    106          1           0        2.803983   -3.890094   -3.428676
    107          1           0        1.633573   -2.750477   -3.001076
    108          1           0        4.901465   -2.741228   -2.477787
    109          1           0        4.904298   -1.953990   -0.939746
    110          1           0        3.310450   -0.126746   -1.763841
    111          1           0        3.441476   -0.975166   -3.336916
    112          1           0        5.169005    0.123018   -3.814729
    113          1           0        6.138181   -0.718122   -2.703863
    114          1           0        4.657347    1.277719   -1.336988
    115          1           0        6.081547    2.895809   -3.582726
    116          1           0        4.720872    3.337410   -2.562229
    117          1           0        4.540570    2.169486   -3.862817
    118          1           0        6.674942    2.584996   -0.982748
    119          1           0        7.496982    1.566082   -2.170429
    120          1           0        6.230102    0.027064    0.063341
    121          1           0        7.095638    1.438950    0.482043
    122          1           0        8.766403    0.118060   -1.330111
    123          1           0        7.938511   -1.312346   -0.628231
    124          1           0        9.172243    0.771594    1.271778
    125          1           0        7.942576   -0.505935    2.717724
    126          1           0        9.415589   -1.271252    2.658002
    127          1           0        8.037790   -1.878822    1.600119
    128          1           0       10.574168   -0.836248   -0.649382
    129          1           0       10.808287   -1.617397    0.957365
    130          1           0       12.149460   -0.076829    1.871792
    131          1           0       11.181179    1.279384    1.318180
    132          1           0       13.306517    1.644634    0.268087
    133          1           0       12.257976    1.362346   -0.918606
    134          1           0       13.380003   -1.323685   -0.264831
    135          1           0       15.557980   -1.148664    0.034374
    136          1           0       15.240127    0.603661    0.483261
    137          1           0       15.683752    0.215311   -1.091855
    138          1           0       13.991320    0.464658   -2.716439
    139          1           0       12.565063   -0.598042   -2.477027
    140          1           0       14.128407   -1.327070   -2.449083
 ---------------------------------------------------------------------

 SCF Done:  E(RPBE1PBE) =  -3005.37012774     A.U. after   15 cycles

 Excitation energies and oscillator strengths:

 Excited State   1:      Singlet-A      1.8587 eV  667.04 nm  f=0.3230  <S**2>=0.000
     245 -> 248       -0.18011
     246 -> 247        0.68892
     246 <- 247       -0.10075
 This state for optimization and/or second-order correction.
 Total Energy, E(TD-HF/TD-DFT) =  -3005.30182075
 Copying the excited state density for this state as the 1-particle RhoCI density.

 Excited State   2:      Singlet-A      2.2727 eV  545.53 nm  f=0.0690  <S**2>=0.000
     245 -> 247        0.62594
     246 -> 248        0.31291

 Excited State   3:      Singlet-A      2.9890 eV  414.80 nm  f=0.0004  <S**2>=0.000
     243 -> 247        0.27253
     244 -> 247        0.63284

 Excited State   4:      Singlet-A      3.0434 eV  407.38 nm  f=0.0015  <S**2>=0.000
     240 -> 247        0.13783
     243 -> 247        0.59648
     244 -> 247       -0.28346

 Excited State   5:      Singlet-A      3.1079 eV  398.93 nm  f=0.0332  <S**2>=0.000
     241 -> 247        0.63746
     246 -> 248       -0.21082

 The electronic state is 1-A.
 Alpha  occ. eigenvalues --  -46.92593 -19.26296 -19.25090 -19.20430 -19.20103
 Alpha  occ. eigenvalues --  -19.19096 -19.18671 -14.42210 -14.41325 -14.39339
 Alpha  occ. eigenvalues --  -14.38524 -10.36710 -10.36237 -10.32301 -10.32027
 Alpha  occ. eigenvalues --  -10.29849 -10.29306 -10.29281 -10.29119 -10.28932
 Alpha  occ. eigenvalues --  -10.28448 -10.28160 -10.28136 -10.26944 -10.26456
 Alpha  occ. eigenvalues --  -10.26339 -10.26274 -10.25982 -10.25865 -10.25836
 Alpha  occ. eigenvalues --  -10.25679 -10.25330 -10.25161 -10.25155 -10.24830
 Alpha  occ. eigenvalues --  -10.24824 -10.24797 -10.24728 -10.24535 -10.24400
 Alpha  occ. eigenvalues --  -10.24284 -10.24126 -10.24030 -10.23597 -10.23466
 Alpha  occ. eigenvalues --  -10.23301 -10.23195 -10.23018 -10.22868 -10.22848
 Alpha  occ. eigenvalues --  -10.22842 -10.22823 -10.22802 -10.22770 -10.22544
 Alpha  occ. eigenvalues --  -10.22526 -10.22377 -10.22338 -10.22204 -10.21953
 Alpha  occ. eigenvalues --  -10.21650 -10.21509 -10.21352 -10.21351 -10.21116
 Alpha  occ. eigenvalues --  -10.21017  -3.14570  -1.87429  -1.86954  -1.86777
 Alpha  occ. eigenvalues --   -1.11388  -1.10183  -1.04954  -1.03771  -1.03127
 Alpha  occ. eigenvalues --   -1.02946  -0.99369  -0.98574  -0.98017  -0.96819
 Alpha  occ. eigenvalues --   -0.86837  -0.84932  -0.83715  -0.83377  -0.83326
 Alpha  occ. eigenvalues --   -0.82646  -0.82368  -0.81439  -0.81234  -0.80768
 Alpha  occ. eigenvalues --   -0.80213  -0.79903  -0.78803  -0.78334  -0.77773
 Alpha  occ. eigenvalues --   -0.76616  -0.76353  -0.75750  -0.75282  -0.74622
 Alpha  occ. eigenvalues --   -0.74078  -0.72183  -0.71820  -0.71455  -0.70775
 Alpha  occ. eigenvalues --   -0.70376  -0.69688  -0.69069  -0.68840  -0.67862
 Alpha  occ. eigenvalues --   -0.67748  -0.67107  -0.66559  -0.65132  -0.63776
 Alpha  occ. eigenvalues --   -0.62594  -0.62179  -0.61516  -0.60920  -0.60052
 Alpha  occ. eigenvalues --   -0.59769  -0.59490  -0.59179  -0.59055  -0.57899
 Alpha  occ. eigenvalues --   -0.57447  -0.57383  -0.57245  -0.56361  -0.54634
 Alpha  occ. eigenvalues --   -0.54050  -0.53702  -0.53176  -0.53036  -0.52595
 Alpha  occ. eigenvalues --   -0.52191  -0.51428  -0.51236  -0.50720  -0.50355
 Alpha  occ. eigenvalues --   -0.49969  -0.49340  -0.49040  -0.48803  -0.48441
 Alpha  occ. eigenvalues --   -0.48294  -0.48161  -0.47810  -0.47771  -0.47244
 Alpha  occ. eigenvalues --   -0.46845  -0.46745  -0.46404  -0.46188  -0.45940
 Alpha  occ. eigenvalues --   -0.45790  -0.45660  -0.45493  -0.45162  -0.45073
 Alpha  occ. eigenvalues --   -0.44933  -0.44630  -0.44538  -0.44159  -0.44083
 Alpha  occ. eigenvalues --   -0.43890  -0.43462  -0.43348  -0.43140  -0.43022
 Alpha  occ. eigenvalues --   -0.42840  -0.42829  -0.42634  -0.42216  -0.42170
 Alpha  occ. eigenvalues --   -0.41968  -0.41645  -0.41473  -0.41447  -0.40908
 Alpha  occ. eigenvalues --   -0.40845  -0.40785  -0.40661  -0.40576  -0.40456
 Alpha  occ. eigenvalues --   -0.40390  -0.40172  -0.39999  -0.39937  -0.39827
 Alpha  occ. eigenvalues --   -0.39751  -0.39691  -0.39353  -0.39062  -0.38859
 Alpha  occ. eigenvalues --   -0.38531  -0.38411  -0.38232  -0.38107  -0.37916
 Alpha  occ. eigenvalues --   -0.37725  -0.37542  -0.37335  -0.37087  -0.36939
 Alpha  occ. eigenvalues --   -0.36577  -0.36363  -0.36050  -0.35930  -0.35822
 Alpha  occ. eigenvalues --   -0.35392  -0.35250  -0.35046  -0.34917  -0.34862
 Alpha  occ. eigenvalues --   -0.34635  -0.34348  -0.34220  -0.34074  -0.33395
 Alpha  occ. eigenvalues --   -0.33078  -0.32782  -0.32780  -0.32559  -0.32353
 Alpha  occ. eigenvalues --   -0.32260  -0.32015  -0.31881  -0.31576  -0.31026
 Alpha  occ. eigenvalues --   -0.30719  -0.30444  -0.29914  -0.29572  -0.29473
 Alpha  occ. eigenvalues --   -0.29169  -0.28771  -0.27323  -0.26861  -0.26039
 Alpha  occ. eigenvalues --   -0.25636  -0.25355  -0.25214  -0.24926  -0.21191
 Alpha  occ. eigenvalues --   -0.18704
 Alpha virt. eigenvalues --   -0.10989  -0.05777  -0.03749  -0.01917   0.00052
 Alpha virt. eigenvalues --    0.00262   0.00331   0.01064   0.01885   0.02782
 Alpha virt. eigenvalues --    0.03670   0.04190   0.05130   0.05321   0.05645

 Mulliken charges:
               1
     1  Mg   0.956825
     2  C    0.017470
     3  C   -0.058248
     4  C   -0.077004
     5  C   -0.072797
     6  N   -0.374658
     7  C   -0.000750
     8  C   -0.109837
     9  C   -0.079346
    10  C    0.081927
    11  C    0.000350
    12  C    0.024416
    13  C   -0.054046
    14  C    0.218659
    15  O   -0.245969
    16  O   -0.366351
    17  N   -0.494013
    18  C    0.164290
    19  C   -0.180752
    20  C   -0.075960
    21  C    0.208431
    22  C    0.082421
    23  C    0.021010
    24  O   -0.261385
    25  C    0.003544
    26  N   -0.362707
    27  C    0.043994
    28  C   -0.127747
    29  C   -0.092095
    30  C    0.087567
    31  C    0.006950
    32  C   -0.082089
    33  C   -0.057177
    34  N   -0.487549
    35  C    0.166862
    36  C   -0.214917
    37  C   -0.003326
    38  C    0.137601
    39  C    0.063705
    40  C    0.117438
    41  O   -0.205728
    42  C   -0.103637
    43  C    0.281743
    44  O   -0.246527
    45  O   -0.393390
    46  C    0.128385
    47  C    0.229803
    48  C   -0.149439
    49  C   -0.177932
    50  C    0.045067
    51  C   -0.040799
    52  C   -0.031573
    53  C    0.031602
    54  C   -0.229508
    55  C    0.006861
    56  C   -0.023022
    57  C   -0.030021
    58  C   -0.018029
    59  C   -0.236467
    60  C    0.002851
    61  C    0.007416
    62  C   -0.048052
    63  C   -0.010115
    64  C   -0.250493
    65  C    0.010586
    66  C   -0.030162
    67  H    0.010784
    68  H   -0.028736
    69  H   -0.005553
    70  H    0.054064
    71  H    0.064735
    72  H    0.038378
    73  H    0.045281
    74  H    0.040445
    75  H    0.051866
    76  H    0.045923
    77  H    0.097595
    78  H    0.063316
    79  H    0.064552
    80  H    0.067960
    81  H    0.017905
    82  H    0.087634
    83  H    0.049062
    84  H    0.062560
    85  H    0.056329
    86  H    0.047957
    87  H    0.048577
    88  H    0.056186
    89  H    0.047760
    90  H    0.039776
    91  H    0.037764
    92  H    0.056749
    93  H    0.052785
    94  H    0.043014
    95  H    0.050136
    96  H    0.027176
    97  H    0.062682
    98  H    0.073037
    99  H    0.053232
   100  H    0.074571
   101  H    0.063221
   102  H    0.052197
   103  H    0.049411
   104  H    0.030682
   105  H    0.059724
   106  H    0.034258
   107  H    0.057280
   108  H    0.038664
   109  H    0.030450
   110  H    0.045429
   111  H    0.026742
   112  H    0.009897
   113  H    0.027932
   114  H    0.026722
   115  H    0.035172
   116  H    0.036372
   117  H    0.015534
   118  H    0.024089
   119  H    0.018935
   120  H    0.021674
   121  H    0.018505
   122  H    0.029652
   123  H    0.036962
   124  H    0.034271
   125  H    0.031627
   126  H    0.026960
   127  H    0.031008
   128  H    0.039359
   129  H    0.023922
   130  H    0.035755
   131  H    0.034485
   132  H    0.007286
   133  H    0.015045
   134  H    0.036064
   135  H    0.040368
   136  H    0.028110
   137  H    0.018914
   138  H    0.046489
   139  H    0.030787
   140  H    0.030387
 Sum of Mulliken charges =  -0.00000

 Dipole moment (field-independent basis, Debye):
    X=              0.7575    Y=              1.2085    Z=             -0.9488  Tot=              1.7131
 Quadrupole moment (field-independent basis, Debye-Ang):
   XX=           -421.7147   YY=           -363.6933   ZZ=           -411.4058
   XY=            -18.1258   XZ=            -23.1540   YZ=            -30.3084

 Normal termination of Gaussian 16 at Thu Apr 28 10:17:56 2022.
