 Gaussian 16, Revision A.03,
 Gaussian 16:  ES64L-G16RevA.03 25-Dec-2016

 --------------------------------
 #p wB97XD/Def2SVP td=(nstates=5)
 --------------------------------

 ----------------------------------------------------
 step_151_chromophore_26 TDDFT with wB97XD functional
 ----------------------------------------------------
 Symbolic Z-matrix:
 Charge =  0 Multiplicity = 1

                         Standard orientation:
 ---------------------------------------------------------------------
 Center     Atomic      Atomic             Coordinates (Angstroms)
 Number     Number       Type             X           Y           Z
 ---------------------------------------------------------------------
      1         12           0       -3.741863    1.194098    0.529890
      2          6           0       -4.573666   -2.022906   -0.479731
      3          6           0       -2.579250   -0.032480    3.504245
      4          6           0       -2.603891    4.228203    1.184766
      5          6           0       -5.055714    2.387143   -2.621428
      6          7           0       -3.500015   -0.794943    1.410446
      7          6           0       -4.043171   -1.913045    0.833975
      8          6           0       -3.989631   -3.130965    1.822778
      9          6           0       -3.571620   -2.448898    3.120479
     10          6           0       -3.258242   -1.029400    2.704811
     11          6           0       -4.452084   -2.633984    4.367483
     12          6           0       -2.990950   -4.268230    1.348354
     13          6           0       -1.768592   -3.853862    0.469175
     14          6           0       -0.374881   -3.820108    1.085681
     15          8           0       -0.075055   -3.646261    2.239195
     16          8           0        0.520182   -4.057973    0.089261
     17          7           0       -2.695469    2.032132    2.090743
     18          6           0       -2.275420    1.333651    3.202865
     19          6           0       -1.519032    2.247870    4.044207
     20          6           0       -1.292817    3.396141    3.248876
     21          6           0       -2.266511    3.293154    2.135931
     22          6           0       -0.897815    1.921077    5.398611
     23          6           0       -0.397060    4.554971    3.706661
     24          8           0        0.260524    4.452399    4.753572
     25          6           0       -0.343468    5.863186    3.020880
     26          7           0       -3.820577    3.073713   -0.646549
     27          6           0       -3.271700    4.217102   -0.056156
     28          6           0       -3.557129    5.474201   -0.907906
     29          6           0       -4.667293    4.868510   -1.867300
     30          6           0       -4.532852    3.349859   -1.733413
     31          6           0       -4.016249    6.616275    0.034205
     32          6           0       -4.541273    5.349213   -3.354900
     33          6           0       -5.826440    5.553694   -4.307728
     34          7           0       -4.529425    0.398201   -1.275499
     35          6           0       -5.096690    1.021180   -2.407765
     36          6           0       -5.704765   -0.000362   -3.189181
     37          6           0       -5.555234   -1.230389   -2.536682
     38          6           0       -4.775703   -0.940565   -1.415881
     39          6           0       -6.452140    0.181737   -4.461219
     40          6           0       -5.901803   -2.660303   -2.400333
     41          8           0       -6.641678   -3.333649   -3.087849
     42          6           0       -5.129917   -3.238759   -1.148230
     43          6           0       -6.236353   -3.858665   -0.374696
     44          8           0       -7.225573   -3.230297   -0.014091
     45          8           0       -5.948608   -5.215530   -0.229837
     46          6           0       -6.777552   -6.099974    0.611406
     47          6           0        1.920886   -4.318983    0.416639
     48          6           0        2.902994   -3.297676   -0.132783
     49          6           0        3.096339   -3.077648   -1.452916
     50          6           0        2.191473   -3.585985   -2.579703
     51          6           0        4.267114   -2.174126   -1.796412
     52          6           0        3.930526   -0.774403   -2.384111
     53          6           0        5.241355   -0.100025   -2.750805
     54          6           0        5.392480    1.282017   -2.141810
     55          6           0        5.206029    2.502767   -3.065831
     56          6           0        6.697798    1.591047   -1.429497
     57          6           0        7.033619    0.672671   -0.289905
     58          6           0        8.242201   -0.278974   -0.460697
     59          6           0        9.138471   -0.235040    0.855971
     60          6           0        8.581005   -1.023815    2.001873
     61          6           0       10.600463   -0.686560    0.429930
     62          6           0       11.671186    0.361952    0.995710
     63          6           0       12.698912    0.812332   -0.087749
     64          6           0       13.689882   -0.355039   -0.656884
     65          6           0       15.121746   -0.191866   -0.252122
     66          6           0       13.600123   -0.408350   -2.194098
     67          1           0       -2.256117   -0.357231    4.495194
     68          1           0       -2.146038    5.206821    1.342711
     69          1           0       -5.546104    2.716511   -3.540172
     70          1           0       -5.006999   -3.513163    1.901911
     71          1           0       -2.653743   -2.938876    3.444015
     72          1           0       -5.153833   -1.809340    4.489112
     73          1           0       -3.901063   -2.655569    5.308001
     74          1           0       -5.073576   -3.529678    4.343093
     75          1           0       -3.649267   -5.011671    0.897066
     76          1           0       -2.565300   -4.674758    2.264840
     77          1           0       -1.924247   -2.847335    0.080045
     78          1           0       -1.722578   -4.518495   -0.393166
     79          1           0       -1.020411    2.753489    6.091332
     80          1           0        0.140201    1.588128    5.402713
     81          1           0       -1.461321    1.065932    5.772064
     82          1           0       -1.290782    6.402644    3.000259
     83          1           0       -0.157320    5.526424    2.000971
     84          1           0        0.591705    6.276625    3.398307
     85          1           0       -2.672743    5.798845   -1.456488
     86          1           0       -5.646952    5.229684   -1.554688
     87          1           0       -3.118657    7.179183    0.290270
     88          1           0       -4.484388    6.236182    0.942324
     89          1           0       -4.718839    7.235514   -0.523808
     90          1           0       -3.945399    4.490006   -3.662940
     91          1           0       -3.846123    6.187446   -3.406679
     92          1           0       -5.876209    4.735135   -5.026171
     93          1           0       -5.811848    6.514116   -4.823650
     94          1           0       -6.711316    5.498991   -3.673614
     95          1           0       -5.856746    0.090268   -5.369170
     96          1           0       -6.801772    1.213939   -4.484914
     97          1           0       -7.262529   -0.529710   -4.619010
     98          1           0       -4.575374   -4.073800   -1.576265
     99          1           0       -7.010605   -5.698076    1.597577
    100          1           0       -6.224378   -7.039061    0.598814
    101          1           0       -7.780256   -6.162794    0.188460
    102          1           0        2.130014   -5.328393    0.062775
    103          1           0        2.086809   -4.379474    1.492353
    104          1           0        3.537811   -2.746419    0.561298
    105          1           0        1.524757   -4.333902   -2.151224
    106          1           0        2.803983   -3.890094   -3.428676
    107          1           0        1.633573   -2.750477   -3.001076
    108          1           0        4.901465   -2.741228   -2.477787
    109          1           0        4.904298   -1.953990   -0.939746
    110          1           0        3.310450   -0.126746   -1.763841
    111          1           0        3.441476   -0.975166   -3.336916
    112          1           0        5.169005    0.123018   -3.814729
    113          1           0        6.138181   -0.718122   -2.703863
    114          1           0        4.657347    1.277719   -1.336988
    115          1           0        6.081547    2.895809   -3.582726
    116          1           0        4.720872    3.337410   -2.562229
    117          1           0        4.540570    2.169486   -3.862817
    118          1           0        6.674942    2.584996   -0.982748
    119          1           0        7.496982    1.566082   -2.170429
    120          1           0        6.230102    0.027064    0.063341
    121          1           0        7.095638    1.438950    0.482043
    122          1           0        8.766403    0.118060   -1.330111
    123          1           0        7.938511   -1.312346   -0.628231
    124          1           0        9.172243    0.771594    1.271778
    125          1           0        7.942576   -0.505935    2.717724
    126          1           0        9.415589   -1.271252    2.658002
    127          1           0        8.037790   -1.878822    1.600119
    128          1           0       10.574168   -0.836248   -0.649382
    129          1           0       10.808287   -1.617397    0.957365
    130          1           0       12.149460   -0.076829    1.871792
    131          1           0       11.181179    1.279384    1.318180
    132          1           0       13.306517    1.644634    0.268087
    133          1           0       12.257976    1.362346   -0.918606
    134          1           0       13.380003   -1.323685   -0.264831
    135          1           0       15.557980   -1.148664    0.034374
    136          1           0       15.240127    0.603661    0.483261
    137          1           0       15.683752    0.215311   -1.091855
    138          1           0       13.991320    0.464658   -2.716439
    139          1           0       12.565063   -0.598042   -2.477027
    140          1           0       14.128407   -1.327070   -2.449083
 ---------------------------------------------------------------------

 SCF Done:  E(RwB97XD) =  -3007.88030824     A.U. after   20 cycles

 Excitation energies and oscillator strengths:

 Excited State   1:      Singlet-A      1.6610 eV  746.43 nm  f=0.3332  <S**2>=0.000
     245 -> 248       -0.19148
     246 -> 247        0.68058
     245 <- 248       -0.11802
 This state for optimization and/or second-order correction.
 Total Energy, E(TD-HF/TD-DFT) =  -3007.81926616
 Copying the excited state density for this state as the 1-particle RhoCI density.

 Excited State   2:      Singlet-A      2.2070 eV  561.79 nm  f=0.0612  <S**2>=0.000
     245 -> 247        0.60800
     246 -> 248        0.34609

 Excited State   3:      Singlet-A      3.3753 eV  367.33 nm  f=0.0360  <S**2>=0.000
     242 -> 247       -0.15993
     244 -> 247        0.63597
     246 -> 248       -0.19329

 Excited State   4:      Singlet-A      3.4365 eV  360.79 nm  f=0.4037  <S**2>=0.000
     241 -> 247       -0.15693
     242 -> 247       -0.37410
     242 -> 249       -0.13207
     245 -> 247       -0.24365
     246 -> 248        0.47694

 Excited State   5:      Singlet-A      3.5532 eV  348.94 nm  f=0.3577  <S**2>=0.000
     240 -> 247       -0.24070
     240 -> 248        0.10184
     240 -> 249       -0.20816
     240 -> 250       -0.12963
     241 -> 249        0.15018
     242 -> 247        0.33605
     242 -> 249        0.12454
     244 -> 247        0.21175
     245 -> 247       -0.21397
     246 -> 248        0.30143

 The electronic state is 1-A.
 Alpha  occ. eigenvalues --  -46.95544 -19.30832 -19.29660 -19.25112 -19.24790
 Alpha  occ. eigenvalues --  -19.23765 -19.23608 -14.47347 -14.46375 -14.44406
 Alpha  occ. eigenvalues --  -14.43331 -10.43505 -10.43043 -10.39003 -10.38979
 Alpha  occ. eigenvalues --  -10.36358 -10.35833 -10.35722 -10.35446 -10.35281
 Alpha  occ. eigenvalues --  -10.34792 -10.34767 -10.34546 -10.32990 -10.32706
 Alpha  occ. eigenvalues --  -10.32692 -10.32558 -10.32445 -10.32092 -10.32035
 Alpha  occ. eigenvalues --  -10.32012 -10.31847 -10.31494 -10.31420 -10.31311
 Alpha  occ. eigenvalues --  -10.31208 -10.31177 -10.31069 -10.30839 -10.30830
 Alpha  occ. eigenvalues --  -10.30542 -10.30517 -10.30366 -10.30126 -10.30058
 Alpha  occ. eigenvalues --  -10.29744 -10.29577 -10.29517 -10.29308 -10.29219
 Alpha  occ. eigenvalues --  -10.29206 -10.29196 -10.29070 -10.29048 -10.28811
 Alpha  occ. eigenvalues --  -10.28745 -10.28697 -10.28648 -10.28563 -10.28317
 Alpha  occ. eigenvalues --  -10.28086 -10.27948 -10.27807 -10.27730 -10.27505
 Alpha  occ. eigenvalues --  -10.27454  -3.21391  -1.94996  -1.94520  -1.94343
 Alpha  occ. eigenvalues --   -1.18773  -1.17573  -1.12300  -1.11398  -1.10473
 Alpha  occ. eigenvalues --   -1.10290  -1.06836  -1.06059  -1.05388  -1.04035
 Alpha  occ. eigenvalues --   -0.94383  -0.92594  -0.91367  -0.91030  -0.90991
 Alpha  occ. eigenvalues --   -0.90222  -0.90047  -0.89065  -0.88903  -0.88328
 Alpha  occ. eigenvalues --   -0.87935  -0.87566  -0.86456  -0.85923  -0.85480
 Alpha  occ. eigenvalues --   -0.84394  -0.84022  -0.83327  -0.82950  -0.82260
 Alpha  occ. eigenvalues --   -0.81726  -0.79805  -0.79406  -0.79163  -0.78417
 Alpha  occ. eigenvalues --   -0.78045  -0.77284  -0.76772  -0.76525  -0.75494
 Alpha  occ. eigenvalues --   -0.75402  -0.74600  -0.74111  -0.72758  -0.71296
 Alpha  occ. eigenvalues --   -0.70108  -0.69773  -0.69157  -0.68562  -0.67548
 Alpha  occ. eigenvalues --   -0.67310  -0.66948  -0.66798  -0.66521  -0.65372
 Alpha  occ. eigenvalues --   -0.65099  -0.64921  -0.64761  -0.64005  -0.62151
 Alpha  occ. eigenvalues --   -0.61426  -0.61166  -0.60590  -0.60502  -0.60035
 Alpha  occ. eigenvalues --   -0.59610  -0.58921  -0.58679  -0.58244  -0.57733
 Alpha  occ. eigenvalues --   -0.57354  -0.56776  -0.56440  -0.56217  -0.55756
 Alpha  occ. eigenvalues --   -0.55705  -0.55591  -0.55209  -0.55117  -0.54713
 Alpha  occ. eigenvalues --   -0.54285  -0.54183  -0.53921  -0.53557  -0.53282
 Alpha  occ. eigenvalues --   -0.53167  -0.52963  -0.52798  -0.52537  -0.52444
 Alpha  occ. eigenvalues --   -0.52235  -0.51933  -0.51868  -0.51679  -0.51370
 Alpha  occ. eigenvalues --   -0.51165  -0.50811  -0.50595  -0.50494  -0.50323
 Alpha  occ. eigenvalues --   -0.50165  -0.50153  -0.49967  -0.49529  -0.49401
 Alpha  occ. eigenvalues --   -0.49282  -0.48925  -0.48820  -0.48655  -0.48105
 Alpha  occ. eigenvalues --   -0.48096  -0.47969  -0.47941  -0.47793  -0.47710
 Alpha  occ. eigenvalues --   -0.47530  -0.47391  -0.47171  -0.47078  -0.46999
 Alpha  occ. eigenvalues --   -0.46954  -0.46870  -0.46563  -0.46165  -0.45986
 Alpha  occ. eigenvalues --   -0.45702  -0.45576  -0.45368  -0.45201  -0.45034
 Alpha  occ. eigenvalues --   -0.44844  -0.44592  -0.44445  -0.44208  -0.44067
 Alpha  occ. eigenvalues --   -0.43697  -0.43398  -0.43326  -0.42995  -0.42815
 Alpha  occ. eigenvalues --   -0.42504  -0.42209  -0.42025  -0.41980  -0.41866
 Alpha  occ. eigenvalues --   -0.41719  -0.41460  -0.41231  -0.41151  -0.40334
 Alpha  occ. eigenvalues --   -0.40152  -0.39840  -0.39738  -0.39624  -0.39396
 Alpha  occ. eigenvalues --   -0.39290  -0.39071  -0.38830  -0.38556  -0.38063
 Alpha  occ. eigenvalues --   -0.37725  -0.37409  -0.36842  -0.36587  -0.36354
 Alpha  occ. eigenvalues --   -0.36196  -0.35485  -0.34168  -0.33481  -0.33117
 Alpha  occ. eigenvalues --   -0.32571  -0.32184  -0.32063  -0.31309  -0.26207
 Alpha  occ. eigenvalues --   -0.22838
 Alpha virt. eigenvalues --   -0.06795  -0.00462   0.02517   0.04640   0.06089
 Alpha virt. eigenvalues --    0.06963   0.07021   0.07701   0.08719   0.09307
 Alpha virt. eigenvalues --    0.10073   0.11077   0.11772   0.12049   0.12413

 Mulliken charges:
               1
     1  Mg   0.948135
     2  C    0.016395
     3  C   -0.077840
     4  C   -0.081597
     5  C   -0.085388
     6  N   -0.340744
     7  C   -0.026921
     8  C   -0.084466
     9  C   -0.054218
    10  C    0.066923
    11  C    0.009533
    12  C    0.039654
    13  C   -0.036308
    14  C    0.207456
    15  O   -0.242668
    16  O   -0.364878
    17  N   -0.460435
    18  C    0.161611
    19  C   -0.172199
    20  C   -0.072988
    21  C    0.206174
    22  C    0.095932
    23  C    0.017852
    24  O   -0.256305
    25  C    0.018454
    26  N   -0.331326
    27  C    0.029747
    28  C   -0.103316
    29  C   -0.070727
    30  C    0.074733
    31  C    0.019452
    32  C   -0.064757
    33  C   -0.040121
    34  N   -0.452573
    35  C    0.157057
    36  C   -0.207771
    37  C    0.001047
    38  C    0.112525
    39  C    0.072966
    40  C    0.097259
    41  O   -0.198687
    42  C   -0.060212
    43  C    0.254157
    44  O   -0.240767
    45  O   -0.390004
    46  C    0.141446
    47  C    0.243280
    48  C   -0.159356
    49  C   -0.168900
    50  C    0.059254
    51  C   -0.012692
    52  C   -0.014542
    53  C    0.042444
    54  C   -0.197260
    55  C    0.020106
    56  C   -0.004877
    57  C   -0.016505
    58  C    0.003062
    59  C   -0.204957
    60  C    0.012579
    61  C    0.021315
    62  C   -0.027679
    63  C    0.002089
    64  C   -0.224130
    65  C    0.020817
    66  C   -0.014351
    67  H    0.005236
    68  H   -0.047903
    69  H   -0.019221
    70  H    0.038928
    71  H    0.053515
    72  H    0.032203
    73  H    0.040657
    74  H    0.035832
    75  H    0.041406
    76  H    0.037033
    77  H    0.086342
    78  H    0.058962
    79  H    0.061145
    80  H    0.065619
    81  H    0.011532
    82  H    0.084228
    83  H    0.041435
    84  H    0.061969
    85  H    0.048290
    86  H    0.035777
    87  H    0.042629
    88  H    0.049242
    89  H    0.042402
    90  H    0.027276
    91  H    0.029726
    92  H    0.051223
    93  H    0.048093
    94  H    0.036252
    95  H    0.044274
    96  H    0.019522
    97  H    0.058896
    98  H    0.067517
    99  H    0.049358
   100  H    0.072205
   101  H    0.059776
   102  H    0.047882
   103  H    0.046016
   104  H    0.028145
   105  H    0.054010
   106  H    0.028905
   107  H    0.051581
   108  H    0.029900
   109  H    0.015068
   110  H    0.038124
   111  H    0.017349
   112  H    0.000504
   113  H    0.017443
   114  H    0.011292
   115  H    0.029389
   116  H    0.031024
   117  H    0.008083
   118  H    0.016214
   119  H    0.007142
   120  H    0.009296
   121  H    0.010529
   122  H    0.017816
   123  H    0.027385
   124  H    0.018914
   125  H    0.026710
   126  H    0.019644
   127  H    0.024434
   128  H    0.027743
   129  H    0.014920
   130  H    0.028269
   131  H    0.025833
   132  H   -0.000903
   133  H    0.006635
   134  H    0.025124
   135  H    0.035964
   136  H    0.021777
   137  H    0.011982
   138  H    0.040488
   139  H    0.023312
   140  H    0.023690
 Sum of Mulliken charges =  -0.00000

 Dipole moment (field-independent basis, Debye):
    X=              1.0150    Y=              1.3083    Z=             -0.5265  Tot=              1.7376
 Quadrupole moment (field-independent basis, Debye-Ang):
   XX=           -423.0081   YY=           -362.4711   ZZ=           -410.8218
   XY=            -17.7195   XZ=            -24.6821   YZ=            -29.2758

 Normal termination of Gaussian 16 at Thu Apr 28 10:45:41 2022.
