 Gaussian 16, Revision A.03,
 Gaussian 16:  ES64L-G16RevA.03 25-Dec-2016

 --------------------
 #p ZINDO=(nstates=5)
 --------------------

 -----------------------------
 step_151_chromophore_26 ZINDO
 -----------------------------
 Symbolic Z-matrix:
 Charge =  0 Multiplicity = 1

                         Standard orientation:
 ---------------------------------------------------------------------
 Center     Atomic      Atomic             Coordinates (Angstroms)
 Number     Number       Type             X           Y           Z
 ---------------------------------------------------------------------
      1         12           0       -3.741863    1.194098    0.529890
      2          6           0       -4.573666   -2.022906   -0.479731
      3          6           0       -2.579250   -0.032480    3.504245
      4          6           0       -2.603891    4.228203    1.184766
      5          6           0       -5.055714    2.387143   -2.621428
      6          7           0       -3.500015   -0.794943    1.410446
      7          6           0       -4.043171   -1.913045    0.833975
      8          6           0       -3.989631   -3.130965    1.822778
      9          6           0       -3.571620   -2.448898    3.120479
     10          6           0       -3.258242   -1.029400    2.704811
     11          6           0       -4.452084   -2.633984    4.367483
     12          6           0       -2.990950   -4.268230    1.348354
     13          6           0       -1.768592   -3.853862    0.469175
     14          6           0       -0.374881   -3.820108    1.085681
     15          8           0       -0.075055   -3.646261    2.239195
     16          8           0        0.520182   -4.057973    0.089261
     17          7           0       -2.695469    2.032132    2.090743
     18          6           0       -2.275420    1.333651    3.202865
     19          6           0       -1.519032    2.247870    4.044207
     20          6           0       -1.292817    3.396141    3.248876
     21          6           0       -2.266511    3.293154    2.135931
     22          6           0       -0.897815    1.921077    5.398611
     23          6           0       -0.397060    4.554971    3.706661
     24          8           0        0.260524    4.452399    4.753572
     25          6           0       -0.343468    5.863186    3.020880
     26          7           0       -3.820577    3.073713   -0.646549
     27          6           0       -3.271700    4.217102   -0.056156
     28          6           0       -3.557129    5.474201   -0.907906
     29          6           0       -4.667293    4.868510   -1.867300
     30          6           0       -4.532852    3.349859   -1.733413
     31          6           0       -4.016249    6.616275    0.034205
     32          6           0       -4.541273    5.349213   -3.354900
     33          6           0       -5.826440    5.553694   -4.307728
     34          7           0       -4.529425    0.398201   -1.275499
     35          6           0       -5.096690    1.021180   -2.407765
     36          6           0       -5.704765   -0.000362   -3.189181
     37          6           0       -5.555234   -1.230389   -2.536682
     38          6           0       -4.775703   -0.940565   -1.415881
     39          6           0       -6.452140    0.181737   -4.461219
     40          6           0       -5.901803   -2.660303   -2.400333
     41          8           0       -6.641678   -3.333649   -3.087849
     42          6           0       -5.129917   -3.238759   -1.148230
     43          6           0       -6.236353   -3.858665   -0.374696
     44          8           0       -7.225573   -3.230297   -0.014091
     45          8           0       -5.948608   -5.215530   -0.229837
     46          6           0       -6.777552   -6.099974    0.611406
     47          6           0        1.920886   -4.318983    0.416639
     48          6           0        2.902994   -3.297676   -0.132783
     49          6           0        3.096339   -3.077648   -1.452916
     50          6           0        2.191473   -3.585985   -2.579703
     51          6           0        4.267114   -2.174126   -1.796412
     52          6           0        3.930526   -0.774403   -2.384111
     53          6           0        5.241355   -0.100025   -2.750805
     54          6           0        5.392480    1.282017   -2.141810
     55          6           0        5.206029    2.502767   -3.065831
     56          6           0        6.697798    1.591047   -1.429497
     57          6           0        7.033619    0.672671   -0.289905
     58          6           0        8.242201   -0.278974   -0.460697
     59          6           0        9.138471   -0.235040    0.855971
     60          6           0        8.581005   -1.023815    2.001873
     61          6           0       10.600463   -0.686560    0.429930
     62          6           0       11.671186    0.361952    0.995710
     63          6           0       12.698912    0.812332   -0.087749
     64          6           0       13.689882   -0.355039   -0.656884
     65          6           0       15.121746   -0.191866   -0.252122
     66          6           0       13.600123   -0.408350   -2.194098
     67          1           0       -2.256117   -0.357231    4.495194
     68          1           0       -2.146038    5.206821    1.342711
     69          1           0       -5.546104    2.716511   -3.540172
     70          1           0       -5.006999   -3.513163    1.901911
     71          1           0       -2.653743   -2.938876    3.444015
     72          1           0       -5.153833   -1.809340    4.489112
     73          1           0       -3.901063   -2.655569    5.308001
     74          1           0       -5.073576   -3.529678    4.343093
     75          1           0       -3.649267   -5.011671    0.897066
     76          1           0       -2.565300   -4.674758    2.264840
     77          1           0       -1.924247   -2.847335    0.080045
     78          1           0       -1.722578   -4.518495   -0.393166
     79          1           0       -1.020411    2.753489    6.091332
     80          1           0        0.140201    1.588128    5.402713
     81          1           0       -1.461321    1.065932    5.772064
     82          1           0       -1.290782    6.402644    3.000259
     83          1           0       -0.157320    5.526424    2.000971
     84          1           0        0.591705    6.276625    3.398307
     85          1           0       -2.672743    5.798845   -1.456488
     86          1           0       -5.646952    5.229684   -1.554688
     87          1           0       -3.118657    7.179183    0.290270
     88          1           0       -4.484388    6.236182    0.942324
     89          1           0       -4.718839    7.235514   -0.523808
     90          1           0       -3.945399    4.490006   -3.662940
     91          1           0       -3.846123    6.187446   -3.406679
     92          1           0       -5.876209    4.735135   -5.026171
     93          1           0       -5.811848    6.514116   -4.823650
     94          1           0       -6.711316    5.498991   -3.673614
     95          1           0       -5.856746    0.090268   -5.369170
     96          1           0       -6.801772    1.213939   -4.484914
     97          1           0       -7.262529   -0.529710   -4.619010
     98          1           0       -4.575374   -4.073800   -1.576265
     99          1           0       -7.010605   -5.698076    1.597577
    100          1           0       -6.224378   -7.039061    0.598814
    101          1           0       -7.780256   -6.162794    0.188460
    102          1           0        2.130014   -5.328393    0.062775
    103          1           0        2.086809   -4.379474    1.492353
    104          1           0        3.537811   -2.746419    0.561298
    105          1           0        1.524757   -4.333902   -2.151224
    106          1           0        2.803983   -3.890094   -3.428676
    107          1           0        1.633573   -2.750477   -3.001076
    108          1           0        4.901465   -2.741228   -2.477787
    109          1           0        4.904298   -1.953990   -0.939746
    110          1           0        3.310450   -0.126746   -1.763841
    111          1           0        3.441476   -0.975166   -3.336916
    112          1           0        5.169005    0.123018   -3.814729
    113          1           0        6.138181   -0.718122   -2.703863
    114          1           0        4.657347    1.277719   -1.336988
    115          1           0        6.081547    2.895809   -3.582726
    116          1           0        4.720872    3.337410   -2.562229
    117          1           0        4.540570    2.169486   -3.862817
    118          1           0        6.674942    2.584996   -0.982748
    119          1           0        7.496982    1.566082   -2.170429
    120          1           0        6.230102    0.027064    0.063341
    121          1           0        7.095638    1.438950    0.482043
    122          1           0        8.766403    0.118060   -1.330111
    123          1           0        7.938511   -1.312346   -0.628231
    124          1           0        9.172243    0.771594    1.271778
    125          1           0        7.942576   -0.505935    2.717724
    126          1           0        9.415589   -1.271252    2.658002
    127          1           0        8.037790   -1.878822    1.600119
    128          1           0       10.574168   -0.836248   -0.649382
    129          1           0       10.808287   -1.617397    0.957365
    130          1           0       12.149460   -0.076829    1.871792
    131          1           0       11.181179    1.279384    1.318180
    132          1           0       13.306517    1.644634    0.268087
    133          1           0       12.257976    1.362346   -0.918606
    134          1           0       13.380003   -1.323685   -0.264831
    135          1           0       15.557980   -1.148664    0.034374
    136          1           0       15.240127    0.603661    0.483261
    137          1           0       15.683752    0.215311   -1.091855
    138          1           0       13.991320    0.464658   -2.716439
    139          1           0       12.565063   -0.598042   -2.477027
    140          1           0       14.128407   -1.327070   -2.449083
 ---------------------------------------------------------------------

 SCF Done:  E(RZINDO/S) =  -474.291960058     A.U. after   20 cycles

 Excitation energies and oscillator strengths:

 Excited State   1:      Singlet-A      1.2933 eV  958.67 nm  f=0.5428  <S**2>=0.000
     175 ->178        -0.19173
     176 ->177         0.66279
 This state for optimization and/or second-order correction.
 Total Energy, E(CIS/TDA) =  -474.244432378
 Copying the excited state density for this state as the 1-particle RhoCI density.

 Excited State   2:      Singlet-A      1.9091 eV  649.45 nm  f=0.0057  <S**2>=0.000
     175 ->177         0.49913
     176 ->178         0.47662

 Excited State   3:      Singlet-A      2.8885 eV  429.24 nm  f=0.0069  <S**2>=0.000
     167 ->179        -0.10781
     168 ->177         0.23209
     168 ->178        -0.14679
     168 ->179        -0.36207
     168 ->180         0.24993
     168 ->184        -0.10033
     168 ->185         0.20494
     171 ->177         0.16466
     171 ->179        -0.16036
     176 ->179         0.13181

 Excited State   4:      Singlet-A      3.0035 eV  412.80 nm  f=1.2009  <S**2>=0.000
     175 ->177        -0.42176
     176 ->178         0.46990
     176 ->179         0.20778

 Excited State   5:      Singlet-A      3.0620 eV  404.92 nm  f=0.1901  <S**2>=0.000
     175 ->177         0.17359
     176 ->178        -0.14030
     176 ->179         0.59598
     176 ->180         0.16443
     176 ->183        -0.13432

 The electronic state is 1-A.
 Alpha  occ. eigenvalues --   -1.83426  -1.81879  -1.80213  -1.73680  -1.71818
 Alpha  occ. eigenvalues --   -1.70391  -1.66732  -1.59913  -1.59878  -1.58015
 Alpha  occ. eigenvalues --   -1.54708  -1.52229  -1.48316  -1.47953  -1.45370
 Alpha  occ. eigenvalues --   -1.44362  -1.43434  -1.41452  -1.38898  -1.37924
 Alpha  occ. eigenvalues --   -1.35961  -1.33529  -1.33256  -1.30276  -1.28239
 Alpha  occ. eigenvalues --   -1.27565  -1.26684  -1.23788  -1.21652  -1.18035
 Alpha  occ. eigenvalues --   -1.17429  -1.16522  -1.14679  -1.14211  -1.12881
 Alpha  occ. eigenvalues --   -1.12670  -1.10494  -1.09538  -1.04844  -1.03922
 Alpha  occ. eigenvalues --   -1.03399  -1.00954  -1.00082  -0.97746  -0.97023
 Alpha  occ. eigenvalues --   -0.95361  -0.94425  -0.93170  -0.92515  -0.91992
 Alpha  occ. eigenvalues --   -0.91255  -0.90114  -0.88800  -0.88603  -0.86662
 Alpha  occ. eigenvalues --   -0.86532  -0.84939  -0.84409  -0.81825  -0.80328
 Alpha  occ. eigenvalues --   -0.79869  -0.78579  -0.77360  -0.76680  -0.76488
 Alpha  occ. eigenvalues --   -0.76008  -0.75479  -0.74981  -0.73766  -0.73614
 Alpha  occ. eigenvalues --   -0.72613  -0.72408  -0.72206  -0.71405  -0.70938
 Alpha  occ. eigenvalues --   -0.70578  -0.69506  -0.69205  -0.68044  -0.67162
 Alpha  occ. eigenvalues --   -0.66843  -0.66146  -0.65838  -0.65640  -0.65137
 Alpha  occ. eigenvalues --   -0.64976  -0.64823  -0.64179  -0.63751  -0.63505
 Alpha  occ. eigenvalues --   -0.62914  -0.62795  -0.61838  -0.61682  -0.61531
 Alpha  occ. eigenvalues --   -0.61217  -0.60787  -0.60273  -0.59971  -0.59477
 Alpha  occ. eigenvalues --   -0.59366  -0.58996  -0.58849  -0.58792  -0.58165
 Alpha  occ. eigenvalues --   -0.57786  -0.57711  -0.57399  -0.57046  -0.56840
 Alpha  occ. eigenvalues --   -0.56559  -0.55870  -0.55602  -0.55470  -0.55217
 Alpha  occ. eigenvalues --   -0.54875  -0.54534  -0.54110  -0.53162  -0.52874
 Alpha  occ. eigenvalues --   -0.52779  -0.52460  -0.51868  -0.51786  -0.51646
 Alpha  occ. eigenvalues --   -0.51406  -0.50824  -0.50676  -0.50002  -0.49897
 Alpha  occ. eigenvalues --   -0.49767  -0.49394  -0.49160  -0.48984  -0.48802
 Alpha  occ. eigenvalues --   -0.48540  -0.48416  -0.48244  -0.47735  -0.47640
 Alpha  occ. eigenvalues --   -0.47311  -0.47150  -0.46723  -0.46626  -0.46412
 Alpha  occ. eigenvalues --   -0.46262  -0.45976  -0.45552  -0.45391  -0.45010
 Alpha  occ. eigenvalues --   -0.44816  -0.44589  -0.44519  -0.44460  -0.44048
 Alpha  occ. eigenvalues --   -0.43821  -0.43357  -0.42892  -0.42567  -0.42101
 Alpha  occ. eigenvalues --   -0.41733  -0.41160  -0.39820  -0.39366  -0.38768
 Alpha  occ. eigenvalues --   -0.38054  -0.37057  -0.35664  -0.34816  -0.34532
 Alpha  occ. eigenvalues --   -0.33458  -0.32631  -0.32335  -0.31868  -0.26706
 Alpha  occ. eigenvalues --   -0.21576
 Alpha virt. eigenvalues --   -0.08035  -0.02562  -0.00413   0.01523   0.02196
 Alpha virt. eigenvalues --    0.02535   0.02882   0.03106   0.04465   0.04633
 Alpha virt. eigenvalues --    0.06164   0.06682   0.07254   0.07683   0.07989

 Mulliken charges:
               1
     1  Mg   0.430393
     2  C   -0.038691
     3  C   -0.082485
     4  C   -0.088461
     5  C   -0.059910
     6  N   -0.262804
     7  C    0.094420
     8  C   -0.002052
     9  C    0.017296
    10  C    0.165809
    11  C   -0.046932
    12  C   -0.027170
    13  C    0.004902
    14  C    0.477429
    15  O   -0.515818
    16  O   -0.275616
    17  N   -0.320305
    18  C    0.126742
    19  C    0.051461
    20  C   -0.050449
    21  C    0.153724
    22  C   -0.034223
    23  C    0.325315
    24  O   -0.531057
    25  C   -0.033572
    26  N   -0.279259
    27  C    0.134908
    28  C    0.001947
    29  C    0.006039
    30  C    0.116839
    31  C   -0.049663
    32  C   -0.056151
    33  C   -0.055725
    34  N   -0.347522
    35  C    0.083959
    36  C    0.026208
    37  C   -0.057670
    38  C    0.095787
    39  C   -0.043823
    40  C    0.341901
    41  O   -0.520964
    42  C    0.052079
    43  C    0.496246
    44  O   -0.520365
    45  O   -0.288828
    46  C    0.072159
    47  C    0.105871
    48  C   -0.097389
    49  C   -0.003027
    50  C   -0.040696
    51  C   -0.022162
    52  C   -0.028006
    53  C   -0.031700
    54  C   -0.009087
    55  C   -0.055725
    56  C   -0.028712
    57  C   -0.048966
    58  C   -0.037374
    59  C   -0.019557
    60  C   -0.054311
    61  C   -0.045441
    62  C   -0.033153
    63  C   -0.045672
    64  C   -0.012135
    65  C   -0.053801
    66  C   -0.054606
    67  H    0.031356
    68  H    0.011583
    69  H    0.028932
    70  H    0.037876
    71  H    0.035933
    72  H    0.017365
    73  H    0.021554
    74  H    0.021402
    75  H    0.029018
    76  H    0.028473
    77  H    0.052566
    78  H    0.034787
    79  H    0.042872
    80  H    0.046809
    81  H    0.011712
    82  H    0.055710
    83  H    0.026396
    84  H    0.052368
    85  H    0.041209
    86  H    0.032073
    87  H    0.019170
    88  H    0.029432
    89  H    0.019402
    90  H    0.018874
    91  H    0.017507
    92  H    0.026098
    93  H    0.026324
    94  H    0.021191
    95  H    0.026038
    96  H    0.015525
    97  H    0.035227
    98  H    0.063124
    99  H    0.043382
   100  H    0.040633
   101  H    0.046242
   102  H    0.035936
   103  H    0.041587
   104  H    0.038104
   105  H    0.035644
   106  H    0.026791
   107  H    0.030916
   108  H    0.022551
   109  H    0.018685
   110  H    0.036797
   111  H    0.013960
   112  H    0.005250
   113  H    0.027475
   114  H    0.016650
   115  H    0.023898
   116  H    0.018179
   117  H    0.004049
   118  H    0.014450
   119  H    0.015288
   120  H    0.013094
   121  H    0.016171
   122  H    0.020089
   123  H    0.025517
   124  H    0.022364
   125  H    0.015965
   126  H    0.013574
   127  H    0.020692
   128  H    0.031808
   129  H    0.018902
   130  H    0.024501
   131  H    0.019472
   132  H    0.009708
   133  H    0.019050
   134  H    0.020768
   135  H    0.022473
   136  H    0.018198
   137  H    0.011694
   138  H    0.030127
   139  H    0.009354
   140  H    0.011706
 Sum of Mulliken charges =  -0.00000

 Dipole moment (field-independent basis, Debye):
    X=              2.2209    Y=              2.2569    Z=             -0.1214  Tot=              3.1687
 N-N= 4.491032810512D+03 E-N= 0.000000000000D+00  KE=-9.656539780753D+03
 Leave Link  601 at Thu Apr 28 10:59:02 2022, MaxMem=  6710886400 cpu:               0.8 elap:               0.1
 (Enter /sw/apps/gaussian-16.0/g16/l9999.exe)
 1\1\GINC-BP1-COMPUTE155\SP\RZINDO CIS\STO-3G\C55H74Mg1N4O6\OF15641\28-
 Apr-2022\0\\#p ZINDO=(nstates=5)\\step_151_chromophore_26 ZINDO\\0,1\M
 g,0,-9.638,18.532,42.886\C,0,-6.202,18.07,43.088\C,0,-9.173,21.907,42.
 576\C,0,-12.876,18.788,42.27\C,0,-10.015,14.957,43.283\N,0,-7.906,19.8
 63,42.749\C,0,-6.632,19.421,42.992\C,0,-5.641,20.63,43.134\C,0,-6.607,
 21.808,43.19\C,0,-7.955,21.192,42.891\C,0,-6.528,22.77,44.387\C,0,-4.5
 97,20.716,41.943\C,0,-5.018,20.142,40.553\C,0,-5.373,21.098,39.42\O,0,

 Normal termination of Gaussian 16 at Thu Apr 28 10:59:03 2022.
