 Gaussian 16, Revision A.03,
 Gaussian 16:  ES64L-G16RevA.03 25-Dec-2016

 ------------------------------
 #p blyp/Def2SVP td=(nstates=5)
 ------------------------------

 ---------------------------------------------------
 step_1801_chromophore_16 TDDFT with blyp functional
 ---------------------------------------------------
 Symbolic Z-matrix:
 Charge =  0 Multiplicity = 1

                         Standard orientation:
 ---------------------------------------------------------------------
 Center     Atomic      Atomic             Coordinates (Angstroms)
 Number     Number       Type             X           Y           Z
 ---------------------------------------------------------------------
      1         12           0        6.088175    0.633027    0.204736
      2          6           0        3.850441   -1.996037   -0.119038
      3          6           0        3.716156    2.715149   -1.073419
      4          6           0        8.495854    2.983369    0.059573
      5          6           0        8.673199   -1.779656    0.705227
      6          7           0        3.997740    0.371368   -0.558548
      7          6           0        3.310791   -0.781872   -0.498119
      8          6           0        1.832859   -0.601049   -0.985425
      9          6           0        1.765641    0.989667   -1.198462
     10          6           0        3.255871    1.413646   -1.020975
     11          6           0        1.136742    1.289437   -2.552859
     12          6           0        0.781514   -0.953633    0.046982
     13          6           0       -0.214678   -2.098867   -0.278204
     14          6           0       -1.576287   -2.070578    0.416122
     15          8           0       -1.916024   -1.359958    1.351570
     16          8           0       -2.332933   -3.089601   -0.155780
     17          7           0        6.087605    2.621274   -0.340674
     18          6           0        5.074468    3.320474   -0.862227
     19          6           0        5.395032    4.723563   -1.017268
     20          6           0        6.802426    4.797003   -0.744614
     21          6           0        7.233594    3.416322   -0.322709
     22          6           0        4.428858    5.652310   -1.655695
     23          6           0        7.729519    6.055650   -0.801392
     24          8           0        8.903184    6.085856   -0.470403
     25          6           0        7.099191    7.395160   -1.031628
     26          7           0        8.300831    0.523799    0.240648
     27          6           0        8.924622    1.769840    0.470558
     28          6           0       10.298849    1.501055    1.103893
     29          6           0       10.319225   -0.025617    1.435206
     30          6           0        9.024735   -0.504208    0.745260
     31          6           0       11.447867    1.810897    0.101184
     32          6           0       10.467392   -0.495081    2.934967
     33          6           0        9.452158    0.013294    3.940359
     34          7           0        6.252935   -1.420210    0.447769
     35          6           0        7.378551   -2.303649    0.513830
     36          6           0        6.984545   -3.650883    0.551515
     37          6           0        5.603247   -3.568470    0.356391
     38          6           0        5.195084   -2.206973    0.240001
     39          6           0        7.867665   -4.808746    0.879966
     40          6           0        4.417934   -4.397047    0.366541
     41          8           0        4.215796   -5.586609    0.633523
     42          6           0        3.211234   -3.353161   -0.007441
     43          6           0        2.630275   -3.893523   -1.301333
     44          8           0        3.077788   -3.647184   -2.416282
     45          8           0        1.552930   -4.638001   -1.029987
     46          6           0        1.055666   -5.421799   -2.252411
     47          6           0       -3.572081   -3.397351    0.619997
     48          6           0       -4.658754   -2.491752    0.142635
     49          6           0       -5.971414   -2.731816   -0.105839
     50          6           0       -6.731684   -4.019552    0.098509
     51          6           0       -6.757275   -1.670981   -0.803403
     52          6           0       -7.619871   -0.749458    0.139760
     53          6           0       -9.095488   -0.583351   -0.220470
     54          6           0       -9.393039    0.780278   -1.009028
     55          6           0       -9.311617    2.108140   -0.116052
     56          6           0      -10.746082    0.523247   -1.848720
     57          6           0      -11.982788    0.231619   -0.959211
     58          6           0      -13.201425    1.221569   -1.217979
     59          6           0      -14.444725    0.403952   -0.917728
     60          6           0      -15.047198   -0.293935   -2.140822
     61          6           0      -15.503893    1.359048   -0.217655
     62          6           0      -15.341002    1.419195    1.296260
     63          6           0      -14.582143    2.712336    1.754723
     64          6           0      -13.378930    2.399102    2.733633
     65          6           0      -12.140326    3.233217    2.435567
     66          6           0      -13.728859    2.523797    4.204750
     67          1           0        2.957284    3.467845   -1.296248
     68          1           0        9.218614    3.799681    0.108827
     69          1           0        9.510102   -2.376163    1.072583
     70          1           0        1.619115   -1.171475   -1.889499
     71          1           0        1.213787    1.570127   -0.459797
     72          1           0        0.681163    2.240839   -2.275270
     73          1           0        0.456177    0.508722   -2.891862
     74          1           0        1.930047    1.401994   -3.291043
     75          1           0        0.124052   -0.118775    0.289092
     76          1           0        1.222859   -1.337077    0.967730
     77          1           0        0.302250   -2.905788    0.241751
     78          1           0       -0.276759   -2.203401   -1.361095
     79          1           0        4.304921    6.530492   -1.021289
     80          1           0        3.430307    5.318228   -1.938778
     81          1           0        4.837192    6.148025   -2.536338
     82          1           0        6.443591    7.439148   -1.901188
     83          1           0        7.888109    8.143482   -1.109888
     84          1           0        6.600635    7.732272   -0.122273
     85          1           0       10.207117    2.152135    1.973022
     86          1           0       11.098818   -0.539714    0.873131
     87          1           0       11.983346    2.731418    0.334512
     88          1           0       10.927216    2.012280   -0.835103
     89          1           0       12.115877    1.012233   -0.218988
     90          1           0       11.445107   -0.133216    3.253660
     91          1           0       10.523140   -1.583309    2.937633
     92          1           0        8.696665    0.665264    3.500870
     93          1           0        9.925871    0.619614    4.712568
     94          1           0        8.951727   -0.817703    4.436893
     95          1           0        8.650550   -4.566195    1.599267
     96          1           0        8.306622   -5.200378   -0.037844
     97          1           0        7.204045   -5.591290    1.245687
     98          1           0        2.578912   -3.325672    0.879813
     99          1           0        0.089839   -5.901495   -2.097514
    100          1           0        1.877887   -6.128981   -2.366587
    101          1           0        0.870619   -4.780493   -3.114241
    102          1           0       -3.514602   -3.265963    1.700305
    103          1           0       -3.887550   -4.427189    0.454769
    104          1           0       -4.291311   -1.562254   -0.291484
    105          1           0       -6.947450   -4.447601   -0.880789
    106          1           0       -7.679895   -3.804286    0.590547
    107          1           0       -6.100176   -4.751826    0.602302
    108          1           0       -7.410313   -2.012741   -1.606652
    109          1           0       -6.084207   -1.049482   -1.394203
    110          1           0       -7.167668    0.237343    0.037799
    111          1           0       -7.567581   -1.117558    1.163729
    112          1           0       -9.584713   -0.554454    0.753231
    113          1           0       -9.577526   -1.323672   -0.858771
    114          1           0       -8.566720    0.875972   -1.714598
    115          1           0      -10.320767    2.517609   -0.072576
    116          1           0       -8.774288    2.900350   -0.636755
    117          1           0       -8.963135    1.888909    0.893830
    118          1           0      -10.764512   -0.315140   -2.545913
    119          1           0      -10.835074    1.440870   -2.429710
    120          1           0      -11.633572    0.193156    0.072748
    121          1           0      -12.301515   -0.768996   -1.252319
    122          1           0      -13.108617    1.722934   -2.181550
    123          1           0      -13.070380    1.913894   -0.385505
    124          1           0      -14.201499   -0.424937   -0.252287
    125          1           0      -16.134682   -0.221608   -2.165966
    126          1           0      -14.813429   -1.305708   -1.810996
    127          1           0      -14.629674   -0.051956   -3.117960
    128          1           0      -16.539764    1.035453   -0.317809
    129          1           0      -15.424853    2.348994   -0.665880
    130          1           0      -14.786689    0.518926    1.561096
    131          1           0      -16.310205    1.384299    1.793989
    132          1           0      -15.280576    3.278629    2.369925
    133          1           0      -14.234088    3.348266    0.939836
    134          1           0      -13.182208    1.326067    2.750708
    135          1           0      -11.974344    3.358454    1.365740
    136          1           0      -11.315774    2.608235    2.776266
    137          1           0      -12.157340    4.191999    2.953951
    138          1           0      -12.897114    2.427366    4.901997
    139          1           0      -14.435043    1.718456    4.405782
    140          1           0      -14.155643    3.490803    4.468984
 ---------------------------------------------------------------------

 SCF Done:  E(RB-LYP) =  -3007.35038592     A.U. after   21 cycles

 Excitation energies and oscillator strengths:

 Excited State   1:      Singlet-A      1.8279 eV  678.28 nm  f=0.3264  <S**2>=0.000
     244 -> 247        0.12173
     245 -> 248       -0.16493
     246 -> 247        0.67838
     246 <- 247       -0.15206
 This state for optimization and/or second-order correction.
 Total Energy, E(TD-HF/TD-DFT) =  -3007.28321126
 Copying the excited state density for this state as the 1-particle RhoCI density.

 Excited State   2:      Singlet-A      1.9023 eV  651.76 nm  f=0.0410  <S**2>=0.000
     244 -> 247        0.50174
     245 -> 247        0.47444
     246 -> 248        0.10019

 Excited State   3:      Singlet-A      1.9736 eV  628.22 nm  f=0.0055  <S**2>=0.000
     243 -> 247        0.67382
     244 -> 247       -0.15128
     245 -> 247        0.13719

 Excited State   4:      Singlet-A      1.9907 eV  622.83 nm  f=0.0711  <S**2>=0.000
     243 -> 247        0.20107
     244 -> 247        0.45690
     245 -> 247       -0.44700
     246 -> 247       -0.12971
     246 -> 248       -0.13204

 Excited State   5:      Singlet-A      2.1316 eV  581.64 nm  f=0.0000  <S**2>=0.000
     242 -> 247        0.70709

 The electronic state is 1-A.
 Alpha  occ. eigenvalues --  -46.27643 -18.82481 -18.82219 -18.77474 -18.76174
 Alpha  occ. eigenvalues --  -18.76161 -18.76048 -14.03137 -14.02380 -14.01490
 Alpha  occ. eigenvalues --  -14.00807 -10.04344 -10.03616 -10.00294  -9.99798
 Alpha  occ. eigenvalues --   -9.98123  -9.97893  -9.96492  -9.96386  -9.96207
 Alpha  occ. eigenvalues --   -9.96158  -9.95941  -9.95355  -9.95102  -9.94447
 Alpha  occ. eigenvalues --   -9.94216  -9.93862  -9.93834  -9.93795  -9.93748
 Alpha  occ. eigenvalues --   -9.93622  -9.93606  -9.93241  -9.93230  -9.93126
 Alpha  occ. eigenvalues --   -9.93065  -9.93029  -9.92868  -9.92519  -9.92501
 Alpha  occ. eigenvalues --   -9.92487  -9.92334  -9.92109  -9.92069  -9.91963
 Alpha  occ. eigenvalues --   -9.91957  -9.91911  -9.91785  -9.91757  -9.91575
 Alpha  occ. eigenvalues --   -9.91491  -9.91429  -9.91330  -9.91281  -9.91185
 Alpha  occ. eigenvalues --   -9.91175  -9.91141  -9.91117  -9.91026  -9.90996
 Alpha  occ. eigenvalues --   -9.90878  -9.90827  -9.90518  -9.90434  -9.90414
 Alpha  occ. eigenvalues --   -9.90412  -2.92178  -1.72584  -1.72089  -1.71875
 Alpha  occ. eigenvalues --   -0.97743  -0.97100  -0.92099  -0.90677  -0.89945
 Alpha  occ. eigenvalues --   -0.89186  -0.86371  -0.85544  -0.85401  -0.84288
 Alpha  occ. eigenvalues --   -0.75120  -0.73282  -0.72960  -0.72749  -0.72489
 Alpha  occ. eigenvalues --   -0.71534  -0.71399  -0.70964  -0.70801  -0.70538
 Alpha  occ. eigenvalues --   -0.70210  -0.69000  -0.67804  -0.67358  -0.67230
 Alpha  occ. eigenvalues --   -0.66299  -0.65686  -0.65364  -0.65086  -0.64406
 Alpha  occ. eigenvalues --   -0.63639  -0.62701  -0.62238  -0.61812  -0.60715
 Alpha  occ. eigenvalues --   -0.60526  -0.60047  -0.59871  -0.59630  -0.58709
 Alpha  occ. eigenvalues --   -0.58592  -0.57415  -0.56631  -0.55133  -0.54845
 Alpha  occ. eigenvalues --   -0.53842  -0.53596  -0.52749  -0.51812  -0.51500
 Alpha  occ. eigenvalues --   -0.51050  -0.50820  -0.50628  -0.50151  -0.49545
 Alpha  occ. eigenvalues --   -0.48759  -0.48521  -0.48141  -0.47382  -0.46577
 Alpha  occ. eigenvalues --   -0.46351  -0.45882  -0.45805  -0.44849  -0.44497
 Alpha  occ. eigenvalues --   -0.44036  -0.43566  -0.43254  -0.42704  -0.42264
 Alpha  occ. eigenvalues --   -0.42110  -0.41904  -0.41745  -0.41527  -0.40928
 Alpha  occ. eigenvalues --   -0.40730  -0.40437  -0.40139  -0.39977  -0.39812
 Alpha  occ. eigenvalues --   -0.39683  -0.39495  -0.39366  -0.39251  -0.39092
 Alpha  occ. eigenvalues --   -0.38708  -0.38676  -0.38377  -0.38285  -0.38147
 Alpha  occ. eigenvalues --   -0.37964  -0.37621  -0.37436  -0.37302  -0.37092
 Alpha  occ. eigenvalues --   -0.36971  -0.36846  -0.36733  -0.36440  -0.36343
 Alpha  occ. eigenvalues --   -0.36218  -0.36203  -0.35956  -0.35916  -0.35630
 Alpha  occ. eigenvalues --   -0.35627  -0.35302  -0.35141  -0.34905  -0.34777
 Alpha  occ. eigenvalues --   -0.34568  -0.34311  -0.34251  -0.34023  -0.33937
 Alpha  occ. eigenvalues --   -0.33839  -0.33708  -0.33482  -0.33402  -0.33104
 Alpha  occ. eigenvalues --   -0.32954  -0.32819  -0.32577  -0.32380  -0.32105
 Alpha  occ. eigenvalues --   -0.31936  -0.31816  -0.31685  -0.31619  -0.31479
 Alpha  occ. eigenvalues --   -0.31401  -0.31249  -0.30988  -0.30937  -0.30479
 Alpha  occ. eigenvalues --   -0.30364  -0.30294  -0.30235  -0.30070  -0.30013
 Alpha  occ. eigenvalues --   -0.29660  -0.29449  -0.29363  -0.28944  -0.28605
 Alpha  occ. eigenvalues --   -0.28276  -0.28007  -0.27946  -0.27790  -0.27769
 Alpha  occ. eigenvalues --   -0.27510  -0.27017  -0.26516  -0.26469  -0.26388
 Alpha  occ. eigenvalues --   -0.26232  -0.25951  -0.25271  -0.25261  -0.25174
 Alpha  occ. eigenvalues --   -0.24663  -0.24309  -0.23908  -0.23413  -0.23009
 Alpha  occ. eigenvalues --   -0.22848  -0.22523  -0.22326  -0.21630  -0.20859
 Alpha  occ. eigenvalues --   -0.20610  -0.19694  -0.19041  -0.18859  -0.17184
 Alpha  occ. eigenvalues --   -0.16118
 Alpha virt. eigenvalues --   -0.11860  -0.06781  -0.05926  -0.04402  -0.03009
 Alpha virt. eigenvalues --   -0.02606  -0.01796  -0.01618  -0.01181   0.00362
 Alpha virt. eigenvalues --    0.01802   0.01971   0.02079   0.02419   0.02984

 Mulliken charges:
               1
     1  Mg   0.680059
     2  C    0.064692
     3  C   -0.045980
     4  C   -0.026844
     5  C   -0.065430
     6  N   -0.190304
     7  C   -0.078808
     8  C    0.033822
     9  C   -0.041236
    10  C    0.046070
    11  C    0.130596
    12  C    0.090938
    13  C    0.070778
    14  C    0.099595
    15  O   -0.185185
    16  O   -0.289723
    17  N   -0.290087
    18  C    0.077874
    19  C   -0.101229
    20  C    0.008978
    21  C    0.096610
    22  C    0.152979
    23  C   -0.048552
    24  O   -0.156774
    25  C    0.117772
    26  N   -0.226373
    27  C    0.017227
    28  C    0.038195
    29  C    0.054594
    30  C   -0.032512
    31  C    0.129710
    32  C    0.091222
    33  C    0.068645
    34  N   -0.284865
    35  C    0.150124
    36  C   -0.168422
    37  C    0.087024
    38  C    0.069674
    39  C    0.194097
    40  C   -0.059782
    41  O   -0.144087
    42  C    0.006789
    43  C    0.134356
    44  O   -0.197611
    45  O   -0.258264
    46  C    0.213306
    47  C    0.355812
    48  C   -0.115093
    49  C   -0.154150
    50  C    0.166817
    51  C    0.118382
    52  C    0.091336
    53  C    0.078060
    54  C   -0.107900
    55  C    0.108259
    56  C    0.079280
    57  C   -0.002076
    58  C    0.151651
    59  C   -0.106922
    60  C    0.132444
    61  C    0.091216
    62  C    0.074818
    63  C    0.109013
    64  C   -0.095822
    65  C    0.105197
    66  C    0.077991
    67  H   -0.074522
    68  H   -0.045922
    69  H   -0.071184
    70  H   -0.003300
    71  H   -0.004036
    72  H   -0.008402
    73  H    0.000037
    74  H   -0.003041
    75  H   -0.011980
    76  H   -0.027304
    77  H    0.026878
    78  H   -0.000680
    79  H   -0.012432
    80  H   -0.003234
    81  H    0.002427
    82  H   -0.004052
    83  H   -0.013840
    84  H    0.015684
    85  H   -0.021387
    86  H   -0.032959
    87  H    0.004146
    88  H   -0.013803
    89  H   -0.005569
    90  H   -0.018917
    91  H   -0.025074
    92  H   -0.004109
    93  H   -0.011641
    94  H   -0.003481
    95  H    0.000514
    96  H    0.001589
    97  H    0.005620
    98  H    0.003694
    99  H    0.020618
   100  H    0.034620
   101  H    0.024976
   102  H    0.009289
   103  H   -0.012128
   104  H   -0.033205
   105  H   -0.004114
   106  H   -0.001856
   107  H   -0.021984
   108  H   -0.043136
   109  H   -0.042621
   110  H   -0.020986
   111  H   -0.023861
   112  H   -0.029976
   113  H   -0.031214
   114  H   -0.039269
   115  H   -0.022553
   116  H   -0.013396
   117  H    0.003949
   118  H   -0.026649
   119  H   -0.034769
   120  H   -0.007012
   121  H   -0.032708
   122  H   -0.018140
   123  H   -0.034090
   124  H   -0.028540
   125  H   -0.022151
   126  H   -0.022429
   127  H   -0.011214
   128  H   -0.050371
   129  H   -0.028554
   130  H   -0.031914
   131  H   -0.030317
   132  H   -0.042031
   133  H   -0.024591
   134  H   -0.033924
   135  H   -0.008141
   136  H   -0.019382
   137  H   -0.012265
   138  H   -0.021626
   139  H   -0.021207
   140  H   -0.022817
 Sum of Mulliken charges =  -0.00000

 Dipole moment (field-independent basis, Debye):
    X=             -2.1943    Y=              1.0873    Z=              0.2363  Tot=              2.4603
 Quadrupole moment (field-independent basis, Debye-Ang):
   XX=           -389.3746   YY=           -410.4645   ZZ=           -405.5413
   XY=              1.1834   XZ=             22.5937   YZ=             -0.6399

 Normal termination of Gaussian 16 at Fri Apr 29 01:15:08 2022.
