 Gaussian 16, Revision A.03,
 Gaussian 16:  ES64L-G16RevA.03 25-Dec-2016

 -----------------------------------
 #p cam-b3lyp/Def2SVP td=(nstates=5)
 -----------------------------------

 --------------------------------------------------------
 step_1801_chromophore_16 TDDFT with cam-b3lyp functional
 --------------------------------------------------------
 Symbolic Z-matrix:
 Charge =  0 Multiplicity = 1

                         Standard orientation:
 ---------------------------------------------------------------------
 Center     Atomic      Atomic             Coordinates (Angstroms)
 Number     Number       Type             X           Y           Z
 ---------------------------------------------------------------------
      1         12           0        6.088175    0.633027    0.204736
      2          6           0        3.850441   -1.996037   -0.119038
      3          6           0        3.716156    2.715149   -1.073419
      4          6           0        8.495854    2.983369    0.059573
      5          6           0        8.673199   -1.779656    0.705227
      6          7           0        3.997740    0.371368   -0.558548
      7          6           0        3.310791   -0.781872   -0.498119
      8          6           0        1.832859   -0.601049   -0.985425
      9          6           0        1.765641    0.989667   -1.198462
     10          6           0        3.255871    1.413646   -1.020975
     11          6           0        1.136742    1.289437   -2.552859
     12          6           0        0.781514   -0.953633    0.046982
     13          6           0       -0.214678   -2.098867   -0.278204
     14          6           0       -1.576287   -2.070578    0.416122
     15          8           0       -1.916024   -1.359958    1.351570
     16          8           0       -2.332933   -3.089601   -0.155780
     17          7           0        6.087605    2.621274   -0.340674
     18          6           0        5.074468    3.320474   -0.862227
     19          6           0        5.395032    4.723563   -1.017268
     20          6           0        6.802426    4.797003   -0.744614
     21          6           0        7.233594    3.416322   -0.322709
     22          6           0        4.428858    5.652310   -1.655695
     23          6           0        7.729519    6.055650   -0.801392
     24          8           0        8.903184    6.085856   -0.470403
     25          6           0        7.099191    7.395160   -1.031628
     26          7           0        8.300831    0.523799    0.240648
     27          6           0        8.924622    1.769840    0.470558
     28          6           0       10.298849    1.501055    1.103893
     29          6           0       10.319225   -0.025617    1.435206
     30          6           0        9.024735   -0.504208    0.745260
     31          6           0       11.447867    1.810897    0.101184
     32          6           0       10.467392   -0.495081    2.934967
     33          6           0        9.452158    0.013294    3.940359
     34          7           0        6.252935   -1.420210    0.447769
     35          6           0        7.378551   -2.303649    0.513830
     36          6           0        6.984545   -3.650883    0.551515
     37          6           0        5.603247   -3.568470    0.356391
     38          6           0        5.195084   -2.206973    0.240001
     39          6           0        7.867665   -4.808746    0.879966
     40          6           0        4.417934   -4.397047    0.366541
     41          8           0        4.215796   -5.586609    0.633523
     42          6           0        3.211234   -3.353161   -0.007441
     43          6           0        2.630275   -3.893523   -1.301333
     44          8           0        3.077788   -3.647184   -2.416282
     45          8           0        1.552930   -4.638001   -1.029987
     46          6           0        1.055666   -5.421799   -2.252411
     47          6           0       -3.572081   -3.397351    0.619997
     48          6           0       -4.658754   -2.491752    0.142635
     49          6           0       -5.971414   -2.731816   -0.105839
     50          6           0       -6.731684   -4.019552    0.098509
     51          6           0       -6.757275   -1.670981   -0.803403
     52          6           0       -7.619871   -0.749458    0.139760
     53          6           0       -9.095488   -0.583351   -0.220470
     54          6           0       -9.393039    0.780278   -1.009028
     55          6           0       -9.311617    2.108140   -0.116052
     56          6           0      -10.746082    0.523247   -1.848720
     57          6           0      -11.982788    0.231619   -0.959211
     58          6           0      -13.201425    1.221569   -1.217979
     59          6           0      -14.444725    0.403952   -0.917728
     60          6           0      -15.047198   -0.293935   -2.140822
     61          6           0      -15.503893    1.359048   -0.217655
     62          6           0      -15.341002    1.419195    1.296260
     63          6           0      -14.582143    2.712336    1.754723
     64          6           0      -13.378930    2.399102    2.733633
     65          6           0      -12.140326    3.233217    2.435567
     66          6           0      -13.728859    2.523797    4.204750
     67          1           0        2.957284    3.467845   -1.296248
     68          1           0        9.218614    3.799681    0.108827
     69          1           0        9.510102   -2.376163    1.072583
     70          1           0        1.619115   -1.171475   -1.889499
     71          1           0        1.213787    1.570127   -0.459797
     72          1           0        0.681163    2.240839   -2.275270
     73          1           0        0.456177    0.508722   -2.891862
     74          1           0        1.930047    1.401994   -3.291043
     75          1           0        0.124052   -0.118775    0.289092
     76          1           0        1.222859   -1.337077    0.967730
     77          1           0        0.302250   -2.905788    0.241751
     78          1           0       -0.276759   -2.203401   -1.361095
     79          1           0        4.304921    6.530492   -1.021289
     80          1           0        3.430307    5.318228   -1.938778
     81          1           0        4.837192    6.148025   -2.536338
     82          1           0        6.443591    7.439148   -1.901188
     83          1           0        7.888109    8.143482   -1.109888
     84          1           0        6.600635    7.732272   -0.122273
     85          1           0       10.207117    2.152135    1.973022
     86          1           0       11.098818   -0.539714    0.873131
     87          1           0       11.983346    2.731418    0.334512
     88          1           0       10.927216    2.012280   -0.835103
     89          1           0       12.115877    1.012233   -0.218988
     90          1           0       11.445107   -0.133216    3.253660
     91          1           0       10.523140   -1.583309    2.937633
     92          1           0        8.696665    0.665264    3.500870
     93          1           0        9.925871    0.619614    4.712568
     94          1           0        8.951727   -0.817703    4.436893
     95          1           0        8.650550   -4.566195    1.599267
     96          1           0        8.306622   -5.200378   -0.037844
     97          1           0        7.204045   -5.591290    1.245687
     98          1           0        2.578912   -3.325672    0.879813
     99          1           0        0.089839   -5.901495   -2.097514
    100          1           0        1.877887   -6.128981   -2.366587
    101          1           0        0.870619   -4.780493   -3.114241
    102          1           0       -3.514602   -3.265963    1.700305
    103          1           0       -3.887550   -4.427189    0.454769
    104          1           0       -4.291311   -1.562254   -0.291484
    105          1           0       -6.947450   -4.447601   -0.880789
    106          1           0       -7.679895   -3.804286    0.590547
    107          1           0       -6.100176   -4.751826    0.602302
    108          1           0       -7.410313   -2.012741   -1.606652
    109          1           0       -6.084207   -1.049482   -1.394203
    110          1           0       -7.167668    0.237343    0.037799
    111          1           0       -7.567581   -1.117558    1.163729
    112          1           0       -9.584713   -0.554454    0.753231
    113          1           0       -9.577526   -1.323672   -0.858771
    114          1           0       -8.566720    0.875972   -1.714598
    115          1           0      -10.320767    2.517609   -0.072576
    116          1           0       -8.774288    2.900350   -0.636755
    117          1           0       -8.963135    1.888909    0.893830
    118          1           0      -10.764512   -0.315140   -2.545913
    119          1           0      -10.835074    1.440870   -2.429710
    120          1           0      -11.633572    0.193156    0.072748
    121          1           0      -12.301515   -0.768996   -1.252319
    122          1           0      -13.108617    1.722934   -2.181550
    123          1           0      -13.070380    1.913894   -0.385505
    124          1           0      -14.201499   -0.424937   -0.252287
    125          1           0      -16.134682   -0.221608   -2.165966
    126          1           0      -14.813429   -1.305708   -1.810996
    127          1           0      -14.629674   -0.051956   -3.117960
    128          1           0      -16.539764    1.035453   -0.317809
    129          1           0      -15.424853    2.348994   -0.665880
    130          1           0      -14.786689    0.518926    1.561096
    131          1           0      -16.310205    1.384299    1.793989
    132          1           0      -15.280576    3.278629    2.369925
    133          1           0      -14.234088    3.348266    0.939836
    134          1           0      -13.182208    1.326067    2.750708
    135          1           0      -11.974344    3.358454    1.365740
    136          1           0      -11.315774    2.608235    2.776266
    137          1           0      -12.157340    4.191999    2.953951
    138          1           0      -12.897114    2.427366    4.901997
    139          1           0      -14.435043    1.718456    4.405782
    140          1           0      -14.155643    3.490803    4.468984
 ---------------------------------------------------------------------

 SCF Done:  E(RCAM-B3LYP) =  -3007.14085132     A.U. after   19 cycles

 Excitation energies and oscillator strengths:

 Excited State   1:      Singlet-A      1.7011 eV  728.84 nm  f=0.4279  <S**2>=0.000
     245 -> 248       -0.16848
     246 -> 247        0.68674
     245 <- 248       -0.10331
 This state for optimization and/or second-order correction.
 Total Energy, E(TD-HF/TD-DFT) =  -3007.07833608
 Copying the excited state density for this state as the 1-particle RhoCI density.

 Excited State   2:      Singlet-A      2.1502 eV  576.62 nm  f=0.1640  <S**2>=0.000
     245 -> 247        0.66213
     246 -> 248        0.22742

 Excited State   3:      Singlet-A      3.3016 eV  375.53 nm  f=0.0016  <S**2>=0.000
     241 -> 247        0.20741
     241 -> 249        0.11994
     243 -> 247        0.62487
     246 -> 248       -0.14002

 Excited State   4:      Singlet-A      3.4008 eV  364.58 nm  f=0.0011  <S**2>=0.000
     241 -> 247        0.56488
     241 -> 249        0.21566
     241 -> 251        0.14630
     242 -> 247        0.14233
     243 -> 247       -0.25538

 Excited State   5:      Singlet-A      3.4886 eV  355.40 nm  f=0.0131  <S**2>=0.000
     241 -> 247       -0.12559
     242 -> 247        0.63768
     246 -> 248       -0.23829

 The electronic state is 1-A.
 Alpha  occ. eigenvalues --  -46.89194 -19.25489 -19.25142 -19.20513 -19.19305
 Alpha  occ. eigenvalues --  -19.19285 -19.19280 -14.41837 -14.41320 -14.40009
 Alpha  occ. eigenvalues --  -14.39183 -10.39736 -10.39088 -10.35546 -10.35258
 Alpha  occ. eigenvalues --  -10.32312 -10.31998 -10.31015 -10.30787 -10.30602
 Alpha  occ. eigenvalues --  -10.30508 -10.30346 -10.29574 -10.29365 -10.28795
 Alpha  occ. eigenvalues --  -10.28747 -10.28177 -10.28136 -10.27953 -10.27837
 Alpha  occ. eigenvalues --  -10.27695 -10.27670 -10.27519 -10.27153 -10.27144
 Alpha  occ. eigenvalues --  -10.27094 -10.26887 -10.26718 -10.26622 -10.26383
 Alpha  occ. eigenvalues --  -10.26252 -10.26069 -10.25992 -10.25979 -10.25843
 Alpha  occ. eigenvalues --  -10.25841 -10.25784 -10.25517 -10.25483 -10.25320
 Alpha  occ. eigenvalues --  -10.25217 -10.25181 -10.25151 -10.25131 -10.25015
 Alpha  occ. eigenvalues --  -10.25008 -10.24862 -10.24840 -10.24751 -10.24738
 Alpha  occ. eigenvalues --  -10.24584 -10.24482 -10.24119 -10.24078 -10.24010
 Alpha  occ. eigenvalues --  -10.24003  -3.17627  -1.92512  -1.92098  -1.91921
 Alpha  occ. eigenvalues --   -1.16328  -1.15584  -1.10562  -1.09007  -1.07818
 Alpha  occ. eigenvalues --   -1.07156  -1.04062  -1.03118  -1.02993  -1.01813
 Alpha  occ. eigenvalues --   -0.92219  -0.90180  -0.89793  -0.89556  -0.89239
 Alpha  occ. eigenvalues --   -0.88084  -0.88075  -0.87563  -0.87425  -0.87135
 Alpha  occ. eigenvalues --   -0.86770  -0.85379  -0.84037  -0.83455  -0.83396
 Alpha  occ. eigenvalues --   -0.82344  -0.81888  -0.81293  -0.80937  -0.80297
 Alpha  occ. eigenvalues --   -0.79404  -0.78424  -0.77871  -0.77299  -0.76130
 Alpha  occ. eigenvalues --   -0.75930  -0.75423  -0.75148  -0.74939  -0.73956
 Alpha  occ. eigenvalues --   -0.73686  -0.72408  -0.71491  -0.69803  -0.69563
 Alpha  occ. eigenvalues --   -0.68486  -0.68197  -0.67237  -0.66060  -0.65763
 Alpha  occ. eigenvalues --   -0.65163  -0.65070  -0.64546  -0.64096  -0.63573
 Alpha  occ. eigenvalues --   -0.62516  -0.62406  -0.61861  -0.61126  -0.60195
 Alpha  occ. eigenvalues --   -0.59934  -0.59445  -0.59258  -0.58181  -0.58124
 Alpha  occ. eigenvalues --   -0.57638  -0.57020  -0.56338  -0.55967  -0.55456
 Alpha  occ. eigenvalues --   -0.55202  -0.54743  -0.54631  -0.54594  -0.53864
 Alpha  occ. eigenvalues --   -0.53543  -0.53369  -0.53337  -0.52860  -0.52603
 Alpha  occ. eigenvalues --   -0.52332  -0.52222  -0.52035  -0.51850  -0.51465
 Alpha  occ. eigenvalues --   -0.51282  -0.51130  -0.50895  -0.50780  -0.50675
 Alpha  occ. eigenvalues --   -0.50315  -0.50007  -0.49787  -0.49658  -0.49589
 Alpha  occ. eigenvalues --   -0.49327  -0.49267  -0.48960  -0.48864  -0.48674
 Alpha  occ. eigenvalues --   -0.48494  -0.48450  -0.48187  -0.48042  -0.47724
 Alpha  occ. eigenvalues --   -0.47507  -0.47436  -0.46985  -0.46917  -0.46776
 Alpha  occ. eigenvalues --   -0.46514  -0.46122  -0.46047  -0.45900  -0.45687
 Alpha  occ. eigenvalues --   -0.45626  -0.45539  -0.45452  -0.45185  -0.44898
 Alpha  occ. eigenvalues --   -0.44712  -0.44500  -0.44284  -0.44035  -0.43968
 Alpha  occ. eigenvalues --   -0.43651  -0.43583  -0.43341  -0.43139  -0.43052
 Alpha  occ. eigenvalues --   -0.42906  -0.42769  -0.42445  -0.42284  -0.42158
 Alpha  occ. eigenvalues --   -0.41917  -0.41856  -0.41548  -0.41341  -0.41273
 Alpha  occ. eigenvalues --   -0.40944  -0.40899  -0.40471  -0.40368  -0.39608
 Alpha  occ. eigenvalues --   -0.39332  -0.38943  -0.38906  -0.38692  -0.38682
 Alpha  occ. eigenvalues --   -0.38513  -0.37873  -0.37760  -0.37530  -0.37276
 Alpha  occ. eigenvalues --   -0.36890  -0.36810  -0.36761  -0.36370  -0.35899
 Alpha  occ. eigenvalues --   -0.35227  -0.35107  -0.34463  -0.34388  -0.34207
 Alpha  occ. eigenvalues --   -0.33779  -0.33152  -0.32656  -0.31776  -0.31266
 Alpha  occ. eigenvalues --   -0.30570  -0.30241  -0.29911  -0.29241  -0.23898
 Alpha  occ. eigenvalues --   -0.21455
 Alpha virt. eigenvalues --   -0.09147  -0.01274   0.00481   0.01967   0.02569
 Alpha virt. eigenvalues --    0.05371   0.05681   0.05906   0.06120   0.07396
 Alpha virt. eigenvalues --    0.08053   0.08337   0.08760   0.08864   0.09074

 Mulliken charges:
               1
     1  Mg   0.810422
     2  C    0.031482
     3  C   -0.063542
     4  C   -0.043101
     5  C   -0.070421
     6  N   -0.267001
     7  C   -0.023267
     8  C   -0.022207
     9  C   -0.089776
    10  C    0.067341
    11  C    0.075933
    12  C    0.043580
    13  C    0.001707
    14  C    0.183610
    15  O   -0.225787
    16  O   -0.353653
    17  N   -0.376628
    18  C    0.092467
    19  C   -0.106038
    20  C   -0.056619
    21  C    0.117451
    22  C    0.087229
    23  C    0.031109
    24  O   -0.197409
    25  C    0.035523
    26  N   -0.287518
    27  C    0.030398
    28  C   -0.020458
    29  C   -0.001841
    30  C   -0.012025
    31  C    0.067274
    32  C    0.041272
    33  C    0.004270
    34  N   -0.372933
    35  C    0.149882
    36  C   -0.159040
    37  C    0.007247
    38  C    0.107197
    39  C    0.140889
    40  C    0.038059
    41  O   -0.183855
    42  C   -0.066094
    43  C    0.213876
    44  O   -0.233951
    45  O   -0.320765
    46  C    0.174852
    47  C    0.313542
    48  C   -0.126540
    49  C   -0.181563
    50  C    0.108337
    51  C    0.058733
    52  C    0.036676
    53  C    0.022223
    54  C   -0.154031
    55  C    0.052925
    56  C    0.027285
    57  C   -0.048646
    58  C    0.102281
    59  C   -0.161863
    60  C    0.072380
    61  C    0.034505
    62  C    0.024414
    63  C    0.047524
    64  C   -0.153116
    65  C    0.049706
    66  C    0.023221
    67  H   -0.042113
    68  H   -0.003961
    69  H   -0.035802
    70  H    0.028982
    71  H    0.029013
    72  H    0.014351
    73  H    0.022479
    74  H    0.023388
    75  H    0.020425
    76  H    0.003460
    77  H    0.056853
    78  H    0.028833
    79  H    0.014156
    80  H    0.026105
    81  H    0.027993
    82  H    0.022442
    83  H    0.021920
    84  H    0.043939
    85  H    0.013240
    86  H    0.003399
    87  H    0.028598
    88  H    0.013001
    89  H    0.019877
    90  H    0.009617
    91  H    0.001770
    92  H    0.015752
    93  H    0.012990
    94  H    0.020825
    95  H    0.024478
    96  H    0.029703
    97  H    0.033499
    98  H    0.044871
    99  H    0.045126
   100  H    0.058191
   101  H    0.048279
   102  H    0.041710
   103  H    0.017250
   104  H   -0.001652
   105  H    0.021225
   106  H    0.021154
   107  H    0.001357
   108  H   -0.012166
   109  H   -0.010979
   110  H    0.007130
   111  H    0.005448
   112  H   -0.002585
   113  H   -0.003102
   114  H   -0.008690
   115  H   -0.004213
   116  H    0.011950
   117  H    0.025644
   118  H    0.002446
   119  H   -0.006641
   120  H    0.015418
   121  H   -0.006278
   122  H    0.010588
   123  H   -0.012237
   124  H    0.003384
   125  H    0.003884
   126  H    0.000108
   127  H    0.012662
   128  H   -0.018850
   129  H   -0.000455
   130  H   -0.005730
   131  H   -0.000605
   132  H   -0.011145
   133  H    0.003171
   134  H   -0.004931
   135  H    0.010083
   136  H    0.003768
   137  H    0.012167
   138  H    0.004136
   139  H    0.002537
   140  H    0.000226
 Sum of Mulliken charges =  -0.00000

 Dipole moment (field-independent basis, Debye):
    X=             -2.3347    Y=              1.4199    Z=              0.1287  Tot=              2.7356
 Quadrupole moment (field-independent basis, Debye-Ang):
   XX=           -388.1668   YY=           -405.5415   ZZ=           -405.2977
   XY=              3.5482   XZ=             22.9359   YZ=             -1.3457

 Normal termination of Gaussian 16 at Fri Apr 29 00:14:26 2022.
