 Gaussian 16, Revision A.03,
 Gaussian 16:  ES64L-G16RevA.03 25-Dec-2016

 ---------------------------------
 #p PBE1PBE/Def2SVP td=(nstates=5)
 ---------------------------------

 ------------------------------------------------------
 step_1801_chromophore_16 TDDFT with PBE1PBE functional
 ------------------------------------------------------
 Symbolic Z-matrix:
 Charge =  0 Multiplicity = 1

                         Standard orientation:
 ---------------------------------------------------------------------
 Center     Atomic      Atomic             Coordinates (Angstroms)
 Number     Number       Type             X           Y           Z
 ---------------------------------------------------------------------
      1         12           0        6.088175    0.633027    0.204736
      2          6           0        3.850441   -1.996037   -0.119038
      3          6           0        3.716156    2.715149   -1.073419
      4          6           0        8.495854    2.983369    0.059573
      5          6           0        8.673199   -1.779656    0.705227
      6          7           0        3.997740    0.371368   -0.558548
      7          6           0        3.310791   -0.781872   -0.498119
      8          6           0        1.832859   -0.601049   -0.985425
      9          6           0        1.765641    0.989667   -1.198462
     10          6           0        3.255871    1.413646   -1.020975
     11          6           0        1.136742    1.289437   -2.552859
     12          6           0        0.781514   -0.953633    0.046982
     13          6           0       -0.214678   -2.098867   -0.278204
     14          6           0       -1.576287   -2.070578    0.416122
     15          8           0       -1.916024   -1.359958    1.351570
     16          8           0       -2.332933   -3.089601   -0.155780
     17          7           0        6.087605    2.621274   -0.340674
     18          6           0        5.074468    3.320474   -0.862227
     19          6           0        5.395032    4.723563   -1.017268
     20          6           0        6.802426    4.797003   -0.744614
     21          6           0        7.233594    3.416322   -0.322709
     22          6           0        4.428858    5.652310   -1.655695
     23          6           0        7.729519    6.055650   -0.801392
     24          8           0        8.903184    6.085856   -0.470403
     25          6           0        7.099191    7.395160   -1.031628
     26          7           0        8.300831    0.523799    0.240648
     27          6           0        8.924622    1.769840    0.470558
     28          6           0       10.298849    1.501055    1.103893
     29          6           0       10.319225   -0.025617    1.435206
     30          6           0        9.024735   -0.504208    0.745260
     31          6           0       11.447867    1.810897    0.101184
     32          6           0       10.467392   -0.495081    2.934967
     33          6           0        9.452158    0.013294    3.940359
     34          7           0        6.252935   -1.420210    0.447769
     35          6           0        7.378551   -2.303649    0.513830
     36          6           0        6.984545   -3.650883    0.551515
     37          6           0        5.603247   -3.568470    0.356391
     38          6           0        5.195084   -2.206973    0.240001
     39          6           0        7.867665   -4.808746    0.879966
     40          6           0        4.417934   -4.397047    0.366541
     41          8           0        4.215796   -5.586609    0.633523
     42          6           0        3.211234   -3.353161   -0.007441
     43          6           0        2.630275   -3.893523   -1.301333
     44          8           0        3.077788   -3.647184   -2.416282
     45          8           0        1.552930   -4.638001   -1.029987
     46          6           0        1.055666   -5.421799   -2.252411
     47          6           0       -3.572081   -3.397351    0.619997
     48          6           0       -4.658754   -2.491752    0.142635
     49          6           0       -5.971414   -2.731816   -0.105839
     50          6           0       -6.731684   -4.019552    0.098509
     51          6           0       -6.757275   -1.670981   -0.803403
     52          6           0       -7.619871   -0.749458    0.139760
     53          6           0       -9.095488   -0.583351   -0.220470
     54          6           0       -9.393039    0.780278   -1.009028
     55          6           0       -9.311617    2.108140   -0.116052
     56          6           0      -10.746082    0.523247   -1.848720
     57          6           0      -11.982788    0.231619   -0.959211
     58          6           0      -13.201425    1.221569   -1.217979
     59          6           0      -14.444725    0.403952   -0.917728
     60          6           0      -15.047198   -0.293935   -2.140822
     61          6           0      -15.503893    1.359048   -0.217655
     62          6           0      -15.341002    1.419195    1.296260
     63          6           0      -14.582143    2.712336    1.754723
     64          6           0      -13.378930    2.399102    2.733633
     65          6           0      -12.140326    3.233217    2.435567
     66          6           0      -13.728859    2.523797    4.204750
     67          1           0        2.957284    3.467845   -1.296248
     68          1           0        9.218614    3.799681    0.108827
     69          1           0        9.510102   -2.376163    1.072583
     70          1           0        1.619115   -1.171475   -1.889499
     71          1           0        1.213787    1.570127   -0.459797
     72          1           0        0.681163    2.240839   -2.275270
     73          1           0        0.456177    0.508722   -2.891862
     74          1           0        1.930047    1.401994   -3.291043
     75          1           0        0.124052   -0.118775    0.289092
     76          1           0        1.222859   -1.337077    0.967730
     77          1           0        0.302250   -2.905788    0.241751
     78          1           0       -0.276759   -2.203401   -1.361095
     79          1           0        4.304921    6.530492   -1.021289
     80          1           0        3.430307    5.318228   -1.938778
     81          1           0        4.837192    6.148025   -2.536338
     82          1           0        6.443591    7.439148   -1.901188
     83          1           0        7.888109    8.143482   -1.109888
     84          1           0        6.600635    7.732272   -0.122273
     85          1           0       10.207117    2.152135    1.973022
     86          1           0       11.098818   -0.539714    0.873131
     87          1           0       11.983346    2.731418    0.334512
     88          1           0       10.927216    2.012280   -0.835103
     89          1           0       12.115877    1.012233   -0.218988
     90          1           0       11.445107   -0.133216    3.253660
     91          1           0       10.523140   -1.583309    2.937633
     92          1           0        8.696665    0.665264    3.500870
     93          1           0        9.925871    0.619614    4.712568
     94          1           0        8.951727   -0.817703    4.436893
     95          1           0        8.650550   -4.566195    1.599267
     96          1           0        8.306622   -5.200378   -0.037844
     97          1           0        7.204045   -5.591290    1.245687
     98          1           0        2.578912   -3.325672    0.879813
     99          1           0        0.089839   -5.901495   -2.097514
    100          1           0        1.877887   -6.128981   -2.366587
    101          1           0        0.870619   -4.780493   -3.114241
    102          1           0       -3.514602   -3.265963    1.700305
    103          1           0       -3.887550   -4.427189    0.454769
    104          1           0       -4.291311   -1.562254   -0.291484
    105          1           0       -6.947450   -4.447601   -0.880789
    106          1           0       -7.679895   -3.804286    0.590547
    107          1           0       -6.100176   -4.751826    0.602302
    108          1           0       -7.410313   -2.012741   -1.606652
    109          1           0       -6.084207   -1.049482   -1.394203
    110          1           0       -7.167668    0.237343    0.037799
    111          1           0       -7.567581   -1.117558    1.163729
    112          1           0       -9.584713   -0.554454    0.753231
    113          1           0       -9.577526   -1.323672   -0.858771
    114          1           0       -8.566720    0.875972   -1.714598
    115          1           0      -10.320767    2.517609   -0.072576
    116          1           0       -8.774288    2.900350   -0.636755
    117          1           0       -8.963135    1.888909    0.893830
    118          1           0      -10.764512   -0.315140   -2.545913
    119          1           0      -10.835074    1.440870   -2.429710
    120          1           0      -11.633572    0.193156    0.072748
    121          1           0      -12.301515   -0.768996   -1.252319
    122          1           0      -13.108617    1.722934   -2.181550
    123          1           0      -13.070380    1.913894   -0.385505
    124          1           0      -14.201499   -0.424937   -0.252287
    125          1           0      -16.134682   -0.221608   -2.165966
    126          1           0      -14.813429   -1.305708   -1.810996
    127          1           0      -14.629674   -0.051956   -3.117960
    128          1           0      -16.539764    1.035453   -0.317809
    129          1           0      -15.424853    2.348994   -0.665880
    130          1           0      -14.786689    0.518926    1.561096
    131          1           0      -16.310205    1.384299    1.793989
    132          1           0      -15.280576    3.278629    2.369925
    133          1           0      -14.234088    3.348266    0.939836
    134          1           0      -13.182208    1.326067    2.750708
    135          1           0      -11.974344    3.358454    1.365740
    136          1           0      -11.315774    2.608235    2.776266
    137          1           0      -12.157340    4.191999    2.953951
    138          1           0      -12.897114    2.427366    4.901997
    139          1           0      -14.435043    1.718456    4.405782
    140          1           0      -14.155643    3.490803    4.468984
 ---------------------------------------------------------------------

 SCF Done:  E(RPBE1PBE) =  -3005.32988903     A.U. after   15 cycles

 Excitation energies and oscillator strengths:

 Excited State   1:      Singlet-A      1.8691 eV  663.33 nm  f=0.4129  <S**2>=0.000
     245 -> 248       -0.15900
     246 -> 247        0.69372
     246 <- 247       -0.11348
 This state for optimization and/or second-order correction.
 Total Energy, E(TD-HF/TD-DFT) =  -3005.26120066
 Copying the excited state density for this state as the 1-particle RhoCI density.

 Excited State   2:      Singlet-A      2.1569 eV  574.81 nm  f=0.1484  <S**2>=0.000
     245 -> 247        0.66855
     246 -> 248        0.19956

 Excited State   3:      Singlet-A      2.8657 eV  432.65 nm  f=0.0013  <S**2>=0.000
     242 -> 247        0.24745
     243 -> 247        0.63346
     243 -> 249       -0.11027

 Excited State   4:      Singlet-A      3.0452 eV  407.15 nm  f=0.0031  <S**2>=0.000
     242 -> 247        0.64532
     243 -> 247       -0.25080

 Excited State   5:      Singlet-A      3.1104 eV  398.61 nm  f=0.0046  <S**2>=0.000
     240 -> 247        0.45552
     240 -> 248        0.10191
     240 -> 249        0.10220
     241 -> 247        0.50206

 The electronic state is 1-A.
 Alpha  occ. eigenvalues --  -46.92594 -19.26094 -19.25867 -19.20792 -19.19555
 Alpha  occ. eigenvalues --  -19.19507 -19.19496 -14.41435 -14.40788 -14.39647
 Alpha  occ. eigenvalues --  -14.38889 -10.36784 -10.36068 -10.32685 -10.32433
 Alpha  occ. eigenvalues --  -10.29500 -10.29395 -10.28721 -10.28531 -10.28362
 Alpha  occ. eigenvalues --  -10.28245 -10.28117 -10.27327 -10.27072 -10.26459
 Alpha  occ. eigenvalues --  -10.26451 -10.25897 -10.25838 -10.25794 -10.25684
 Alpha  occ. eigenvalues --  -10.25502 -10.25376 -10.25305 -10.25022 -10.24928
 Alpha  occ. eigenvalues --  -10.24554 -10.24413 -10.24354 -10.24255 -10.24139
 Alpha  occ. eigenvalues --  -10.23659 -10.23640 -10.23608 -10.23380 -10.23347
 Alpha  occ. eigenvalues --  -10.23261 -10.23129 -10.23037 -10.23034 -10.22984
 Alpha  occ. eigenvalues --  -10.22875 -10.22791 -10.22712 -10.22567 -10.22563
 Alpha  occ. eigenvalues --  -10.22548 -10.22453 -10.22400 -10.22332 -10.22298
 Alpha  occ. eigenvalues --  -10.22169 -10.22030 -10.21662 -10.21492 -10.21396
 Alpha  occ. eigenvalues --  -10.21380  -3.14612  -1.87436  -1.87000  -1.86827
 Alpha  occ. eigenvalues --   -1.11058  -1.10383  -1.05294  -1.03766  -1.02699
 Alpha  occ. eigenvalues --   -1.01937  -0.98704  -0.97815  -0.97636  -0.96432
 Alpha  occ. eigenvalues --   -0.86577  -0.84308  -0.83901  -0.83767  -0.83567
 Alpha  occ. eigenvalues --   -0.82364  -0.82166  -0.81911  -0.81731  -0.81245
 Alpha  occ. eigenvalues --   -0.81088  -0.79654  -0.78265  -0.77741  -0.77642
 Alpha  occ. eigenvalues --   -0.76542  -0.76071  -0.75497  -0.75161  -0.74614
 Alpha  occ. eigenvalues --   -0.73548  -0.72740  -0.72164  -0.71610  -0.70433
 Alpha  occ. eigenvalues --   -0.70104  -0.69507  -0.69465  -0.69077  -0.68180
 Alpha  occ. eigenvalues --   -0.68101  -0.66729  -0.65916  -0.64137  -0.63913
 Alpha  occ. eigenvalues --   -0.62810  -0.62554  -0.61698  -0.60431  -0.60046
 Alpha  occ. eigenvalues --   -0.59707  -0.59258  -0.59028  -0.58671  -0.57690
 Alpha  occ. eigenvalues --   -0.57044  -0.56626  -0.56446  -0.55382  -0.54760
 Alpha  occ. eigenvalues --   -0.54265  -0.53948  -0.53905  -0.52786  -0.52552
 Alpha  occ. eigenvalues --   -0.52010  -0.51573  -0.50951  -0.50356  -0.50033
 Alpha  occ. eigenvalues --   -0.49683  -0.49283  -0.49169  -0.48936  -0.48486
 Alpha  occ. eigenvalues --   -0.48126  -0.47957  -0.47782  -0.47400  -0.47077
 Alpha  occ. eigenvalues --   -0.46829  -0.46665  -0.46576  -0.46357  -0.45957
 Alpha  occ. eigenvalues --   -0.45894  -0.45641  -0.45479  -0.45318  -0.45244
 Alpha  occ. eigenvalues --   -0.44915  -0.44620  -0.44323  -0.44211  -0.44148
 Alpha  occ. eigenvalues --   -0.44015  -0.43843  -0.43594  -0.43457  -0.43272
 Alpha  occ. eigenvalues --   -0.43071  -0.43030  -0.42740  -0.42669  -0.42393
 Alpha  occ. eigenvalues --   -0.42154  -0.42083  -0.41604  -0.41578  -0.41444
 Alpha  occ. eigenvalues --   -0.41217  -0.40928  -0.40689  -0.40614  -0.40429
 Alpha  occ. eigenvalues --   -0.40356  -0.40267  -0.40168  -0.39749  -0.39621
 Alpha  occ. eigenvalues --   -0.39339  -0.39192  -0.39044  -0.38876  -0.38759
 Alpha  occ. eigenvalues --   -0.38431  -0.38326  -0.38105  -0.37971  -0.37806
 Alpha  occ. eigenvalues --   -0.37615  -0.37557  -0.37317  -0.37086  -0.36937
 Alpha  occ. eigenvalues --   -0.36729  -0.36675  -0.36244  -0.36227  -0.36015
 Alpha  occ. eigenvalues --   -0.35847  -0.35675  -0.35255  -0.35232  -0.34413
 Alpha  occ. eigenvalues --   -0.34273  -0.33869  -0.33747  -0.33635  -0.33411
 Alpha  occ. eigenvalues --   -0.33317  -0.32793  -0.32674  -0.32487  -0.32144
 Alpha  occ. eigenvalues --   -0.31915  -0.31789  -0.31612  -0.31276  -0.30735
 Alpha  occ. eigenvalues --   -0.30192  -0.30134  -0.29325  -0.29298  -0.29115
 Alpha  occ. eigenvalues --   -0.28829  -0.28271  -0.28140  -0.27430  -0.26080
 Alpha  occ. eigenvalues --   -0.25840  -0.25701  -0.25405  -0.24556  -0.20869
 Alpha  occ. eigenvalues --   -0.19090
 Alpha virt. eigenvalues --   -0.11542  -0.04932  -0.03702  -0.01856  -0.00794
 Alpha virt. eigenvalues --    0.00698   0.01206   0.01425   0.01691   0.03437
 Alpha virt. eigenvalues --    0.04753   0.04826   0.04963   0.05273   0.05774

 Mulliken charges:
               1
     1  Mg   0.954543
     2  C    0.023488
     3  C   -0.062344
     4  C   -0.036443
     5  C   -0.060713
     6  N   -0.375356
     7  C    0.058330
     8  C   -0.099186
     9  C   -0.168434
    10  C    0.107612
    11  C    0.021187
    12  C    0.006525
    13  C   -0.080763
    14  C    0.250525
    15  O   -0.257861
    16  O   -0.380436
    17  N   -0.492054
    18  C    0.125269
    19  C   -0.133765
    20  C   -0.105185
    21  C    0.147003
    22  C    0.026544
    23  C    0.082233
    24  O   -0.234287
    25  C   -0.039086
    26  N   -0.381369
    27  C    0.055025
    28  C   -0.099363
    29  C   -0.076728
    30  C    0.033433
    31  C    0.011740
    32  C   -0.021107
    33  C   -0.068256
    34  N   -0.494987
    35  C    0.159373
    36  C   -0.167855
    37  C   -0.039614
    38  C    0.159151
    39  C    0.085531
    40  C    0.123911
    41  O   -0.228431
    42  C   -0.171965
    43  C    0.301237
    44  O   -0.268366
    45  O   -0.351894
    46  C    0.117996
    47  C    0.261530
    48  C   -0.129093
    49  C   -0.230461
    50  C    0.044618
    51  C   -0.000345
    52  C   -0.026467
    53  C   -0.032503
    54  C   -0.233106
    55  C   -0.013835
    56  C   -0.030998
    57  C   -0.109056
    58  C    0.038177
    59  C   -0.250067
    60  C    0.018119
    61  C   -0.024894
    62  C   -0.033700
    63  C   -0.009907
    64  C   -0.243463
    65  C   -0.016862
    66  C   -0.036763
    67  H   -0.007029
    68  H    0.027774
    69  H   -0.004363
    70  H    0.064235
    71  H    0.063726
    72  H    0.041256
    73  H    0.050469
    74  H    0.051483
    75  H    0.051870
    76  H    0.036833
    77  H    0.093890
    78  H    0.059602
    79  H    0.043066
    80  H    0.051561
    81  H    0.056273
    82  H    0.048418
    83  H    0.049872
    84  H    0.070822
    85  H    0.050040
    86  H    0.041419
    87  H    0.055929
    88  H    0.041937
    89  H    0.046509
    90  H    0.043479
    91  H    0.033449
    92  H    0.045623
    93  H    0.040548
    94  H    0.048468
    95  H    0.050003
    96  H    0.058293
    97  H    0.061521
    98  H    0.081407
    99  H    0.065774
   100  H    0.079900
   101  H    0.068632
   102  H    0.069796
   103  H    0.044795
   104  H    0.027387
   105  H    0.049374
   106  H    0.049119
   107  H    0.029190
   108  H    0.020297
   109  H    0.020690
   110  H    0.040711
   111  H    0.037593
   112  H    0.029298
   113  H    0.029558
   114  H    0.030758
   115  H    0.029675
   116  H    0.039452
   117  H    0.051586
   118  H    0.034654
   119  H    0.026562
   120  H    0.048321
   121  H    0.027413
   122  H    0.040023
   123  H    0.033725
   124  H    0.040120
   125  H    0.031352
   126  H    0.026686
   127  H    0.039132
   128  H    0.014109
   129  H    0.033193
   130  H    0.025688
   131  H    0.031645
   132  H    0.023181
   133  H    0.031552
   134  H    0.032455
   135  H    0.038842
   136  H    0.032608
   137  H    0.039770
   138  H    0.032004
   139  H    0.031521
   140  H    0.027747
 Sum of Mulliken charges =  -0.00000

 Dipole moment (field-independent basis, Debye):
    X=             -2.3088    Y=              1.4576    Z=              0.1988  Tot=              2.7376
 Quadrupole moment (field-independent basis, Debye-Ang):
   XX=           -382.7389   YY=           -402.7954   ZZ=           -402.7494
   XY=              3.2113   XZ=             24.0067   YZ=             -1.5625

 Normal termination of Gaussian 16 at Fri Apr 29 00:35:15 2022.
