 Gaussian 16, Revision A.03,
 Gaussian 16:  ES64L-G16RevA.03 25-Dec-2016

 --------------------------------
 #p wB97XD/Def2SVP td=(nstates=5)
 --------------------------------

 -----------------------------------------------------
 step_1801_chromophore_16 TDDFT with wB97XD functional
 -----------------------------------------------------
 Symbolic Z-matrix:
 Charge =  0 Multiplicity = 1

                         Standard orientation:
 ---------------------------------------------------------------------
 Center     Atomic      Atomic             Coordinates (Angstroms)
 Number     Number       Type             X           Y           Z
 ---------------------------------------------------------------------
      1         12           0        6.088175    0.633027    0.204736
      2          6           0        3.850441   -1.996037   -0.119038
      3          6           0        3.716156    2.715149   -1.073419
      4          6           0        8.495854    2.983369    0.059573
      5          6           0        8.673199   -1.779656    0.705227
      6          7           0        3.997740    0.371368   -0.558548
      7          6           0        3.310791   -0.781872   -0.498119
      8          6           0        1.832859   -0.601049   -0.985425
      9          6           0        1.765641    0.989667   -1.198462
     10          6           0        3.255871    1.413646   -1.020975
     11          6           0        1.136742    1.289437   -2.552859
     12          6           0        0.781514   -0.953633    0.046982
     13          6           0       -0.214678   -2.098867   -0.278204
     14          6           0       -1.576287   -2.070578    0.416122
     15          8           0       -1.916024   -1.359958    1.351570
     16          8           0       -2.332933   -3.089601   -0.155780
     17          7           0        6.087605    2.621274   -0.340674
     18          6           0        5.074468    3.320474   -0.862227
     19          6           0        5.395032    4.723563   -1.017268
     20          6           0        6.802426    4.797003   -0.744614
     21          6           0        7.233594    3.416322   -0.322709
     22          6           0        4.428858    5.652310   -1.655695
     23          6           0        7.729519    6.055650   -0.801392
     24          8           0        8.903184    6.085856   -0.470403
     25          6           0        7.099191    7.395160   -1.031628
     26          7           0        8.300831    0.523799    0.240648
     27          6           0        8.924622    1.769840    0.470558
     28          6           0       10.298849    1.501055    1.103893
     29          6           0       10.319225   -0.025617    1.435206
     30          6           0        9.024735   -0.504208    0.745260
     31          6           0       11.447867    1.810897    0.101184
     32          6           0       10.467392   -0.495081    2.934967
     33          6           0        9.452158    0.013294    3.940359
     34          7           0        6.252935   -1.420210    0.447769
     35          6           0        7.378551   -2.303649    0.513830
     36          6           0        6.984545   -3.650883    0.551515
     37          6           0        5.603247   -3.568470    0.356391
     38          6           0        5.195084   -2.206973    0.240001
     39          6           0        7.867665   -4.808746    0.879966
     40          6           0        4.417934   -4.397047    0.366541
     41          8           0        4.215796   -5.586609    0.633523
     42          6           0        3.211234   -3.353161   -0.007441
     43          6           0        2.630275   -3.893523   -1.301333
     44          8           0        3.077788   -3.647184   -2.416282
     45          8           0        1.552930   -4.638001   -1.029987
     46          6           0        1.055666   -5.421799   -2.252411
     47          6           0       -3.572081   -3.397351    0.619997
     48          6           0       -4.658754   -2.491752    0.142635
     49          6           0       -5.971414   -2.731816   -0.105839
     50          6           0       -6.731684   -4.019552    0.098509
     51          6           0       -6.757275   -1.670981   -0.803403
     52          6           0       -7.619871   -0.749458    0.139760
     53          6           0       -9.095488   -0.583351   -0.220470
     54          6           0       -9.393039    0.780278   -1.009028
     55          6           0       -9.311617    2.108140   -0.116052
     56          6           0      -10.746082    0.523247   -1.848720
     57          6           0      -11.982788    0.231619   -0.959211
     58          6           0      -13.201425    1.221569   -1.217979
     59          6           0      -14.444725    0.403952   -0.917728
     60          6           0      -15.047198   -0.293935   -2.140822
     61          6           0      -15.503893    1.359048   -0.217655
     62          6           0      -15.341002    1.419195    1.296260
     63          6           0      -14.582143    2.712336    1.754723
     64          6           0      -13.378930    2.399102    2.733633
     65          6           0      -12.140326    3.233217    2.435567
     66          6           0      -13.728859    2.523797    4.204750
     67          1           0        2.957284    3.467845   -1.296248
     68          1           0        9.218614    3.799681    0.108827
     69          1           0        9.510102   -2.376163    1.072583
     70          1           0        1.619115   -1.171475   -1.889499
     71          1           0        1.213787    1.570127   -0.459797
     72          1           0        0.681163    2.240839   -2.275270
     73          1           0        0.456177    0.508722   -2.891862
     74          1           0        1.930047    1.401994   -3.291043
     75          1           0        0.124052   -0.118775    0.289092
     76          1           0        1.222859   -1.337077    0.967730
     77          1           0        0.302250   -2.905788    0.241751
     78          1           0       -0.276759   -2.203401   -1.361095
     79          1           0        4.304921    6.530492   -1.021289
     80          1           0        3.430307    5.318228   -1.938778
     81          1           0        4.837192    6.148025   -2.536338
     82          1           0        6.443591    7.439148   -1.901188
     83          1           0        7.888109    8.143482   -1.109888
     84          1           0        6.600635    7.732272   -0.122273
     85          1           0       10.207117    2.152135    1.973022
     86          1           0       11.098818   -0.539714    0.873131
     87          1           0       11.983346    2.731418    0.334512
     88          1           0       10.927216    2.012280   -0.835103
     89          1           0       12.115877    1.012233   -0.218988
     90          1           0       11.445107   -0.133216    3.253660
     91          1           0       10.523140   -1.583309    2.937633
     92          1           0        8.696665    0.665264    3.500870
     93          1           0        9.925871    0.619614    4.712568
     94          1           0        8.951727   -0.817703    4.436893
     95          1           0        8.650550   -4.566195    1.599267
     96          1           0        8.306622   -5.200378   -0.037844
     97          1           0        7.204045   -5.591290    1.245687
     98          1           0        2.578912   -3.325672    0.879813
     99          1           0        0.089839   -5.901495   -2.097514
    100          1           0        1.877887   -6.128981   -2.366587
    101          1           0        0.870619   -4.780493   -3.114241
    102          1           0       -3.514602   -3.265963    1.700305
    103          1           0       -3.887550   -4.427189    0.454769
    104          1           0       -4.291311   -1.562254   -0.291484
    105          1           0       -6.947450   -4.447601   -0.880789
    106          1           0       -7.679895   -3.804286    0.590547
    107          1           0       -6.100176   -4.751826    0.602302
    108          1           0       -7.410313   -2.012741   -1.606652
    109          1           0       -6.084207   -1.049482   -1.394203
    110          1           0       -7.167668    0.237343    0.037799
    111          1           0       -7.567581   -1.117558    1.163729
    112          1           0       -9.584713   -0.554454    0.753231
    113          1           0       -9.577526   -1.323672   -0.858771
    114          1           0       -8.566720    0.875972   -1.714598
    115          1           0      -10.320767    2.517609   -0.072576
    116          1           0       -8.774288    2.900350   -0.636755
    117          1           0       -8.963135    1.888909    0.893830
    118          1           0      -10.764512   -0.315140   -2.545913
    119          1           0      -10.835074    1.440870   -2.429710
    120          1           0      -11.633572    0.193156    0.072748
    121          1           0      -12.301515   -0.768996   -1.252319
    122          1           0      -13.108617    1.722934   -2.181550
    123          1           0      -13.070380    1.913894   -0.385505
    124          1           0      -14.201499   -0.424937   -0.252287
    125          1           0      -16.134682   -0.221608   -2.165966
    126          1           0      -14.813429   -1.305708   -1.810996
    127          1           0      -14.629674   -0.051956   -3.117960
    128          1           0      -16.539764    1.035453   -0.317809
    129          1           0      -15.424853    2.348994   -0.665880
    130          1           0      -14.786689    0.518926    1.561096
    131          1           0      -16.310205    1.384299    1.793989
    132          1           0      -15.280576    3.278629    2.369925
    133          1           0      -14.234088    3.348266    0.939836
    134          1           0      -13.182208    1.326067    2.750708
    135          1           0      -11.974344    3.358454    1.365740
    136          1           0      -11.315774    2.608235    2.776266
    137          1           0      -12.157340    4.191999    2.953951
    138          1           0      -12.897114    2.427366    4.901997
    139          1           0      -14.435043    1.718456    4.405782
    140          1           0      -14.155643    3.490803    4.468984
 ---------------------------------------------------------------------

 SCF Done:  E(RwB97XD) =  -3007.84257230     A.U. after   19 cycles

 Excitation energies and oscillator strengths:

 Excited State   1:      Singlet-A      1.6395 eV  756.25 nm  f=0.4264  <S**2>=0.000
     245 -> 248       -0.17484
     246 -> 247        0.68444
     245 <- 248       -0.11286
 This state for optimization and/or second-order correction.
 Total Energy, E(TD-HF/TD-DFT) =  -3007.78232321
 Copying the excited state density for this state as the 1-particle RhoCI density.

 Excited State   2:      Singlet-A      2.0949 eV  591.85 nm  f=0.1596  <S**2>=0.000
     245 -> 247        0.65981
     246 -> 248        0.23198

 Excited State   3:      Singlet-A      3.3152 eV  373.99 nm  f=0.0021  <S**2>=0.000
     243 -> 247        0.65121
     246 -> 248       -0.15746

 Excited State   4:      Singlet-A      3.4376 eV  360.67 nm  f=0.0012  <S**2>=0.000
     241 -> 247        0.57388
     241 -> 249        0.24986
     241 -> 250        0.17543
     242 -> 247        0.18274
     243 -> 247       -0.12918

 Excited State   5:      Singlet-A      3.5219 eV  352.04 nm  f=0.0222  <S**2>=0.000
     241 -> 247       -0.16584
     242 -> 247        0.60858
     246 -> 248       -0.26333

 The electronic state is 1-A.
 Alpha  occ. eigenvalues --  -46.95531 -19.30683 -19.30421 -19.25467 -19.24357
 Alpha  occ. eigenvalues --  -19.24326 -19.24220 -14.46408 -14.45956 -14.44601
 Alpha  occ. eigenvalues --  -14.43797 -10.43573 -10.42927 -10.39520 -10.39314
 Alpha  occ. eigenvalues --  -10.36063 -10.35897 -10.35032 -10.34815 -10.34648
 Alpha  occ. eigenvalues --  -10.34548 -10.34359 -10.33604 -10.33339 -10.32890
 Alpha  occ. eigenvalues --  -10.32800 -10.32267 -10.32243 -10.32034 -10.31888
 Alpha  occ. eigenvalues --  -10.31817 -10.31712 -10.31583 -10.31241 -10.31209
 Alpha  occ. eigenvalues --  -10.31034 -10.30837 -10.30664 -10.30622 -10.30400
 Alpha  occ. eigenvalues --  -10.30143 -10.30110 -10.29963 -10.29863 -10.29819
 Alpha  occ. eigenvalues --  -10.29713 -10.29634 -10.29385 -10.29310 -10.29290
 Alpha  occ. eigenvalues --  -10.29272 -10.29118 -10.29068 -10.28990 -10.28946
 Alpha  occ. eigenvalues --  -10.28945 -10.28805 -10.28784 -10.28695 -10.28678
 Alpha  occ. eigenvalues --  -10.28520 -10.28385 -10.28002 -10.27939 -10.27824
 Alpha  occ. eigenvalues --  -10.27820  -3.21423  -1.94993  -1.94557  -1.94384
 Alpha  occ. eigenvalues --   -1.18484  -1.17772  -1.12778  -1.11260  -1.10046
 Alpha  occ. eigenvalues --   -1.09333  -1.06061  -1.05159  -1.05003  -1.03838
 Alpha  occ. eigenvalues --   -0.94187  -0.91991  -0.91560  -0.91403  -0.91170
 Alpha  occ. eigenvalues --   -0.89946  -0.89835  -0.89506  -0.89370  -0.88920
 Alpha  occ. eigenvalues --   -0.88708  -0.87280  -0.85908  -0.85357  -0.85268
 Alpha  occ. eigenvalues --   -0.84201  -0.83800  -0.83189  -0.82819  -0.82245
 Alpha  occ. eigenvalues --   -0.81228  -0.80382  -0.79793  -0.79217  -0.78056
 Alpha  occ. eigenvalues --   -0.77791  -0.77207  -0.77064  -0.76759  -0.75792
 Alpha  occ. eigenvalues --   -0.75674  -0.74338  -0.73449  -0.71723  -0.71494
 Alpha  occ. eigenvalues --   -0.70397  -0.70158  -0.69241  -0.67971  -0.67657
 Alpha  occ. eigenvalues --   -0.67161  -0.66919  -0.66500  -0.66105  -0.65374
 Alpha  occ. eigenvalues --   -0.64501  -0.64253  -0.63861  -0.62993  -0.62198
 Alpha  occ. eigenvalues --   -0.61817  -0.61404  -0.61257  -0.60144  -0.60092
 Alpha  occ. eigenvalues --   -0.59526  -0.59012  -0.58307  -0.57837  -0.57428
 Alpha  occ. eigenvalues --   -0.57117  -0.56678  -0.56587  -0.56453  -0.55812
 Alpha  occ. eigenvalues --   -0.55476  -0.55320  -0.55219  -0.54782  -0.54488
 Alpha  occ. eigenvalues --   -0.54248  -0.54131  -0.53976  -0.53733  -0.53326
 Alpha  occ. eigenvalues --   -0.53220  -0.53019  -0.52839  -0.52663  -0.52599
 Alpha  occ. eigenvalues --   -0.52258  -0.51972  -0.51658  -0.51604  -0.51491
 Alpha  occ. eigenvalues --   -0.51281  -0.51170  -0.50891  -0.50753  -0.50569
 Alpha  occ. eigenvalues --   -0.50399  -0.50349  -0.50058  -0.49937  -0.49658
 Alpha  occ. eigenvalues --   -0.49358  -0.49351  -0.48867  -0.48841  -0.48690
 Alpha  occ. eigenvalues --   -0.48481  -0.48061  -0.47923  -0.47811  -0.47610
 Alpha  occ. eigenvalues --   -0.47510  -0.47442  -0.47391  -0.47024  -0.46815
 Alpha  occ. eigenvalues --   -0.46559  -0.46382  -0.46216  -0.45975  -0.45888
 Alpha  occ. eigenvalues --   -0.45586  -0.45528  -0.45266  -0.45054  -0.44958
 Alpha  occ. eigenvalues --   -0.44773  -0.44676  -0.44410  -0.44211  -0.44072
 Alpha  occ. eigenvalues --   -0.43874  -0.43822  -0.43396  -0.43291  -0.43132
 Alpha  occ. eigenvalues --   -0.42880  -0.42774  -0.42339  -0.42232  -0.41466
 Alpha  occ. eigenvalues --   -0.41250  -0.40812  -0.40776  -0.40615  -0.40502
 Alpha  occ. eigenvalues --   -0.40389  -0.39731  -0.39683  -0.39470  -0.39170
 Alpha  occ. eigenvalues --   -0.38971  -0.38860  -0.38634  -0.38274  -0.37733
 Alpha  occ. eigenvalues --   -0.37091  -0.37026  -0.36392  -0.36220  -0.36146
 Alpha  occ. eigenvalues --   -0.35758  -0.35000  -0.34918  -0.33995  -0.33209
 Alpha  occ. eigenvalues --   -0.32585  -0.32415  -0.32068  -0.31270  -0.25818
 Alpha  occ. eigenvalues --   -0.23260
 Alpha virt. eigenvalues --   -0.07518   0.00660   0.02551   0.04607   0.05139
 Alpha virt. eigenvalues --    0.07561   0.07928   0.08145   0.08463   0.10098
 Alpha virt. eigenvalues --    0.11203   0.11438   0.11731   0.11957   0.12439

 Mulliken charges:
               1
     1  Mg   0.945886
     2  C    0.017425
     3  C   -0.076409
     4  C   -0.051644
     5  C   -0.076153
     6  N   -0.339831
     7  C    0.024482
     8  C   -0.072552
     9  C   -0.138743
    10  C    0.092132
    11  C    0.029416
    12  C    0.014153
    13  C   -0.057519
    14  C    0.239889
    15  O   -0.255041
    16  O   -0.381789
    17  N   -0.460389
    18  C    0.114555
    19  C   -0.122823
    20  C   -0.099224
    21  C    0.138242
    22  C    0.037410
    23  C    0.078810
    24  O   -0.228929
    25  C   -0.027542
    26  N   -0.350210
    27  C    0.046319
    28  C   -0.076599
    29  C   -0.047490
    30  C    0.016265
    31  C    0.021028
    32  C   -0.006206
    33  C   -0.052326
    34  N   -0.460849
    35  C    0.156566
    36  C   -0.165182
    37  C   -0.038303
    38  C    0.143461
    39  C    0.095797
    40  C    0.108920
    41  O   -0.218905
    42  C   -0.132120
    43  C    0.275247
    44  O   -0.261761
    45  O   -0.350265
    46  C    0.134124
    47  C    0.282244
    48  C   -0.142215
    49  C   -0.214588
    50  C    0.058941
    51  C    0.016276
    52  C   -0.009988
    53  C   -0.018287
    54  C   -0.204189
    55  C    0.004052
    56  C   -0.013948
    57  C   -0.088923
    58  C    0.065208
    59  C   -0.216137
    60  C    0.024658
    61  C   -0.005203
    62  C   -0.017832
    63  C    0.003738
    64  C   -0.212116
    65  C    0.002167
    66  C   -0.025064
    67  H   -0.017154
    68  H    0.022929
    69  H   -0.012153
    70  H    0.051904
    71  H    0.053964
    72  H    0.036009
    73  H    0.044448
    74  H    0.045979
    75  H    0.043046
    76  H    0.027453
    77  H    0.080911
    78  H    0.053285
    79  H    0.036587
    80  H    0.049438
    81  H    0.049939
    82  H    0.042717
    83  H    0.048228
    84  H    0.066614
    85  H    0.040107
    86  H    0.029923
    87  H    0.051316
    88  H    0.033902
    89  H    0.041570
    90  H    0.035673
    91  H    0.025474
    92  H    0.035293
    93  H    0.035765
    94  H    0.043562
    95  H    0.045375
    96  H    0.054062
    97  H    0.057704
    98  H    0.073438
    99  H    0.063381
   100  H    0.076169
   101  H    0.064714
   102  H    0.064854
   103  H    0.039637
   104  H    0.022431
   105  H    0.043691
   106  H    0.043138
   107  H    0.022899
   108  H    0.011835
   109  H    0.013534
   110  H    0.030758
   111  H    0.029984
   112  H    0.020433
   113  H    0.018344
   114  H    0.017742
   115  H    0.013585
   116  H    0.035267
   117  H    0.046059
   118  H    0.027222
   119  H    0.017192
   120  H    0.034845
   121  H    0.015916
   122  H    0.033981
   123  H    0.004127
   124  H    0.025170
   125  H    0.025901
   126  H    0.020696
   127  H    0.034663
   128  H    0.006432
   129  H    0.022501
   130  H    0.013150
   131  H    0.025660
   132  H    0.014588
   133  H    0.023430
   134  H    0.019027
   135  H    0.027604
   136  H    0.025464
   137  H    0.034592
   138  H    0.026540
   139  H    0.024832
   140  H    0.020585
 Sum of Mulliken charges =  -0.00000

 Dipole moment (field-independent basis, Debye):
    X=             -2.3556    Y=              1.4617    Z=              0.1676  Tot=              2.7773
 Quadrupole moment (field-independent basis, Debye-Ang):
   XX=           -383.1455   YY=           -400.8242   ZZ=           -402.3276
   XY=              3.8703   XZ=             23.8342   YZ=             -1.6097

 Normal termination of Gaussian 16 at Fri Apr 29 01:01:55 2022.
