 Gaussian 16, Revision A.03,
 Gaussian 16:  ES64L-G16RevA.03 25-Dec-2016

 --------------------
 #p ZINDO=(nstates=5)
 --------------------

 ------------------------------
 step_1801_chromophore_16 ZINDO
 ------------------------------
 Symbolic Z-matrix:
 Charge =  0 Multiplicity = 1

                         Standard orientation:
 ---------------------------------------------------------------------
 Center     Atomic      Atomic             Coordinates (Angstroms)
 Number     Number       Type             X           Y           Z
 ---------------------------------------------------------------------
      1         12           0        6.088175    0.633027    0.204736
      2          6           0        3.850441   -1.996037   -0.119038
      3          6           0        3.716156    2.715149   -1.073419
      4          6           0        8.495854    2.983369    0.059573
      5          6           0        8.673199   -1.779656    0.705227
      6          7           0        3.997740    0.371368   -0.558548
      7          6           0        3.310791   -0.781872   -0.498119
      8          6           0        1.832859   -0.601049   -0.985425
      9          6           0        1.765641    0.989667   -1.198462
     10          6           0        3.255871    1.413646   -1.020975
     11          6           0        1.136742    1.289437   -2.552859
     12          6           0        0.781514   -0.953633    0.046982
     13          6           0       -0.214678   -2.098867   -0.278204
     14          6           0       -1.576287   -2.070578    0.416122
     15          8           0       -1.916024   -1.359958    1.351570
     16          8           0       -2.332933   -3.089601   -0.155780
     17          7           0        6.087605    2.621274   -0.340674
     18          6           0        5.074468    3.320474   -0.862227
     19          6           0        5.395032    4.723563   -1.017268
     20          6           0        6.802426    4.797003   -0.744614
     21          6           0        7.233594    3.416322   -0.322709
     22          6           0        4.428858    5.652310   -1.655695
     23          6           0        7.729519    6.055650   -0.801392
     24          8           0        8.903184    6.085856   -0.470403
     25          6           0        7.099191    7.395160   -1.031628
     26          7           0        8.300831    0.523799    0.240648
     27          6           0        8.924622    1.769840    0.470558
     28          6           0       10.298849    1.501055    1.103893
     29          6           0       10.319225   -0.025617    1.435206
     30          6           0        9.024735   -0.504208    0.745260
     31          6           0       11.447867    1.810897    0.101184
     32          6           0       10.467392   -0.495081    2.934967
     33          6           0        9.452158    0.013294    3.940359
     34          7           0        6.252935   -1.420210    0.447769
     35          6           0        7.378551   -2.303649    0.513830
     36          6           0        6.984545   -3.650883    0.551515
     37          6           0        5.603247   -3.568470    0.356391
     38          6           0        5.195084   -2.206973    0.240001
     39          6           0        7.867665   -4.808746    0.879966
     40          6           0        4.417934   -4.397047    0.366541
     41          8           0        4.215796   -5.586609    0.633523
     42          6           0        3.211234   -3.353161   -0.007441
     43          6           0        2.630275   -3.893523   -1.301333
     44          8           0        3.077788   -3.647184   -2.416282
     45          8           0        1.552930   -4.638001   -1.029987
     46          6           0        1.055666   -5.421799   -2.252411
     47          6           0       -3.572081   -3.397351    0.619997
     48          6           0       -4.658754   -2.491752    0.142635
     49          6           0       -5.971414   -2.731816   -0.105839
     50          6           0       -6.731684   -4.019552    0.098509
     51          6           0       -6.757275   -1.670981   -0.803403
     52          6           0       -7.619871   -0.749458    0.139760
     53          6           0       -9.095488   -0.583351   -0.220470
     54          6           0       -9.393039    0.780278   -1.009028
     55          6           0       -9.311617    2.108140   -0.116052
     56          6           0      -10.746082    0.523247   -1.848720
     57          6           0      -11.982788    0.231619   -0.959211
     58          6           0      -13.201425    1.221569   -1.217979
     59          6           0      -14.444725    0.403952   -0.917728
     60          6           0      -15.047198   -0.293935   -2.140822
     61          6           0      -15.503893    1.359048   -0.217655
     62          6           0      -15.341002    1.419195    1.296260
     63          6           0      -14.582143    2.712336    1.754723
     64          6           0      -13.378930    2.399102    2.733633
     65          6           0      -12.140326    3.233217    2.435567
     66          6           0      -13.728859    2.523797    4.204750
     67          1           0        2.957284    3.467845   -1.296248
     68          1           0        9.218614    3.799681    0.108827
     69          1           0        9.510102   -2.376163    1.072583
     70          1           0        1.619115   -1.171475   -1.889499
     71          1           0        1.213787    1.570127   -0.459797
     72          1           0        0.681163    2.240839   -2.275270
     73          1           0        0.456177    0.508722   -2.891862
     74          1           0        1.930047    1.401994   -3.291043
     75          1           0        0.124052   -0.118775    0.289092
     76          1           0        1.222859   -1.337077    0.967730
     77          1           0        0.302250   -2.905788    0.241751
     78          1           0       -0.276759   -2.203401   -1.361095
     79          1           0        4.304921    6.530492   -1.021289
     80          1           0        3.430307    5.318228   -1.938778
     81          1           0        4.837192    6.148025   -2.536338
     82          1           0        6.443591    7.439148   -1.901188
     83          1           0        7.888109    8.143482   -1.109888
     84          1           0        6.600635    7.732272   -0.122273
     85          1           0       10.207117    2.152135    1.973022
     86          1           0       11.098818   -0.539714    0.873131
     87          1           0       11.983346    2.731418    0.334512
     88          1           0       10.927216    2.012280   -0.835103
     89          1           0       12.115877    1.012233   -0.218988
     90          1           0       11.445107   -0.133216    3.253660
     91          1           0       10.523140   -1.583309    2.937633
     92          1           0        8.696665    0.665264    3.500870
     93          1           0        9.925871    0.619614    4.712568
     94          1           0        8.951727   -0.817703    4.436893
     95          1           0        8.650550   -4.566195    1.599267
     96          1           0        8.306622   -5.200378   -0.037844
     97          1           0        7.204045   -5.591290    1.245687
     98          1           0        2.578912   -3.325672    0.879813
     99          1           0        0.089839   -5.901495   -2.097514
    100          1           0        1.877887   -6.128981   -2.366587
    101          1           0        0.870619   -4.780493   -3.114241
    102          1           0       -3.514602   -3.265963    1.700305
    103          1           0       -3.887550   -4.427189    0.454769
    104          1           0       -4.291311   -1.562254   -0.291484
    105          1           0       -6.947450   -4.447601   -0.880789
    106          1           0       -7.679895   -3.804286    0.590547
    107          1           0       -6.100176   -4.751826    0.602302
    108          1           0       -7.410313   -2.012741   -1.606652
    109          1           0       -6.084207   -1.049482   -1.394203
    110          1           0       -7.167668    0.237343    0.037799
    111          1           0       -7.567581   -1.117558    1.163729
    112          1           0       -9.584713   -0.554454    0.753231
    113          1           0       -9.577526   -1.323672   -0.858771
    114          1           0       -8.566720    0.875972   -1.714598
    115          1           0      -10.320767    2.517609   -0.072576
    116          1           0       -8.774288    2.900350   -0.636755
    117          1           0       -8.963135    1.888909    0.893830
    118          1           0      -10.764512   -0.315140   -2.545913
    119          1           0      -10.835074    1.440870   -2.429710
    120          1           0      -11.633572    0.193156    0.072748
    121          1           0      -12.301515   -0.768996   -1.252319
    122          1           0      -13.108617    1.722934   -2.181550
    123          1           0      -13.070380    1.913894   -0.385505
    124          1           0      -14.201499   -0.424937   -0.252287
    125          1           0      -16.134682   -0.221608   -2.165966
    126          1           0      -14.813429   -1.305708   -1.810996
    127          1           0      -14.629674   -0.051956   -3.117960
    128          1           0      -16.539764    1.035453   -0.317809
    129          1           0      -15.424853    2.348994   -0.665880
    130          1           0      -14.786689    0.518926    1.561096
    131          1           0      -16.310205    1.384299    1.793989
    132          1           0      -15.280576    3.278629    2.369925
    133          1           0      -14.234088    3.348266    0.939836
    134          1           0      -13.182208    1.326067    2.750708
    135          1           0      -11.974344    3.358454    1.365740
    136          1           0      -11.315774    2.608235    2.776266
    137          1           0      -12.157340    4.191999    2.953951
    138          1           0      -12.897114    2.427366    4.901997
    139          1           0      -14.435043    1.718456    4.405782
    140          1           0      -14.155643    3.490803    4.468984
 ---------------------------------------------------------------------

 SCF Done:  E(RZINDO/S) =  -474.170839528     A.U. after   19 cycles

 Excitation energies and oscillator strengths:

 Excited State   1:      Singlet-A      1.2280 eV 1009.67 nm  f=0.6652  <S**2>=0.000
     175 ->178         0.18880
     176 ->177         0.66265
 This state for optimization and/or second-order correction.
 Total Energy, E(CIS/TDA) =  -474.125712396
 Copying the excited state density for this state as the 1-particle RhoCI density.

 Excited State   2:      Singlet-A      1.8770 eV  660.53 nm  f=0.1265  <S**2>=0.000
     175 ->177         0.59898
     176 ->178        -0.34259

 Excited State   3:      Singlet-A      2.9618 eV  418.61 nm  f=0.3290  <S**2>=0.000
     168 ->177        -0.10317
     168 ->179        -0.16372
     168 ->180        -0.11735
     168 ->186        -0.10302
     169 ->177         0.20915
     169 ->179        -0.19097
     169 ->180         0.13948
     172 ->177         0.16498
     173 ->177         0.16593
     175 ->177         0.19237
     176 ->178         0.39135

 Excited State   4:      Singlet-A      2.9764 eV  416.56 nm  f=0.0586  <S**2>=0.000
     168 ->177         0.26093
     168 ->178        -0.17415
     168 ->179         0.31614
     168 ->180         0.30609
     168 ->181        -0.11784
     168 ->183         0.13589
     168 ->186         0.21601
     168 ->187         0.10652
     169 ->179        -0.12960
     176 ->178         0.16116

 Excited State   5:      Singlet-A      3.0028 eV  412.90 nm  f=0.3204  <S**2>=0.000
     169 ->177        -0.29620
     169 ->179         0.28191
     169 ->180        -0.19840
     169 ->186         0.12296
     169 ->187        -0.10403
     175 ->177         0.19476
     176 ->178         0.36592

 The electronic state is 1-A.
 Alpha  occ. eigenvalues --   -1.84359  -1.80261  -1.79260  -1.72553  -1.71744
 Alpha  occ. eigenvalues --   -1.70136  -1.65856  -1.59576  -1.59147  -1.56798
 Alpha  occ. eigenvalues --   -1.54839  -1.51877  -1.48998  -1.48687  -1.45963
 Alpha  occ. eigenvalues --   -1.44585  -1.43365  -1.41042  -1.39190  -1.38189
 Alpha  occ. eigenvalues --   -1.36542  -1.34590  -1.32331  -1.31416  -1.29217
 Alpha  occ. eigenvalues --   -1.25801  -1.25313  -1.21691  -1.20447  -1.18374
 Alpha  occ. eigenvalues --   -1.17197  -1.16938  -1.15233  -1.14083  -1.13253
 Alpha  occ. eigenvalues --   -1.12901  -1.10820  -1.10062  -1.05113  -1.03626
 Alpha  occ. eigenvalues --   -1.02259  -1.01093  -0.99535  -0.98340  -0.97452
 Alpha  occ. eigenvalues --   -0.96058  -0.94313  -0.93451  -0.92724  -0.91377
 Alpha  occ. eigenvalues --   -0.90581  -0.89817  -0.88398  -0.86986  -0.85890
 Alpha  occ. eigenvalues --   -0.84354  -0.83506  -0.82205  -0.81308  -0.80348
 Alpha  occ. eigenvalues --   -0.80169  -0.78459  -0.77961  -0.76720  -0.76117
 Alpha  occ. eigenvalues --   -0.75717  -0.75306  -0.74880  -0.74738  -0.73644
 Alpha  occ. eigenvalues --   -0.73317  -0.73005  -0.72314  -0.71171  -0.70331
 Alpha  occ. eigenvalues --   -0.70061  -0.69751  -0.68812  -0.68338  -0.67954
 Alpha  occ. eigenvalues --   -0.67600  -0.67233  -0.66259  -0.65946  -0.65446
 Alpha  occ. eigenvalues --   -0.65166  -0.64346  -0.64083  -0.63952  -0.63683
 Alpha  occ. eigenvalues --   -0.63064  -0.62455  -0.62236  -0.62139  -0.61972
 Alpha  occ. eigenvalues --   -0.61187  -0.60916  -0.60488  -0.60111  -0.59681
 Alpha  occ. eigenvalues --   -0.59412  -0.59272  -0.59232  -0.58039  -0.57723
 Alpha  occ. eigenvalues --   -0.57583  -0.57472  -0.56877  -0.56754  -0.56467
 Alpha  occ. eigenvalues --   -0.56070  -0.55460  -0.55376  -0.54715  -0.54377
 Alpha  occ. eigenvalues --   -0.53891  -0.53269  -0.52894  -0.52830  -0.52779
 Alpha  occ. eigenvalues --   -0.52506  -0.52450  -0.52318  -0.52115  -0.52002
 Alpha  occ. eigenvalues --   -0.51459  -0.50812  -0.50768  -0.50593  -0.50360
 Alpha  occ. eigenvalues --   -0.50290  -0.49915  -0.49438  -0.49302  -0.49050
 Alpha  occ. eigenvalues --   -0.48772  -0.48645  -0.48423  -0.47989  -0.47692
 Alpha  occ. eigenvalues --   -0.47642  -0.47447  -0.46766  -0.46586  -0.46337
 Alpha  occ. eigenvalues --   -0.46186  -0.45764  -0.45647  -0.45449  -0.45081
 Alpha  occ. eigenvalues --   -0.44727  -0.44556  -0.44272  -0.43895  -0.43394
 Alpha  occ. eigenvalues --   -0.43286  -0.42789  -0.42418  -0.42208  -0.42111
 Alpha  occ. eigenvalues --   -0.41965  -0.41016  -0.40912  -0.39258  -0.38952
 Alpha  occ. eigenvalues --   -0.38519  -0.37528  -0.35424  -0.34922  -0.34317
 Alpha  occ. eigenvalues --   -0.33147  -0.33033  -0.32645  -0.31453  -0.26445
 Alpha  occ. eigenvalues --   -0.22011
 Alpha virt. eigenvalues --   -0.09020  -0.01638  -0.00513   0.01203   0.01781
 Alpha virt. eigenvalues --    0.01887   0.02969   0.03299   0.04821   0.04941
 Alpha virt. eigenvalues --    0.06562   0.07073   0.07284   0.08042   0.08119

 Mulliken charges:
               1
     1  Mg   0.431990
     2  C   -0.050523
     3  C   -0.098003
     4  C   -0.034126
     5  C   -0.052108
     6  N   -0.288365
     7  C    0.142993
     8  C   -0.001220
     9  C   -0.003533
    10  C    0.128332
    11  C   -0.056864
    12  C   -0.034487
    13  C   -0.009657
    14  C    0.470912
    15  O   -0.510622
    16  O   -0.271415
    17  N   -0.304202
    18  C    0.117016
    19  C    0.003991
    20  C   -0.051530
    21  C    0.115192
    22  C   -0.038127
    23  C    0.327615
    24  O   -0.513373
    25  C   -0.031432
    26  N   -0.288330
    27  C    0.129671
    28  C    0.008921
    29  C   -0.003850
    30  C    0.133692
    31  C   -0.054897
    32  C   -0.022405
    33  C   -0.049944
    34  N   -0.337541
    35  C    0.088441
    36  C    0.043243
    37  C   -0.052387
    38  C    0.135369
    39  C   -0.034329
    40  C    0.318646
    41  O   -0.528361
    42  C    0.047285
    43  C    0.494770
    44  O   -0.536856
    45  O   -0.263935
    46  C    0.070203
    47  C    0.107797
    48  C   -0.087317
    49  C   -0.006998
    50  C   -0.041127
    51  C   -0.024934
    52  C   -0.031637
    53  C   -0.040758
    54  C   -0.028108
    55  C   -0.059087
    56  C   -0.044661
    57  C   -0.048442
    58  C   -0.036694
    59  C   -0.007470
    60  C   -0.066896
    61  C   -0.042046
    62  C   -0.037565
    63  C   -0.039569
    64  C   -0.016774
    65  C   -0.055087
    66  C   -0.054405
    67  H    0.018567
    68  H    0.043220
    69  H    0.023134
    70  H    0.048383
    71  H    0.040213
    72  H    0.022610
    73  H    0.027993
    74  H    0.025675
    75  H    0.030711
    76  H    0.021480
    77  H    0.051966
    78  H    0.048011
    79  H    0.021016
    80  H    0.033355
    81  H    0.024461
    82  H    0.033132
    83  H    0.031980
    84  H    0.041790
    85  H    0.038806
    86  H    0.026181
    87  H    0.025918
    88  H    0.017248
    89  H    0.030229
    90  H    0.012834
    91  H    0.022382
    92  H    0.022622
    93  H    0.017141
    94  H    0.020485
    95  H    0.031249
    96  H    0.035239
    97  H    0.033758
    98  H    0.058120
    99  H    0.036368
   100  H    0.055005
   101  H    0.047740
   102  H    0.057252
   103  H    0.035712
   104  H    0.031696
   105  H    0.027097
   106  H    0.032021
   107  H    0.020483
   108  H    0.017780
   109  H    0.012385
   110  H    0.023785
   111  H    0.022300
   112  H    0.015101
   113  H    0.027106
   114  H    0.012699
   115  H    0.015538
   116  H    0.023756
   117  H    0.031076
   118  H    0.023385
   119  H    0.010221
   120  H    0.028218
   121  H    0.013633
   122  H    0.038119
   123  H    0.018000
   124  H    0.026624
   125  H    0.019063
   126  H    0.016082
   127  H    0.027149
   128  H    0.010810
   129  H    0.019767
   130  H    0.021540
   131  H    0.018492
   132  H    0.015509
   133  H    0.028765
   134  H    0.020513
   135  H    0.015678
   136  H    0.013078
   137  H    0.026640
   138  H    0.014977
   139  H    0.011141
   140  H    0.013715
 Sum of Mulliken charges =  -0.00000

 Dipole moment (field-independent basis, Debye):
    X=             -2.8442    Y=              2.5986    Z=              0.3723  Tot=              3.8705
 N-N= 4.229317483835D+03 E-N= 0.000000000000D+00  KE=-9.133144808825D+03
 Leave Link  601 at Fri Apr 29 01:15:15 2022, MaxMem=  6710886400 cpu:               0.8 elap:               0.0
 (Enter /sw/apps/gaussian-16.0/g16/l9999.exe)
 1\1\GINC-BP1-COMPUTE166\SP\RZINDO CIS\STO-3G\C55H74Mg1N4O6\OF15641\29-
 Apr-2022\0\\#p ZINDO=(nstates=5)\\step_1801_chromophore_16 ZINDO\\0,1\
 Mg,0,40.457,40.665,27.146\C,0,39.802,43.033,29.593\C,0,41.793,38.656,2
 9.549\C,0,41.524,38.688,24.637\C,0,39.824,43.187,24.698\N,0,40.798,40.
 849,29.353\C,0,40.363,41.877,30.101\C,0,40.639,41.641,31.625\C,0,41.20
 3,40.137,31.612\C,0,41.367,39.855,30.087\C,0,42.473,40.069,32.45\C,0,3
 9.4,41.641,32.497\C,0,39.288,42.71,33.617\C,0,38.413,42.379,34.826\O,0

 Normal termination of Gaussian 16 at Fri Apr 29 01:15:15 2022.
