 Gaussian 16, Revision A.03,
 Gaussian 16:  ES64L-G16RevA.03 25-Dec-2016

 ------------------------------
 #p blyp/Def2SVP td=(nstates=5)
 ------------------------------

 --------------------------------------------------
 step_1451_chromophore_9 TDDFT with blyp functional
 --------------------------------------------------
 Symbolic Z-matrix:
 Charge =  0 Multiplicity = 1

                         Standard orientation:
 ---------------------------------------------------------------------
 Center     Atomic      Atomic             Coordinates (Angstroms)
 Number     Number       Type             X           Y           Z
 ---------------------------------------------------------------------
      1         12           0       -5.040532    0.856861   -0.242145
      2          6           0       -3.981393   -2.505501    0.005799
      3          6           0       -1.667619    1.804063   -0.095220
      4          6           0       -6.038058    3.967310   -0.056098
      5          6           0       -8.321262   -0.371666    0.307632
      6          7           0       -3.032122   -0.287600   -0.056235
      7          6           0       -2.902147   -1.619797   -0.156969
      8          6           0       -1.366593   -1.984863   -0.250665
      9          6           0       -0.710247   -0.626553   -0.092047
     10          6           0       -1.862603    0.383851   -0.043413
     11          6           0        0.241116   -0.535250    1.141942
     12          6           0       -1.116050   -2.609510   -1.760499
     13          6           0       -0.125699   -3.782254   -1.779261
     14          6           0        1.008816   -3.753749   -0.756402
     15          8           0        1.059392   -4.497077    0.241330
     16          8           0        1.932336   -2.788250   -1.065548
     17          7           0       -3.983601    2.636214   -0.082163
     18          6           0       -2.642097    2.846191   -0.048355
     19          6           0       -2.369574    4.275807   -0.150563
     20          6           0       -3.580200    4.949851   -0.006204
     21          6           0       -4.597906    3.860867   -0.068015
     22          6           0       -1.045293    4.819069   -0.461794
     23          6           0       -3.882058    6.445532    0.135438
     24          8           0       -5.012661    6.888186    0.386400
     25          6           0       -2.796716    7.404114   -0.029453
     26          7           0       -6.937047    1.664273    0.055780
     27          6           0       -7.064595    3.030953    0.080633
     28          6           0       -8.470863    3.461304    0.306207
     29          6           0       -9.278333    2.086107    0.214057
     30          6           0       -8.151207    1.029465    0.193893
     31          6           0       -8.787818    4.452792    1.462379
     32          6           0      -10.365675    1.990518   -0.914516
     33          6           0       -9.852735    1.364843   -2.239461
     34          7           0       -6.029896   -0.972345    0.006049
     35          6           0       -7.295199   -1.307258    0.326119
     36          6           0       -7.459330   -2.796026    0.461647
     37          6           0       -6.150511   -3.261849    0.281673
     38          6           0       -5.360645   -2.140304    0.012965
     39          6           0       -8.794709   -3.522353    0.588134
     40          6           0       -5.347380   -4.474048    0.322912
     41          8           0       -5.635193   -5.618501    0.505260
     42          6           0       -3.898719   -4.028888    0.038342
     43          6           0       -3.124459   -4.464782    1.236968
     44          8           0       -3.110922   -3.784927    2.272060
     45          8           0       -2.431252   -5.572346    1.030285
     46          6           0       -1.757681   -6.158019    2.126036
     47          6           0        3.085238   -2.815115   -0.207191
     48          6           0        4.075363   -1.889723   -0.779146
     49          6           0        5.086314   -2.221579   -1.586130
     50          6           0        5.340613   -3.615819   -2.178059
     51          6           0        6.061645   -1.110849   -2.077036
     52          6           0        7.236884   -0.695086   -1.184581
     53          6           0        8.588873   -1.142485   -1.755530
     54          6           0        9.255566   -0.198915   -2.773803
     55          6           0        9.316709   -0.731734   -4.250707
     56          6           0       10.598053    0.295385   -2.248233
     57          6           0       10.627725    1.870705   -2.251737
     58          6           0       11.655111    2.416415   -1.292783
     59          6           0       11.019569    2.975341    0.037377
     60          6           0       11.001447    4.470359    0.119267
     61          6           0       11.704106    2.340919    1.305088
     62          6           0       10.950543    1.051169    1.690464
     63          6           0        9.882940    1.293077    2.827788
     64          6           0       10.138850    0.455032    4.198408
     65          6           0       11.603996    0.669161    4.834277
     66          6           0        9.834121   -1.047795    3.969116
     67          1           0       -0.588176    1.967524   -0.081380
     68          1           0       -6.273925    5.030863   -0.140900
     69          1           0       -9.298316   -0.791884    0.555170
     70          1           0       -1.137413   -2.583986    0.630796
     71          1           0       -0.093883   -0.336654   -0.943413
     72          1           0        1.264518   -0.226850    0.929428
     73          1           0        0.385010   -1.452350    1.713659
     74          1           0       -0.132737    0.193480    1.861791
     75          1           0       -0.564424   -1.917189   -2.396376
     76          1           0       -2.017718   -2.844018   -2.326467
     77          1           0        0.370231   -3.832858   -2.749128
     78          1           0       -0.720454   -4.686541   -1.652874
     79          1           0       -0.376370    3.959843   -0.505216
     80          1           0       -0.604076    5.538760    0.227601
     81          1           0       -0.989592    5.223510   -1.471754
     82          1           0       -2.313920    7.434711    0.948203
     83          1           0       -3.413654    8.273235   -0.256843
     84          1           0       -2.168161    7.227452   -0.902115
     85          1           0       -8.691493    3.933558   -0.651071
     86          1           0       -9.843285    1.960405    1.138351
     87          1           0       -9.186793    5.380521    1.051178
     88          1           0       -7.828503    4.653072    1.939717
     89          1           0       -9.475717    4.075978    2.219377
     90          1           0      -10.648367    3.026300   -1.098424
     91          1           0      -11.292554    1.496821   -0.625202
     92          1           0      -10.418861    0.479808   -2.529680
     93          1           0       -8.797200    1.102114   -2.171016
     94          1           0       -9.983532    2.053406   -3.074324
     95          1           0       -8.649990   -4.566552    0.314458
     96          1           0       -9.643929   -3.127544    0.029983
     97          1           0       -9.070812   -3.467639    1.641570
     98          1           0       -3.408601   -4.551230   -0.784205
     99          1           0       -1.897587   -7.238970    2.104195
    100          1           0       -2.079355   -5.897581    3.134354
    101          1           0       -0.701818   -5.888080    2.122117
    102          1           0        3.628183   -3.757239   -0.136823
    103          1           0        2.936153   -2.522507    0.832416
    104          1           0        4.078550   -0.841167   -0.484289
    105          1           0        6.429391   -3.641370   -2.235383
    106          1           0        4.887451   -3.714362   -3.163794
    107          1           0        4.989225   -4.419806   -1.530669
    108          1           0        5.646252   -0.117853   -2.247746
    109          1           0        6.418580   -1.449698   -3.048893
    110          1           0        7.103350   -1.254926   -0.259274
    111          1           0        7.332958    0.382993   -1.057002
    112          1           0        8.460619   -2.149605   -2.153321
    113          1           0        9.180201   -1.268887   -0.848725
    114          1           0        8.526104    0.598218   -2.918913
    115          1           0        9.781614    0.000336   -4.911912
    116          1           0        8.307458   -0.826261   -4.650458
    117          1           0        9.836612   -1.685236   -4.346918
    118          1           0       11.397567   -0.021594   -2.918388
    119          1           0       10.848866    0.007838   -1.226781
    120          1           0        9.624695    2.296958   -2.237088
    121          1           0       11.024530    2.121841   -3.235621
    122          1           0       12.128261    3.200564   -1.883946
    123          1           0       12.279232    1.550179   -1.071483
    124          1           0        9.957952    2.732864    0.017470
    125          1           0       11.611933    4.906228    0.910464
    126          1           0       10.026494    4.943899    0.226887
    127          1           0       11.383420    4.746416   -0.863241
    128          1           0       11.551759    3.094213    2.078795
    129          1           0       12.723701    1.984928    1.157866
    130          1           0       11.697832    0.287861    1.905640
    131          1           0       10.460683    0.756714    0.762387
    132          1           0        8.882529    0.994473    2.514689
    133          1           0        9.845374    2.348368    3.096979
    134          1           0        9.314393    0.747555    4.850050
    135          1           0       12.380897    1.015817    4.153359
    136          1           0       12.011090   -0.166396    5.402683
    137          1           0       11.565998    1.499910    5.538658
    138          1           0        9.548247   -1.229579    2.933035
    139          1           0        8.962183   -1.176606    4.610937
    140          1           0       10.583196   -1.749928    4.336092
 ---------------------------------------------------------------------

 SCF Done:  E(RB-LYP) =  -3007.37361451     A.U. after   21 cycles

 Excitation energies and oscillator strengths:

 Excited State   1:      Singlet-A      1.8260 eV  678.98 nm  f=0.3026  <S**2>=0.000
     245 -> 248        0.19382
     246 -> 247        0.68441
     246 <- 247       -0.14300
 This state for optimization and/or second-order correction.
 Total Energy, E(TD-HF/TD-DFT) =  -3007.30650897
 Copying the excited state density for this state as the 1-particle RhoCI density.

 Excited State   2:      Singlet-A      2.0321 eV  610.13 nm  f=0.0585  <S**2>=0.000
     243 -> 247        0.11468
     245 -> 247        0.63653
     246 -> 248       -0.24282
     246 -> 249        0.12091

 Excited State   3:      Singlet-A      2.2340 eV  554.99 nm  f=0.0002  <S**2>=0.000
     244 -> 247        0.70557

 Excited State   4:      Singlet-A      2.2483 eV  551.46 nm  f=0.0019  <S**2>=0.000
     243 -> 247        0.69446

 Excited State   5:      Singlet-A      2.6696 eV  464.43 nm  f=0.0384  <S**2>=0.000
     241 -> 247        0.34012
     245 -> 247        0.10063
     246 -> 248        0.45402
     246 -> 249        0.35670

 The electronic state is 1-A.
 Alpha  occ. eigenvalues --  -46.27312 -18.83695 -18.82641 -18.77669 -18.75838
 Alpha  occ. eigenvalues --  -18.75619 -18.75182 -14.02709 -14.02689 -14.01126
 Alpha  occ. eigenvalues --  -14.00792 -10.04897 -10.03113  -9.99824  -9.99510
 Alpha  occ. eigenvalues --   -9.97804  -9.96519  -9.96385  -9.96045  -9.95977
 Alpha  occ. eigenvalues --   -9.95938  -9.95727  -9.95585  -9.94956  -9.94289
 Alpha  occ. eigenvalues --   -9.94267  -9.94225  -9.93733  -9.93684  -9.93658
 Alpha  occ. eigenvalues --   -9.93460  -9.93399  -9.93358  -9.93312  -9.93195
 Alpha  occ. eigenvalues --   -9.93112  -9.93059  -9.93034  -9.92934  -9.92622
 Alpha  occ. eigenvalues --   -9.92585  -9.92471  -9.92427  -9.92251  -9.92123
 Alpha  occ. eigenvalues --   -9.92090  -9.91894  -9.91865  -9.91838  -9.91744
 Alpha  occ. eigenvalues --   -9.91743  -9.91638  -9.91605  -9.91568  -9.91429
 Alpha  occ. eigenvalues --   -9.91305  -9.91233  -9.91227  -9.91158  -9.91136
 Alpha  occ. eigenvalues --   -9.91052  -9.90965  -9.90919  -9.90830  -9.90612
 Alpha  occ. eigenvalues --   -9.90370  -2.91896  -1.72323  -1.71778  -1.71605
 Alpha  occ. eigenvalues --   -0.99306  -0.98969  -0.93018  -0.91001  -0.90122
 Alpha  occ. eigenvalues --   -0.88918  -0.86740  -0.85844  -0.85400  -0.84623
 Alpha  occ. eigenvalues --   -0.75404  -0.74197  -0.73416  -0.72490  -0.71914
 Alpha  occ. eigenvalues --   -0.71546  -0.71020  -0.70723  -0.70443  -0.70232
 Alpha  occ. eigenvalues --   -0.69402  -0.69252  -0.68497  -0.67723  -0.66967
 Alpha  occ. eigenvalues --   -0.66594  -0.66126  -0.65568  -0.65183  -0.64650
 Alpha  occ. eigenvalues --   -0.64239  -0.62466  -0.61830  -0.61385  -0.61068
 Alpha  occ. eigenvalues --   -0.60743  -0.60043  -0.59752  -0.59616  -0.58961
 Alpha  occ. eigenvalues --   -0.58410  -0.57353  -0.56517  -0.55812  -0.54931
 Alpha  occ. eigenvalues --   -0.53804  -0.53683  -0.52652  -0.52484  -0.51433
 Alpha  occ. eigenvalues --   -0.51253  -0.51032  -0.50597  -0.50395  -0.50075
 Alpha  occ. eigenvalues --   -0.50048  -0.49126  -0.48884  -0.47801  -0.46490
 Alpha  occ. eigenvalues --   -0.46102  -0.45754  -0.45340  -0.44730  -0.44070
 Alpha  occ. eigenvalues --   -0.43938  -0.43681  -0.42977  -0.42659  -0.42468
 Alpha  occ. eigenvalues --   -0.42329  -0.42069  -0.41902  -0.41481  -0.41093
 Alpha  occ. eigenvalues --   -0.40925  -0.40820  -0.40749  -0.40492  -0.39977
 Alpha  occ. eigenvalues --   -0.39878  -0.39788  -0.39532  -0.39428  -0.39323
 Alpha  occ. eigenvalues --   -0.38955  -0.38892  -0.38644  -0.38303  -0.38206
 Alpha  occ. eigenvalues --   -0.38054  -0.37913  -0.37455  -0.37359  -0.37168
 Alpha  occ. eigenvalues --   -0.36980  -0.36839  -0.36522  -0.36466  -0.36349
 Alpha  occ. eigenvalues --   -0.36294  -0.36019  -0.35888  -0.35754  -0.35396
 Alpha  occ. eigenvalues --   -0.35146  -0.34906  -0.34820  -0.34799  -0.34532
 Alpha  occ. eigenvalues --   -0.34421  -0.34276  -0.34245  -0.33997  -0.33753
 Alpha  occ. eigenvalues --   -0.33568  -0.33223  -0.33130  -0.33082  -0.33061
 Alpha  occ. eigenvalues --   -0.32900  -0.32526  -0.32360  -0.32278  -0.32250
 Alpha  occ. eigenvalues --   -0.32070  -0.31976  -0.31929  -0.31772  -0.31578
 Alpha  occ. eigenvalues --   -0.31300  -0.31084  -0.30885  -0.30735  -0.30589
 Alpha  occ. eigenvalues --   -0.30379  -0.30199  -0.29988  -0.29914  -0.29658
 Alpha  occ. eigenvalues --   -0.29426  -0.29392  -0.28997  -0.28868  -0.28739
 Alpha  occ. eigenvalues --   -0.28517  -0.28408  -0.28342  -0.27941  -0.27708
 Alpha  occ. eigenvalues --   -0.27252  -0.27097  -0.26909  -0.26803  -0.26622
 Alpha  occ. eigenvalues --   -0.26329  -0.26106  -0.26009  -0.25740  -0.25590
 Alpha  occ. eigenvalues --   -0.24856  -0.24531  -0.24398  -0.23829  -0.23514
 Alpha  occ. eigenvalues --   -0.23142  -0.22789  -0.21536  -0.20995  -0.20898
 Alpha  occ. eigenvalues --   -0.20622  -0.20525  -0.18965  -0.18932  -0.16747
 Alpha  occ. eigenvalues --   -0.15214
 Alpha virt. eigenvalues --   -0.10823  -0.06712  -0.05835  -0.04660  -0.04064
 Alpha virt. eigenvalues --   -0.02947  -0.02567  -0.01503  -0.00696   0.00267
 Alpha virt. eigenvalues --    0.01506   0.01656   0.02029   0.02559   0.02700

 Mulliken charges:
               1
     1  Mg   0.703335
     2  C    0.031609
     3  C   -0.057059
     4  C   -0.036623
     5  C   -0.074256
     6  N   -0.164883
     7  C   -0.113650
     8  C    0.031845
     9  C    0.005159
    10  C   -0.045791
    11  C    0.091011
    12  C    0.095916
    13  C    0.148038
    14  C    0.091425
    15  O   -0.213796
    16  O   -0.254504
    17  N   -0.275772
    18  C    0.162464
    19  C   -0.146475
    20  C    0.069113
    21  C    0.021698
    22  C    0.174616
    23  C   -0.098689
    24  O   -0.181675
    25  C    0.149116
    26  N   -0.254226
    27  C    0.048487
    28  C    0.041586
    29  C    0.030822
    30  C    0.035201
    31  C    0.152464
    32  C    0.086269
    33  C    0.050854
    34  N   -0.225089
    35  C    0.077551
    36  C   -0.191420
    37  C    0.065197
    38  C    0.107799
    39  C    0.168752
    40  C   -0.046950
    41  O   -0.094169
    42  C    0.068634
    43  C    0.068696
    44  O   -0.212032
    45  O   -0.199956
    46  C    0.208577
    47  C    0.355535
    48  C   -0.111020
    49  C   -0.157424
    50  C    0.151561
    51  C    0.116271
    52  C    0.068761
    53  C    0.082176
    54  C   -0.034199
    55  C    0.081359
    56  C    0.112631
    57  C    0.003119
    58  C    0.145494
    59  C   -0.088416
    60  C    0.121841
    61  C    0.106454
    62  C    0.045461
    63  C    0.076587
    64  C   -0.073676
    65  C    0.081231
    66  C    0.094959
    67  H   -0.059367
    68  H   -0.047661
    69  H   -0.065219
    70  H    0.022001
    71  H   -0.021211
    72  H   -0.015730
    73  H    0.000701
    74  H   -0.010029
    75  H   -0.017069
    76  H   -0.001927
    77  H   -0.009673
    78  H   -0.004955
    79  H   -0.038104
    80  H    0.001292
    81  H    0.004463
    82  H    0.025568
    83  H   -0.004945
    84  H    0.002661
    85  H   -0.024708
    86  H   -0.036724
    87  H   -0.003368
    88  H    0.004050
    89  H   -0.008549
    90  H   -0.025690
    91  H   -0.022973
    92  H   -0.011752
    93  H    0.012990
    94  H   -0.016339
    95  H    0.007564
    96  H    0.001214
    97  H    0.001249
    98  H   -0.008695
    99  H    0.009690
   100  H    0.005561
   101  H    0.021614
   102  H   -0.018184
   103  H   -0.009538
   104  H   -0.047563
   105  H   -0.005506
   106  H    0.017845
   107  H   -0.008393
   108  H   -0.031253
   109  H   -0.035396
   110  H   -0.030361
   111  H   -0.021627
   112  H   -0.045854
   113  H   -0.037241
   114  H   -0.039456
   115  H   -0.020324
   116  H   -0.018349
   117  H   -0.008877
   118  H   -0.033132
   119  H   -0.020890
   120  H   -0.025739
   121  H   -0.044317
   122  H   -0.030193
   123  H   -0.034349
   124  H   -0.035673
   125  H   -0.016008
   126  H   -0.021388
   127  H   -0.037237
   128  H   -0.032621
   129  H   -0.026855
   130  H   -0.028177
   131  H   -0.018406
   132  H   -0.031304
   133  H   -0.026351
   134  H   -0.031138
   135  H   -0.008054
   136  H   -0.011190
   137  H   -0.023939
   138  H   -0.009337
   139  H   -0.023288
   140  H   -0.014190
 Sum of Mulliken charges =  -0.00000

 Dipole moment (field-independent basis, Debye):
    X=              3.8030    Y=              1.8309    Z=             -3.9126  Tot=              5.7553
 Quadrupole moment (field-independent basis, Debye-Ang):
   XX=           -379.0432   YY=           -435.4436   ZZ=           -401.7103
   XY=             -8.5074   XZ=              6.4275   YZ=              2.9370

 Normal termination of Gaussian 16 at Thu Apr 28 07:30:44 2022.
