 Gaussian 16, Revision A.03,
 Gaussian 16:  ES64L-G16RevA.03 25-Dec-2016

 -----------------------------------
 #p cam-b3lyp/Def2SVP td=(nstates=5)
 -----------------------------------

 -------------------------------------------------------
 step_1451_chromophore_9 TDDFT with cam-b3lyp functional
 -------------------------------------------------------
 Symbolic Z-matrix:
 Charge =  0 Multiplicity = 1

                         Standard orientation:
 ---------------------------------------------------------------------
 Center     Atomic      Atomic             Coordinates (Angstroms)
 Number     Number       Type             X           Y           Z
 ---------------------------------------------------------------------
      1         12           0       -5.040532    0.856861   -0.242145
      2          6           0       -3.981393   -2.505501    0.005799
      3          6           0       -1.667619    1.804063   -0.095220
      4          6           0       -6.038058    3.967310   -0.056098
      5          6           0       -8.321262   -0.371666    0.307632
      6          7           0       -3.032122   -0.287600   -0.056235
      7          6           0       -2.902147   -1.619797   -0.156969
      8          6           0       -1.366593   -1.984863   -0.250665
      9          6           0       -0.710247   -0.626553   -0.092047
     10          6           0       -1.862603    0.383851   -0.043413
     11          6           0        0.241116   -0.535250    1.141942
     12          6           0       -1.116050   -2.609510   -1.760499
     13          6           0       -0.125699   -3.782254   -1.779261
     14          6           0        1.008816   -3.753749   -0.756402
     15          8           0        1.059392   -4.497077    0.241330
     16          8           0        1.932336   -2.788250   -1.065548
     17          7           0       -3.983601    2.636214   -0.082163
     18          6           0       -2.642097    2.846191   -0.048355
     19          6           0       -2.369574    4.275807   -0.150563
     20          6           0       -3.580200    4.949851   -0.006204
     21          6           0       -4.597906    3.860867   -0.068015
     22          6           0       -1.045293    4.819069   -0.461794
     23          6           0       -3.882058    6.445532    0.135438
     24          8           0       -5.012661    6.888186    0.386400
     25          6           0       -2.796716    7.404114   -0.029453
     26          7           0       -6.937047    1.664273    0.055780
     27          6           0       -7.064595    3.030953    0.080633
     28          6           0       -8.470863    3.461304    0.306207
     29          6           0       -9.278333    2.086107    0.214057
     30          6           0       -8.151207    1.029465    0.193893
     31          6           0       -8.787818    4.452792    1.462379
     32          6           0      -10.365675    1.990518   -0.914516
     33          6           0       -9.852735    1.364843   -2.239461
     34          7           0       -6.029896   -0.972345    0.006049
     35          6           0       -7.295199   -1.307258    0.326119
     36          6           0       -7.459330   -2.796026    0.461647
     37          6           0       -6.150511   -3.261849    0.281673
     38          6           0       -5.360645   -2.140304    0.012965
     39          6           0       -8.794709   -3.522353    0.588134
     40          6           0       -5.347380   -4.474048    0.322912
     41          8           0       -5.635193   -5.618501    0.505260
     42          6           0       -3.898719   -4.028888    0.038342
     43          6           0       -3.124459   -4.464782    1.236968
     44          8           0       -3.110922   -3.784927    2.272060
     45          8           0       -2.431252   -5.572346    1.030285
     46          6           0       -1.757681   -6.158019    2.126036
     47          6           0        3.085238   -2.815115   -0.207191
     48          6           0        4.075363   -1.889723   -0.779146
     49          6           0        5.086314   -2.221579   -1.586130
     50          6           0        5.340613   -3.615819   -2.178059
     51          6           0        6.061645   -1.110849   -2.077036
     52          6           0        7.236884   -0.695086   -1.184581
     53          6           0        8.588873   -1.142485   -1.755530
     54          6           0        9.255566   -0.198915   -2.773803
     55          6           0        9.316709   -0.731734   -4.250707
     56          6           0       10.598053    0.295385   -2.248233
     57          6           0       10.627725    1.870705   -2.251737
     58          6           0       11.655111    2.416415   -1.292783
     59          6           0       11.019569    2.975341    0.037377
     60          6           0       11.001447    4.470359    0.119267
     61          6           0       11.704106    2.340919    1.305088
     62          6           0       10.950543    1.051169    1.690464
     63          6           0        9.882940    1.293077    2.827788
     64          6           0       10.138850    0.455032    4.198408
     65          6           0       11.603996    0.669161    4.834277
     66          6           0        9.834121   -1.047795    3.969116
     67          1           0       -0.588176    1.967524   -0.081380
     68          1           0       -6.273925    5.030863   -0.140900
     69          1           0       -9.298316   -0.791884    0.555170
     70          1           0       -1.137413   -2.583986    0.630796
     71          1           0       -0.093883   -0.336654   -0.943413
     72          1           0        1.264518   -0.226850    0.929428
     73          1           0        0.385010   -1.452350    1.713659
     74          1           0       -0.132737    0.193480    1.861791
     75          1           0       -0.564424   -1.917189   -2.396376
     76          1           0       -2.017718   -2.844018   -2.326467
     77          1           0        0.370231   -3.832858   -2.749128
     78          1           0       -0.720454   -4.686541   -1.652874
     79          1           0       -0.376370    3.959843   -0.505216
     80          1           0       -0.604076    5.538760    0.227601
     81          1           0       -0.989592    5.223510   -1.471754
     82          1           0       -2.313920    7.434711    0.948203
     83          1           0       -3.413654    8.273235   -0.256843
     84          1           0       -2.168161    7.227452   -0.902115
     85          1           0       -8.691493    3.933558   -0.651071
     86          1           0       -9.843285    1.960405    1.138351
     87          1           0       -9.186793    5.380521    1.051178
     88          1           0       -7.828503    4.653072    1.939717
     89          1           0       -9.475717    4.075978    2.219377
     90          1           0      -10.648367    3.026300   -1.098424
     91          1           0      -11.292554    1.496821   -0.625202
     92          1           0      -10.418861    0.479808   -2.529680
     93          1           0       -8.797200    1.102114   -2.171016
     94          1           0       -9.983532    2.053406   -3.074324
     95          1           0       -8.649990   -4.566552    0.314458
     96          1           0       -9.643929   -3.127544    0.029983
     97          1           0       -9.070812   -3.467639    1.641570
     98          1           0       -3.408601   -4.551230   -0.784205
     99          1           0       -1.897587   -7.238970    2.104195
    100          1           0       -2.079355   -5.897581    3.134354
    101          1           0       -0.701818   -5.888080    2.122117
    102          1           0        3.628183   -3.757239   -0.136823
    103          1           0        2.936153   -2.522507    0.832416
    104          1           0        4.078550   -0.841167   -0.484289
    105          1           0        6.429391   -3.641370   -2.235383
    106          1           0        4.887451   -3.714362   -3.163794
    107          1           0        4.989225   -4.419806   -1.530669
    108          1           0        5.646252   -0.117853   -2.247746
    109          1           0        6.418580   -1.449698   -3.048893
    110          1           0        7.103350   -1.254926   -0.259274
    111          1           0        7.332958    0.382993   -1.057002
    112          1           0        8.460619   -2.149605   -2.153321
    113          1           0        9.180201   -1.268887   -0.848725
    114          1           0        8.526104    0.598218   -2.918913
    115          1           0        9.781614    0.000336   -4.911912
    116          1           0        8.307458   -0.826261   -4.650458
    117          1           0        9.836612   -1.685236   -4.346918
    118          1           0       11.397567   -0.021594   -2.918388
    119          1           0       10.848866    0.007838   -1.226781
    120          1           0        9.624695    2.296958   -2.237088
    121          1           0       11.024530    2.121841   -3.235621
    122          1           0       12.128261    3.200564   -1.883946
    123          1           0       12.279232    1.550179   -1.071483
    124          1           0        9.957952    2.732864    0.017470
    125          1           0       11.611933    4.906228    0.910464
    126          1           0       10.026494    4.943899    0.226887
    127          1           0       11.383420    4.746416   -0.863241
    128          1           0       11.551759    3.094213    2.078795
    129          1           0       12.723701    1.984928    1.157866
    130          1           0       11.697832    0.287861    1.905640
    131          1           0       10.460683    0.756714    0.762387
    132          1           0        8.882529    0.994473    2.514689
    133          1           0        9.845374    2.348368    3.096979
    134          1           0        9.314393    0.747555    4.850050
    135          1           0       12.380897    1.015817    4.153359
    136          1           0       12.011090   -0.166396    5.402683
    137          1           0       11.565998    1.499910    5.538658
    138          1           0        9.548247   -1.229579    2.933035
    139          1           0        8.962183   -1.176606    4.610937
    140          1           0       10.583196   -1.749928    4.336092
 ---------------------------------------------------------------------

 SCF Done:  E(RCAM-B3LYP) =  -3007.17278670     A.U. after   17 cycles

 Excitation energies and oscillator strengths:

 Excited State   1:      Singlet-A      1.7291 eV  717.04 nm  f=0.3783  <S**2>=0.000
     245 -> 248        0.19379
     246 -> 247        0.68111
     245 <- 248        0.10941
 This state for optimization and/or second-order correction.
 Total Energy, E(TD-HF/TD-DFT) =  -3007.10924296
 Copying the excited state density for this state as the 1-particle RhoCI density.

 Excited State   2:      Singlet-A      2.2659 eV  547.18 nm  f=0.0784  <S**2>=0.000
     245 -> 247        0.62069
     246 -> 248       -0.32830

 Excited State   3:      Singlet-A      3.4667 eV  357.64 nm  f=0.7550  <S**2>=0.000
     245 -> 247        0.32068
     246 -> 248        0.61537
     245 <- 247       -0.11230

 Excited State   4:      Singlet-A      3.7100 eV  334.19 nm  f=0.0173  <S**2>=0.000
     243 -> 247       -0.15501
     244 -> 247        0.66729

 Excited State   5:      Singlet-A      3.7622 eV  329.55 nm  f=0.0046  <S**2>=0.000
     240 -> 247        0.48829
     240 -> 249       -0.29832
     240 -> 250        0.22525
     241 -> 247        0.13055
     243 -> 247       -0.22281

 The electronic state is 1-A.
 Alpha  occ. eigenvalues --  -46.88845 -19.26639 -19.25587 -19.20631 -19.19211
 Alpha  occ. eigenvalues --  -19.18845 -19.18215 -14.41600 -14.41400 -14.39590
 Alpha  occ. eigenvalues --  -14.39222 -10.40242 -10.38503 -10.35062 -10.34872
 Alpha  occ. eigenvalues --  -10.31867 -10.30830 -10.30432 -10.30406 -10.30385
 Alpha  occ. eigenvalues --  -10.30296 -10.30169 -10.29810 -10.29239 -10.28585
 Alpha  occ. eigenvalues --  -10.28408 -10.28256 -10.28211 -10.27926 -10.27843
 Alpha  occ. eigenvalues --  -10.27670 -10.27648 -10.27591 -10.27355 -10.27304
 Alpha  occ. eigenvalues --  -10.27303 -10.26911 -10.26781 -10.26769 -10.26724
 Alpha  occ. eigenvalues --  -10.26518 -10.26269 -10.26218 -10.26060 -10.26007
 Alpha  occ. eigenvalues --  -10.25845 -10.25775 -10.25657 -10.25518 -10.25518
 Alpha  occ. eigenvalues --  -10.25439 -10.25429 -10.25364 -10.25340 -10.25227
 Alpha  occ. eigenvalues --  -10.25030 -10.25001 -10.24875 -10.24867 -10.24813
 Alpha  occ. eigenvalues --  -10.24775 -10.24732 -10.24657 -10.24586 -10.24203
 Alpha  occ. eigenvalues --  -10.23941  -3.17330  -1.92234  -1.91781  -1.91631
 Alpha  occ. eigenvalues --   -1.17847  -1.17401  -1.11649  -1.09409  -1.07997
 Alpha  occ. eigenvalues --   -1.06916  -1.04448  -1.03485  -1.02984  -1.02102
 Alpha  occ. eigenvalues --   -0.92619  -0.91108  -0.90247  -0.89223  -0.88611
 Alpha  occ. eigenvalues --   -0.88301  -0.87512  -0.87375  -0.86979  -0.86782
 Alpha  occ. eigenvalues --   -0.85887  -0.85656  -0.84812  -0.83871  -0.83159
 Alpha  occ. eigenvalues --   -0.82781  -0.82186  -0.81427  -0.81012  -0.80486
 Alpha  occ. eigenvalues --   -0.80088  -0.78214  -0.77413  -0.76878  -0.76488
 Alpha  occ. eigenvalues --   -0.76146  -0.75393  -0.74999  -0.74871  -0.74204
 Alpha  occ. eigenvalues --   -0.73464  -0.72346  -0.71410  -0.70639  -0.69532
 Alpha  occ. eigenvalues --   -0.68462  -0.68282  -0.67085  -0.66936  -0.65593
 Alpha  occ. eigenvalues --   -0.65478  -0.64939  -0.64555  -0.64268  -0.64114
 Alpha  occ. eigenvalues --   -0.64099  -0.63067  -0.62624  -0.61575  -0.60118
 Alpha  occ. eigenvalues --   -0.59667  -0.59371  -0.58930  -0.58136  -0.57596
 Alpha  occ. eigenvalues --   -0.57335  -0.57166  -0.56209  -0.55927  -0.55656
 Alpha  occ. eigenvalues --   -0.55498  -0.54982  -0.54811  -0.54792  -0.54289
 Alpha  occ. eigenvalues --   -0.53724  -0.53567  -0.53556  -0.53173  -0.52956
 Alpha  occ. eigenvalues --   -0.52744  -0.52510  -0.52239  -0.52057  -0.51737
 Alpha  occ. eigenvalues --   -0.51564  -0.51327  -0.51090  -0.50964  -0.50488
 Alpha  occ. eigenvalues --   -0.50412  -0.50088  -0.49868  -0.49698  -0.49525
 Alpha  occ. eigenvalues --   -0.49287  -0.49101  -0.49074  -0.48925  -0.48665
 Alpha  occ. eigenvalues --   -0.48384  -0.48320  -0.48107  -0.48034  -0.47722
 Alpha  occ. eigenvalues --   -0.47309  -0.47058  -0.46820  -0.46640  -0.46591
 Alpha  occ. eigenvalues --   -0.46436  -0.46123  -0.45989  -0.45880  -0.45669
 Alpha  occ. eigenvalues --   -0.45260  -0.45001  -0.44924  -0.44767  -0.44696
 Alpha  occ. eigenvalues --   -0.44644  -0.44344  -0.44285  -0.43949  -0.43881
 Alpha  occ. eigenvalues --   -0.43749  -0.43568  -0.43550  -0.43353  -0.43137
 Alpha  occ. eigenvalues --   -0.42770  -0.42554  -0.42483  -0.42141  -0.41923
 Alpha  occ. eigenvalues --   -0.41778  -0.41679  -0.41235  -0.41170  -0.41048
 Alpha  occ. eigenvalues --   -0.40805  -0.40722  -0.40518  -0.40069  -0.39722
 Alpha  occ. eigenvalues --   -0.39474  -0.39341  -0.39282  -0.38816  -0.38701
 Alpha  occ. eigenvalues --   -0.38162  -0.37861  -0.37852  -0.37694  -0.37605
 Alpha  occ. eigenvalues --   -0.37463  -0.37005  -0.36698  -0.36297  -0.36232
 Alpha  occ. eigenvalues --   -0.35972  -0.35746  -0.34948  -0.34644  -0.34233
 Alpha  occ. eigenvalues --   -0.34086  -0.33109  -0.32835  -0.31503  -0.31056
 Alpha  occ. eigenvalues --   -0.30993  -0.30611  -0.30207  -0.29848  -0.23447
 Alpha  occ. eigenvalues --   -0.20394
 Alpha virt. eigenvalues --   -0.07786  -0.01477   0.00591   0.02272   0.02418
 Alpha virt. eigenvalues --    0.03859   0.04366   0.06162   0.06689   0.07063
 Alpha virt. eigenvalues --    0.07503   0.08045   0.08659   0.08837   0.09238

 Mulliken charges:
               1
     1  Mg   0.835147
     2  C    0.006677
     3  C   -0.068500
     4  C   -0.060946
     5  C   -0.082356
     6  N   -0.232203
     7  C   -0.064691
     8  C   -0.032085
     9  C   -0.044926
    10  C   -0.024574
    11  C    0.034374
    12  C    0.052065
    13  C    0.085319
    14  C    0.162841
    15  O   -0.254839
    16  O   -0.314648
    17  N   -0.363271
    18  C    0.167944
    19  C   -0.150739
    20  C   -0.004812
    21  C    0.053269
    22  C    0.113133
    23  C   -0.011862
    24  O   -0.222597
    25  C    0.060592
    26  N   -0.331095
    27  C    0.072973
    28  C   -0.020658
    29  C   -0.012339
    30  C    0.046031
    31  C    0.090805
    32  C    0.029277
    33  C   -0.009692
    34  N   -0.312913
    35  C    0.085157
    36  C   -0.178234
    37  C   -0.018586
    38  C    0.141261
    39  C    0.114072
    40  C    0.051121
    41  O   -0.131238
    42  C   -0.010450
    43  C    0.160219
    44  O   -0.249019
    45  O   -0.262376
    46  C    0.167887
    47  C    0.313774
    48  C   -0.122655
    49  C   -0.179716
    50  C    0.092644
    51  C    0.055614
    52  C    0.017025
    53  C    0.033147
    54  C   -0.097691
    55  C    0.032707
    56  C    0.058442
    57  C   -0.044001
    58  C    0.087319
    59  C   -0.143209
    60  C    0.062412
    61  C    0.052778
    62  C   -0.007192
    63  C    0.031152
    64  C   -0.128685
    65  C    0.022101
    66  C    0.034050
    67  H   -0.025028
    68  H   -0.007973
    69  H   -0.029503
    70  H    0.053163
    71  H    0.014053
    72  H    0.005863
    73  H    0.024045
    74  H    0.017404
    75  H    0.013286
    76  H    0.027612
    77  H    0.023502
    78  H    0.025441
    79  H   -0.008684
    80  H    0.027984
    81  H    0.031651
    82  H    0.053584
    83  H    0.030837
    84  H    0.031582
    85  H    0.010523
    86  H   -0.000715
    87  H    0.020585
    88  H    0.029879
    89  H    0.015964
    90  H    0.003098
    91  H    0.006048
    92  H    0.011997
    93  H    0.034109
    94  H    0.008105
    95  H    0.034492
    96  H    0.026257
    97  H    0.027802
    98  H    0.033503
    99  H    0.031929
   100  H    0.032472
   101  H    0.043785
   102  H    0.011584
   103  H    0.018467
   104  H   -0.015606
   105  H    0.015282
   106  H    0.042193
   107  H    0.015972
   108  H    0.000422
   109  H   -0.007787
   110  H   -0.000303
   111  H    0.004348
   112  H   -0.019302
   113  H   -0.008244
   114  H   -0.008556
   115  H    0.003770
   116  H    0.004032
   117  H    0.013926
   118  H   -0.002929
   119  H    0.003652
   120  H    0.000253
   121  H   -0.014727
   122  H   -0.000142
   123  H   -0.005405
   124  H   -0.004540
   125  H    0.008688
   126  H    0.003700
   127  H   -0.012451
   128  H   -0.005291
   129  H    0.002445
   130  H    0.000052
   131  H    0.001078
   132  H   -0.003902
   133  H    0.000099
   134  H    0.000967
   135  H    0.012865
   136  H    0.012464
   137  H    0.000480
   138  H    0.012086
   139  H    0.000863
   140  H    0.010312
 Sum of Mulliken charges =  -0.00000

 Dipole moment (field-independent basis, Debye):
    X=              4.1194    Y=              2.0733    Z=             -4.1391  Tot=              6.1968
 Quadrupole moment (field-independent basis, Debye-Ang):
   XX=           -378.9366   YY=           -431.4879   ZZ=           -401.4477
   XY=             -7.7659   XZ=              6.9072   YZ=              2.8325

 Normal termination of Gaussian 16 at Thu Apr 28 06:08:34 2022.
