 Gaussian 16, Revision A.03,
 Gaussian 16:  ES64L-G16RevA.03 25-Dec-2016

 ---------------------------------
 #p PBE1PBE/Def2SVP td=(nstates=5)
 ---------------------------------

 -----------------------------------------------------
 step_1451_chromophore_9 TDDFT with PBE1PBE functional
 -----------------------------------------------------
 Symbolic Z-matrix:
 Charge =  0 Multiplicity = 1

                         Standard orientation:
 ---------------------------------------------------------------------
 Center     Atomic      Atomic             Coordinates (Angstroms)
 Number     Number       Type             X           Y           Z
 ---------------------------------------------------------------------
      1         12           0       -5.040532    0.856861   -0.242145
      2          6           0       -3.981393   -2.505501    0.005799
      3          6           0       -1.667619    1.804063   -0.095220
      4          6           0       -6.038058    3.967310   -0.056098
      5          6           0       -8.321262   -0.371666    0.307632
      6          7           0       -3.032122   -0.287600   -0.056235
      7          6           0       -2.902147   -1.619797   -0.156969
      8          6           0       -1.366593   -1.984863   -0.250665
      9          6           0       -0.710247   -0.626553   -0.092047
     10          6           0       -1.862603    0.383851   -0.043413
     11          6           0        0.241116   -0.535250    1.141942
     12          6           0       -1.116050   -2.609510   -1.760499
     13          6           0       -0.125699   -3.782254   -1.779261
     14          6           0        1.008816   -3.753749   -0.756402
     15          8           0        1.059392   -4.497077    0.241330
     16          8           0        1.932336   -2.788250   -1.065548
     17          7           0       -3.983601    2.636214   -0.082163
     18          6           0       -2.642097    2.846191   -0.048355
     19          6           0       -2.369574    4.275807   -0.150563
     20          6           0       -3.580200    4.949851   -0.006204
     21          6           0       -4.597906    3.860867   -0.068015
     22          6           0       -1.045293    4.819069   -0.461794
     23          6           0       -3.882058    6.445532    0.135438
     24          8           0       -5.012661    6.888186    0.386400
     25          6           0       -2.796716    7.404114   -0.029453
     26          7           0       -6.937047    1.664273    0.055780
     27          6           0       -7.064595    3.030953    0.080633
     28          6           0       -8.470863    3.461304    0.306207
     29          6           0       -9.278333    2.086107    0.214057
     30          6           0       -8.151207    1.029465    0.193893
     31          6           0       -8.787818    4.452792    1.462379
     32          6           0      -10.365675    1.990518   -0.914516
     33          6           0       -9.852735    1.364843   -2.239461
     34          7           0       -6.029896   -0.972345    0.006049
     35          6           0       -7.295199   -1.307258    0.326119
     36          6           0       -7.459330   -2.796026    0.461647
     37          6           0       -6.150511   -3.261849    0.281673
     38          6           0       -5.360645   -2.140304    0.012965
     39          6           0       -8.794709   -3.522353    0.588134
     40          6           0       -5.347380   -4.474048    0.322912
     41          8           0       -5.635193   -5.618501    0.505260
     42          6           0       -3.898719   -4.028888    0.038342
     43          6           0       -3.124459   -4.464782    1.236968
     44          8           0       -3.110922   -3.784927    2.272060
     45          8           0       -2.431252   -5.572346    1.030285
     46          6           0       -1.757681   -6.158019    2.126036
     47          6           0        3.085238   -2.815115   -0.207191
     48          6           0        4.075363   -1.889723   -0.779146
     49          6           0        5.086314   -2.221579   -1.586130
     50          6           0        5.340613   -3.615819   -2.178059
     51          6           0        6.061645   -1.110849   -2.077036
     52          6           0        7.236884   -0.695086   -1.184581
     53          6           0        8.588873   -1.142485   -1.755530
     54          6           0        9.255566   -0.198915   -2.773803
     55          6           0        9.316709   -0.731734   -4.250707
     56          6           0       10.598053    0.295385   -2.248233
     57          6           0       10.627725    1.870705   -2.251737
     58          6           0       11.655111    2.416415   -1.292783
     59          6           0       11.019569    2.975341    0.037377
     60          6           0       11.001447    4.470359    0.119267
     61          6           0       11.704106    2.340919    1.305088
     62          6           0       10.950543    1.051169    1.690464
     63          6           0        9.882940    1.293077    2.827788
     64          6           0       10.138850    0.455032    4.198408
     65          6           0       11.603996    0.669161    4.834277
     66          6           0        9.834121   -1.047795    3.969116
     67          1           0       -0.588176    1.967524   -0.081380
     68          1           0       -6.273925    5.030863   -0.140900
     69          1           0       -9.298316   -0.791884    0.555170
     70          1           0       -1.137413   -2.583986    0.630796
     71          1           0       -0.093883   -0.336654   -0.943413
     72          1           0        1.264518   -0.226850    0.929428
     73          1           0        0.385010   -1.452350    1.713659
     74          1           0       -0.132737    0.193480    1.861791
     75          1           0       -0.564424   -1.917189   -2.396376
     76          1           0       -2.017718   -2.844018   -2.326467
     77          1           0        0.370231   -3.832858   -2.749128
     78          1           0       -0.720454   -4.686541   -1.652874
     79          1           0       -0.376370    3.959843   -0.505216
     80          1           0       -0.604076    5.538760    0.227601
     81          1           0       -0.989592    5.223510   -1.471754
     82          1           0       -2.313920    7.434711    0.948203
     83          1           0       -3.413654    8.273235   -0.256843
     84          1           0       -2.168161    7.227452   -0.902115
     85          1           0       -8.691493    3.933558   -0.651071
     86          1           0       -9.843285    1.960405    1.138351
     87          1           0       -9.186793    5.380521    1.051178
     88          1           0       -7.828503    4.653072    1.939717
     89          1           0       -9.475717    4.075978    2.219377
     90          1           0      -10.648367    3.026300   -1.098424
     91          1           0      -11.292554    1.496821   -0.625202
     92          1           0      -10.418861    0.479808   -2.529680
     93          1           0       -8.797200    1.102114   -2.171016
     94          1           0       -9.983532    2.053406   -3.074324
     95          1           0       -8.649990   -4.566552    0.314458
     96          1           0       -9.643929   -3.127544    0.029983
     97          1           0       -9.070812   -3.467639    1.641570
     98          1           0       -3.408601   -4.551230   -0.784205
     99          1           0       -1.897587   -7.238970    2.104195
    100          1           0       -2.079355   -5.897581    3.134354
    101          1           0       -0.701818   -5.888080    2.122117
    102          1           0        3.628183   -3.757239   -0.136823
    103          1           0        2.936153   -2.522507    0.832416
    104          1           0        4.078550   -0.841167   -0.484289
    105          1           0        6.429391   -3.641370   -2.235383
    106          1           0        4.887451   -3.714362   -3.163794
    107          1           0        4.989225   -4.419806   -1.530669
    108          1           0        5.646252   -0.117853   -2.247746
    109          1           0        6.418580   -1.449698   -3.048893
    110          1           0        7.103350   -1.254926   -0.259274
    111          1           0        7.332958    0.382993   -1.057002
    112          1           0        8.460619   -2.149605   -2.153321
    113          1           0        9.180201   -1.268887   -0.848725
    114          1           0        8.526104    0.598218   -2.918913
    115          1           0        9.781614    0.000336   -4.911912
    116          1           0        8.307458   -0.826261   -4.650458
    117          1           0        9.836612   -1.685236   -4.346918
    118          1           0       11.397567   -0.021594   -2.918388
    119          1           0       10.848866    0.007838   -1.226781
    120          1           0        9.624695    2.296958   -2.237088
    121          1           0       11.024530    2.121841   -3.235621
    122          1           0       12.128261    3.200564   -1.883946
    123          1           0       12.279232    1.550179   -1.071483
    124          1           0        9.957952    2.732864    0.017470
    125          1           0       11.611933    4.906228    0.910464
    126          1           0       10.026494    4.943899    0.226887
    127          1           0       11.383420    4.746416   -0.863241
    128          1           0       11.551759    3.094213    2.078795
    129          1           0       12.723701    1.984928    1.157866
    130          1           0       11.697832    0.287861    1.905640
    131          1           0       10.460683    0.756714    0.762387
    132          1           0        8.882529    0.994473    2.514689
    133          1           0        9.845374    2.348368    3.096979
    134          1           0        9.314393    0.747555    4.850050
    135          1           0       12.380897    1.015817    4.153359
    136          1           0       12.011090   -0.166396    5.402683
    137          1           0       11.565998    1.499910    5.538658
    138          1           0        9.548247   -1.229579    2.933035
    139          1           0        8.962183   -1.176606    4.610937
    140          1           0       10.583196   -1.749928    4.336092
 ---------------------------------------------------------------------

 SCF Done:  E(RPBE1PBE) =  -3005.36195216     A.U. after   15 cycles

 Excitation energies and oscillator strengths:

 Excited State   1:      Singlet-A      1.8844 eV  657.96 nm  f=0.3687  <S**2>=0.000
     245 -> 248        0.18399
     246 -> 247        0.68817
     246 <- 247       -0.10122
 This state for optimization and/or second-order correction.
 Total Energy, E(TD-HF/TD-DFT) =  -3005.29270306
 Copying the excited state density for this state as the 1-particle RhoCI density.

 Excited State   2:      Singlet-A      2.2697 eV  546.26 nm  f=0.0807  <S**2>=0.000
     245 -> 247        0.63602
     246 -> 248       -0.29435

 Excited State   3:      Singlet-A      3.2352 eV  383.24 nm  f=0.3253  <S**2>=0.000
     245 -> 247        0.23279
     245 -> 250        0.11315
     246 -> 248        0.58235
     246 -> 249        0.24901

 Excited State   4:      Singlet-A      3.2914 eV  376.69 nm  f=0.0010  <S**2>=0.000
     241 -> 247        0.35534
     241 -> 249       -0.11803
     243 -> 247        0.55314
     243 -> 249       -0.13234

 Excited State   5:      Singlet-A      3.3545 eV  369.61 nm  f=0.0050  <S**2>=0.000
     242 -> 247       -0.36778
     243 -> 247        0.12790
     244 -> 247        0.55552

 The electronic state is 1-A.
 Alpha  occ. eigenvalues --  -46.92246 -19.27256 -19.26172 -19.20894 -19.19327
 Alpha  occ. eigenvalues --  -19.19082 -19.18442 -14.41026 -14.41012 -14.39229
 Alpha  occ. eigenvalues --  -14.38839 -10.37273 -10.35480 -10.32177 -10.31946
 Alpha  occ. eigenvalues --  -10.29218 -10.28593 -10.28183 -10.28171 -10.28024
 Alpha  occ. eigenvalues --  -10.27879 -10.27587 -10.27547 -10.26915 -10.26270
 Alpha  occ. eigenvalues --  -10.26226 -10.25967 -10.25848 -10.25542 -10.25541
 Alpha  occ. eigenvalues --  -10.25432 -10.25220 -10.25160 -10.25107 -10.25085
 Alpha  occ. eigenvalues --  -10.24904 -10.24760 -10.24510 -10.24474 -10.24125
 Alpha  occ. eigenvalues --  -10.23909 -10.23909 -10.23740 -10.23730 -10.23642
 Alpha  occ. eigenvalues --  -10.23427 -10.23283 -10.23243 -10.23084 -10.23082
 Alpha  occ. eigenvalues --  -10.23043 -10.22941 -10.22903 -10.22873 -10.22687
 Alpha  occ. eigenvalues --  -10.22646 -10.22591 -10.22424 -10.22404 -10.22317
 Alpha  occ. eigenvalues --  -10.22269 -10.22245 -10.22199 -10.22152 -10.21584
 Alpha  occ. eigenvalues --  -10.21330  -3.14312  -1.87157  -1.86683  -1.86535
 Alpha  occ. eigenvalues --   -1.12626  -1.12179  -1.06334  -1.04125  -1.02813
 Alpha  occ. eigenvalues --   -1.01661  -0.99104  -0.98122  -0.97634  -0.96758
 Alpha  occ. eigenvalues --   -0.86948  -0.85242  -0.84366  -0.83372  -0.82773
 Alpha  occ. eigenvalues --   -0.82566  -0.81824  -0.81670  -0.81275  -0.80883
 Alpha  occ. eigenvalues --   -0.80183  -0.79895  -0.79015  -0.78172  -0.77363
 Alpha  occ. eigenvalues --   -0.76960  -0.76441  -0.75671  -0.75313  -0.74655
 Alpha  occ. eigenvalues --   -0.74415  -0.72506  -0.71652  -0.71217  -0.70668
 Alpha  occ. eigenvalues --   -0.70430  -0.69454  -0.69314  -0.69101  -0.68360
 Alpha  occ. eigenvalues --   -0.67770  -0.66773  -0.65855  -0.64942  -0.63887
 Alpha  occ. eigenvalues --   -0.62901  -0.62514  -0.61484  -0.61194  -0.60035
 Alpha  occ. eigenvalues --   -0.59695  -0.59374  -0.59072  -0.58774  -0.58647
 Alpha  occ. eigenvalues --   -0.58273  -0.57256  -0.57196  -0.55817  -0.54452
 Alpha  occ. eigenvalues --   -0.54251  -0.53904  -0.53466  -0.52698  -0.52004
 Alpha  occ. eigenvalues --   -0.51695  -0.51644  -0.50708  -0.50453  -0.50237
 Alpha  occ. eigenvalues --   -0.50043  -0.49455  -0.49342  -0.49261  -0.48838
 Alpha  occ. eigenvalues --   -0.48207  -0.48010  -0.47882  -0.47659  -0.47566
 Alpha  occ. eigenvalues --   -0.47302  -0.46938  -0.46841  -0.46590  -0.46290
 Alpha  occ. eigenvalues --   -0.46147  -0.45940  -0.45630  -0.45488  -0.45021
 Alpha  occ. eigenvalues --   -0.44932  -0.44610  -0.44464  -0.44268  -0.44084
 Alpha  occ. eigenvalues --   -0.43915  -0.43694  -0.43653  -0.43469  -0.43303
 Alpha  occ. eigenvalues --   -0.43011  -0.42858  -0.42744  -0.42663  -0.42339
 Alpha  occ. eigenvalues --   -0.41967  -0.41723  -0.41487  -0.41266  -0.41222
 Alpha  occ. eigenvalues --   -0.41068  -0.40889  -0.40664  -0.40643  -0.40412
 Alpha  occ. eigenvalues --   -0.39915  -0.39702  -0.39630  -0.39443  -0.39396
 Alpha  occ. eigenvalues --   -0.39323  -0.39098  -0.39020  -0.38749  -0.38626
 Alpha  occ. eigenvalues --   -0.38405  -0.38374  -0.38268  -0.38101  -0.38011
 Alpha  occ. eigenvalues --   -0.37526  -0.37315  -0.37278  -0.36989  -0.36673
 Alpha  occ. eigenvalues --   -0.36584  -0.36513  -0.36069  -0.35918  -0.35799
 Alpha  occ. eigenvalues --   -0.35574  -0.35537  -0.35267  -0.34942  -0.34655
 Alpha  occ. eigenvalues --   -0.34360  -0.34322  -0.34099  -0.33664  -0.33642
 Alpha  occ. eigenvalues --   -0.33112  -0.32847  -0.32712  -0.32512  -0.32417
 Alpha  occ. eigenvalues --   -0.32372  -0.31845  -0.31545  -0.31392  -0.31099
 Alpha  occ. eigenvalues --   -0.30882  -0.30818  -0.29874  -0.29466  -0.29282
 Alpha  occ. eigenvalues --   -0.29153  -0.28484  -0.27751  -0.26622  -0.26275
 Alpha  occ. eigenvalues --   -0.25976  -0.25891  -0.25693  -0.25478  -0.20390
 Alpha  occ. eigenvalues --   -0.18064
 Alpha virt. eigenvalues --   -0.10307  -0.04979  -0.03596  -0.02108  -0.00779
 Alpha virt. eigenvalues --   -0.00313  -0.00017   0.01604   0.02286   0.03228
 Alpha virt. eigenvalues --    0.04226   0.04501   0.04833   0.05456   0.05676

 Mulliken charges:
               1
     1  Mg   0.980656
     2  C    0.002080
     3  C   -0.067141
     4  C   -0.054103
     5  C   -0.067714
     6  N   -0.337824
     7  C    0.020784
     8  C   -0.118655
     9  C   -0.117350
    10  C    0.023438
    11  C   -0.020218
    12  C    0.008467
    13  C    0.011087
    14  C    0.223774
    15  O   -0.287196
    16  O   -0.343387
    17  N   -0.479394
    18  C    0.196345
    19  C   -0.183016
    20  C   -0.051867
    21  C    0.091008
    22  C    0.053337
    23  C    0.038209
    24  O   -0.259477
    25  C   -0.012023
    26  N   -0.436528
    27  C    0.101118
    28  C   -0.097340
    29  C   -0.072196
    30  C    0.071100
    31  C    0.028317
    32  C   -0.035638
    33  C   -0.082823
    34  N   -0.438760
    35  C    0.100860
    36  C   -0.178601
    37  C   -0.067098
    38  C    0.180327
    39  C    0.056862
    40  C    0.145818
    41  O   -0.180106
    42  C   -0.132687
    43  C    0.261183
    44  O   -0.281398
    45  O   -0.300494
    46  C    0.113648
    47  C    0.265868
    48  C   -0.127972
    49  C   -0.220769
    50  C    0.022818
    51  C   -0.006127
    52  C   -0.052076
    53  C   -0.020125
    54  C   -0.182594
    55  C   -0.028715
    56  C    0.000416
    57  C   -0.101983
    58  C    0.027195
    59  C   -0.226393
    60  C    0.005095
    61  C   -0.003433
    62  C   -0.077978
    63  C   -0.021953
    64  C   -0.217988
    65  C   -0.039167
    66  C   -0.025659
    67  H    0.006548
    68  H    0.025395
    69  H    0.002948
    70  H    0.092031
    71  H    0.050127
    72  H    0.033666
    73  H    0.049914
    74  H    0.045295
    75  H    0.044600
    76  H    0.058326
    77  H    0.055820
    78  H    0.058855
    79  H    0.021741
    80  H    0.055016
    81  H    0.059286
    82  H    0.080589
    83  H    0.057959
    84  H    0.057701
    85  H    0.050514
    86  H    0.037998
    87  H    0.047462
    88  H    0.058223
    89  H    0.043087
    90  H    0.036494
    91  H    0.037467
    92  H    0.039769
    93  H    0.065725
    94  H    0.036265
    95  H    0.062537
    96  H    0.051686
    97  H    0.056498
    98  H    0.070013
    99  H    0.053879
   100  H    0.053582
   101  H    0.066697
   102  H    0.039273
   103  H    0.045279
   104  H    0.014078
   105  H    0.045341
   106  H    0.069948
   107  H    0.043077
   108  H    0.032374
   109  H    0.027360
   110  H    0.033682
   111  H    0.036818
   112  H    0.016317
   113  H    0.024565
   114  H    0.030166
   115  H    0.032427
   116  H    0.032163
   117  H    0.041296
   118  H    0.030688
   119  H    0.035515
   120  H    0.030449
   121  H    0.020104
   122  H    0.031446
   123  H    0.028125
   124  H    0.033862
   125  H    0.035132
   126  H    0.031164
   127  H    0.015684
   128  H    0.027533
   129  H    0.034060
   130  H    0.031374
   131  H    0.041763
   132  H    0.028286
   133  H    0.031956
   134  H    0.038326
   135  H    0.040203
   136  H    0.039049
   137  H    0.028627
   138  H    0.039230
   139  H    0.028555
   140  H    0.037143
 Sum of Mulliken charges =  -0.00000

 Dipole moment (field-independent basis, Debye):
    X=              4.0543    Y=              2.1396    Z=             -4.1801  Tot=              6.2039
 Quadrupole moment (field-independent basis, Debye-Ang):
   XX=           -372.5143   YY=           -428.8153   ZZ=           -398.8237
   XY=             -8.5737   XZ=              6.5289   YZ=              2.6977

 Normal termination of Gaussian 16 at Thu Apr 28 06:34:27 2022.
