 Gaussian 16, Revision A.03,
 Gaussian 16:  ES64L-G16RevA.03 25-Dec-2016

 --------------------------------
 #p wB97XD/Def2SVP td=(nstates=5)
 --------------------------------

 ----------------------------------------------------
 step_1451_chromophore_9 TDDFT with wB97XD functional
 ----------------------------------------------------
 Symbolic Z-matrix:
 Charge =  0 Multiplicity = 1

                         Standard orientation:
 ---------------------------------------------------------------------
 Center     Atomic      Atomic             Coordinates (Angstroms)
 Number     Number       Type             X           Y           Z
 ---------------------------------------------------------------------
      1         12           0       -5.040532    0.856861   -0.242145
      2          6           0       -3.981393   -2.505501    0.005799
      3          6           0       -1.667619    1.804063   -0.095220
      4          6           0       -6.038058    3.967310   -0.056098
      5          6           0       -8.321262   -0.371666    0.307632
      6          7           0       -3.032122   -0.287600   -0.056235
      7          6           0       -2.902147   -1.619797   -0.156969
      8          6           0       -1.366593   -1.984863   -0.250665
      9          6           0       -0.710247   -0.626553   -0.092047
     10          6           0       -1.862603    0.383851   -0.043413
     11          6           0        0.241116   -0.535250    1.141942
     12          6           0       -1.116050   -2.609510   -1.760499
     13          6           0       -0.125699   -3.782254   -1.779261
     14          6           0        1.008816   -3.753749   -0.756402
     15          8           0        1.059392   -4.497077    0.241330
     16          8           0        1.932336   -2.788250   -1.065548
     17          7           0       -3.983601    2.636214   -0.082163
     18          6           0       -2.642097    2.846191   -0.048355
     19          6           0       -2.369574    4.275807   -0.150563
     20          6           0       -3.580200    4.949851   -0.006204
     21          6           0       -4.597906    3.860867   -0.068015
     22          6           0       -1.045293    4.819069   -0.461794
     23          6           0       -3.882058    6.445532    0.135438
     24          8           0       -5.012661    6.888186    0.386400
     25          6           0       -2.796716    7.404114   -0.029453
     26          7           0       -6.937047    1.664273    0.055780
     27          6           0       -7.064595    3.030953    0.080633
     28          6           0       -8.470863    3.461304    0.306207
     29          6           0       -9.278333    2.086107    0.214057
     30          6           0       -8.151207    1.029465    0.193893
     31          6           0       -8.787818    4.452792    1.462379
     32          6           0      -10.365675    1.990518   -0.914516
     33          6           0       -9.852735    1.364843   -2.239461
     34          7           0       -6.029896   -0.972345    0.006049
     35          6           0       -7.295199   -1.307258    0.326119
     36          6           0       -7.459330   -2.796026    0.461647
     37          6           0       -6.150511   -3.261849    0.281673
     38          6           0       -5.360645   -2.140304    0.012965
     39          6           0       -8.794709   -3.522353    0.588134
     40          6           0       -5.347380   -4.474048    0.322912
     41          8           0       -5.635193   -5.618501    0.505260
     42          6           0       -3.898719   -4.028888    0.038342
     43          6           0       -3.124459   -4.464782    1.236968
     44          8           0       -3.110922   -3.784927    2.272060
     45          8           0       -2.431252   -5.572346    1.030285
     46          6           0       -1.757681   -6.158019    2.126036
     47          6           0        3.085238   -2.815115   -0.207191
     48          6           0        4.075363   -1.889723   -0.779146
     49          6           0        5.086314   -2.221579   -1.586130
     50          6           0        5.340613   -3.615819   -2.178059
     51          6           0        6.061645   -1.110849   -2.077036
     52          6           0        7.236884   -0.695086   -1.184581
     53          6           0        8.588873   -1.142485   -1.755530
     54          6           0        9.255566   -0.198915   -2.773803
     55          6           0        9.316709   -0.731734   -4.250707
     56          6           0       10.598053    0.295385   -2.248233
     57          6           0       10.627725    1.870705   -2.251737
     58          6           0       11.655111    2.416415   -1.292783
     59          6           0       11.019569    2.975341    0.037377
     60          6           0       11.001447    4.470359    0.119267
     61          6           0       11.704106    2.340919    1.305088
     62          6           0       10.950543    1.051169    1.690464
     63          6           0        9.882940    1.293077    2.827788
     64          6           0       10.138850    0.455032    4.198408
     65          6           0       11.603996    0.669161    4.834277
     66          6           0        9.834121   -1.047795    3.969116
     67          1           0       -0.588176    1.967524   -0.081380
     68          1           0       -6.273925    5.030863   -0.140900
     69          1           0       -9.298316   -0.791884    0.555170
     70          1           0       -1.137413   -2.583986    0.630796
     71          1           0       -0.093883   -0.336654   -0.943413
     72          1           0        1.264518   -0.226850    0.929428
     73          1           0        0.385010   -1.452350    1.713659
     74          1           0       -0.132737    0.193480    1.861791
     75          1           0       -0.564424   -1.917189   -2.396376
     76          1           0       -2.017718   -2.844018   -2.326467
     77          1           0        0.370231   -3.832858   -2.749128
     78          1           0       -0.720454   -4.686541   -1.652874
     79          1           0       -0.376370    3.959843   -0.505216
     80          1           0       -0.604076    5.538760    0.227601
     81          1           0       -0.989592    5.223510   -1.471754
     82          1           0       -2.313920    7.434711    0.948203
     83          1           0       -3.413654    8.273235   -0.256843
     84          1           0       -2.168161    7.227452   -0.902115
     85          1           0       -8.691493    3.933558   -0.651071
     86          1           0       -9.843285    1.960405    1.138351
     87          1           0       -9.186793    5.380521    1.051178
     88          1           0       -7.828503    4.653072    1.939717
     89          1           0       -9.475717    4.075978    2.219377
     90          1           0      -10.648367    3.026300   -1.098424
     91          1           0      -11.292554    1.496821   -0.625202
     92          1           0      -10.418861    0.479808   -2.529680
     93          1           0       -8.797200    1.102114   -2.171016
     94          1           0       -9.983532    2.053406   -3.074324
     95          1           0       -8.649990   -4.566552    0.314458
     96          1           0       -9.643929   -3.127544    0.029983
     97          1           0       -9.070812   -3.467639    1.641570
     98          1           0       -3.408601   -4.551230   -0.784205
     99          1           0       -1.897587   -7.238970    2.104195
    100          1           0       -2.079355   -5.897581    3.134354
    101          1           0       -0.701818   -5.888080    2.122117
    102          1           0        3.628183   -3.757239   -0.136823
    103          1           0        2.936153   -2.522507    0.832416
    104          1           0        4.078550   -0.841167   -0.484289
    105          1           0        6.429391   -3.641370   -2.235383
    106          1           0        4.887451   -3.714362   -3.163794
    107          1           0        4.989225   -4.419806   -1.530669
    108          1           0        5.646252   -0.117853   -2.247746
    109          1           0        6.418580   -1.449698   -3.048893
    110          1           0        7.103350   -1.254926   -0.259274
    111          1           0        7.332958    0.382993   -1.057002
    112          1           0        8.460619   -2.149605   -2.153321
    113          1           0        9.180201   -1.268887   -0.848725
    114          1           0        8.526104    0.598218   -2.918913
    115          1           0        9.781614    0.000336   -4.911912
    116          1           0        8.307458   -0.826261   -4.650458
    117          1           0        9.836612   -1.685236   -4.346918
    118          1           0       11.397567   -0.021594   -2.918388
    119          1           0       10.848866    0.007838   -1.226781
    120          1           0        9.624695    2.296958   -2.237088
    121          1           0       11.024530    2.121841   -3.235621
    122          1           0       12.128261    3.200564   -1.883946
    123          1           0       12.279232    1.550179   -1.071483
    124          1           0        9.957952    2.732864    0.017470
    125          1           0       11.611933    4.906228    0.910464
    126          1           0       10.026494    4.943899    0.226887
    127          1           0       11.383420    4.746416   -0.863241
    128          1           0       11.551759    3.094213    2.078795
    129          1           0       12.723701    1.984928    1.157866
    130          1           0       11.697832    0.287861    1.905640
    131          1           0       10.460683    0.756714    0.762387
    132          1           0        8.882529    0.994473    2.514689
    133          1           0        9.845374    2.348368    3.096979
    134          1           0        9.314393    0.747555    4.850050
    135          1           0       12.380897    1.015817    4.153359
    136          1           0       12.011090   -0.166396    5.402683
    137          1           0       11.565998    1.499910    5.538658
    138          1           0        9.548247   -1.229579    2.933035
    139          1           0        8.962183   -1.176606    4.610937
    140          1           0       10.583196   -1.749928    4.336092
 ---------------------------------------------------------------------

 SCF Done:  E(RwB97XD) =  -3007.87513772     A.U. after   17 cycles

 Excitation energies and oscillator strengths:

 Excited State   1:      Singlet-A      1.6689 eV  742.90 nm  f=0.3753  <S**2>=0.000
     245 -> 248        0.19988
     246 -> 247        0.67891
     245 <- 248        0.11937
 This state for optimization and/or second-order correction.
 Total Energy, E(TD-HF/TD-DFT) =  -3007.81380619
 Copying the excited state density for this state as the 1-particle RhoCI density.

 Excited State   2:      Singlet-A      2.2107 eV  560.84 nm  f=0.0764  <S**2>=0.000
     245 -> 247        0.61944
     246 -> 248       -0.33043

 Excited State   3:      Singlet-A      3.4847 eV  355.79 nm  f=0.7924  <S**2>=0.000
     245 -> 247        0.32280
     246 -> 248        0.61444
     245 <- 247       -0.11911

 Excited State   4:      Singlet-A      3.7335 eV  332.09 nm  f=0.0113  <S**2>=0.000
     243 -> 247       -0.14120
     244 -> 247        0.66912

 Excited State   5:      Singlet-A      3.7816 eV  327.86 nm  f=0.0033  <S**2>=0.000
     240 -> 247        0.43975
     240 -> 249       -0.29575
     240 -> 250        0.21662
     241 -> 247        0.18521
     241 -> 249       -0.12357
     243 -> 247       -0.23626
     243 -> 249        0.10091

 The electronic state is 1-A.
 Alpha  occ. eigenvalues --  -46.95171 -19.31831 -19.30780 -19.25538 -19.24253
 Alpha  occ. eigenvalues --  -19.23871 -19.23172 -14.46178 -14.45977 -14.44171
 Alpha  occ. eigenvalues --  -14.43813 -10.44048 -10.42344 -10.39011 -10.38880
 Alpha  occ. eigenvalues --  -10.35747 -10.34853 -10.34461 -10.34415 -10.34307
 Alpha  occ. eigenvalues --  -10.34215 -10.34093 -10.33831 -10.33257 -10.32594
 Alpha  occ. eigenvalues --  -10.32499 -10.32411 -10.32197 -10.32038 -10.31858
 Alpha  occ. eigenvalues --  -10.31820 -10.31643 -10.31529 -10.31395 -10.31391
 Alpha  occ. eigenvalues --  -10.31329 -10.30935 -10.30860 -10.30740 -10.30565
 Alpha  occ. eigenvalues --  -10.30441 -10.30188 -10.30105 -10.30060 -10.30012
 Alpha  occ. eigenvalues --  -10.29793 -10.29633 -10.29597 -10.29567 -10.29437
 Alpha  occ. eigenvalues --  -10.29349 -10.29286 -10.29284 -10.29247 -10.29091
 Alpha  occ. eigenvalues --  -10.29083 -10.28955 -10.28804 -10.28751 -10.28700
 Alpha  occ. eigenvalues --  -10.28665 -10.28599 -10.28582 -10.28507 -10.28004
 Alpha  occ. eigenvalues --  -10.27754  -3.21107  -1.94698  -1.94225  -1.94075
 Alpha  occ. eigenvalues --   -1.20042  -1.19560  -1.13892  -1.11609  -1.10157
 Alpha  occ. eigenvalues --   -1.09084  -1.06472  -1.05497  -1.04993  -1.04107
 Alpha  occ. eigenvalues --   -0.94615  -0.92907  -0.92030  -0.91031  -0.90423
 Alpha  occ. eigenvalues --   -0.90218  -0.89369  -0.89297  -0.88872  -0.88562
 Alpha  occ. eigenvalues --   -0.87822  -0.87531  -0.86661  -0.85799  -0.85056
 Alpha  occ. eigenvalues --   -0.84644  -0.84070  -0.83306  -0.82932  -0.82314
 Alpha  occ. eigenvalues --   -0.82029  -0.80169  -0.79302  -0.78823  -0.78335
 Alpha  occ. eigenvalues --   -0.78044  -0.77166  -0.76892  -0.76745  -0.76034
 Alpha  occ. eigenvalues --   -0.75372  -0.74328  -0.73376  -0.72555  -0.71433
 Alpha  occ. eigenvalues --   -0.70457  -0.70155  -0.69039  -0.68832  -0.67531
 Alpha  occ. eigenvalues --   -0.67344  -0.66876  -0.66526  -0.66218  -0.66082
 Alpha  occ. eigenvalues --   -0.65935  -0.64902  -0.64595  -0.63430  -0.62003
 Alpha  occ. eigenvalues --   -0.61670  -0.61338  -0.60914  -0.60114  -0.59543
 Alpha  occ. eigenvalues --   -0.59211  -0.59134  -0.58126  -0.57853  -0.57621
 Alpha  occ. eigenvalues --   -0.57432  -0.56879  -0.56770  -0.56695  -0.56227
 Alpha  occ. eigenvalues --   -0.55638  -0.55478  -0.55432  -0.55064  -0.54928
 Alpha  occ. eigenvalues --   -0.54656  -0.54368  -0.54163  -0.53947  -0.53623
 Alpha  occ. eigenvalues --   -0.53478  -0.53253  -0.52981  -0.52884  -0.52384
 Alpha  occ. eigenvalues --   -0.52337  -0.51959  -0.51787  -0.51668  -0.51390
 Alpha  occ. eigenvalues --   -0.51210  -0.51025  -0.50968  -0.50783  -0.50573
 Alpha  occ. eigenvalues --   -0.50316  -0.50180  -0.50040  -0.49943  -0.49622
 Alpha  occ. eigenvalues --   -0.49258  -0.48975  -0.48726  -0.48549  -0.48488
 Alpha  occ. eigenvalues --   -0.48318  -0.48052  -0.47861  -0.47796  -0.47567
 Alpha  occ. eigenvalues --   -0.47125  -0.46950  -0.46830  -0.46609  -0.46597
 Alpha  occ. eigenvalues --   -0.46527  -0.46266  -0.46195  -0.45873  -0.45822
 Alpha  occ. eigenvalues --   -0.45597  -0.45462  -0.45436  -0.45250  -0.45033
 Alpha  occ. eigenvalues --   -0.44671  -0.44444  -0.44394  -0.44043  -0.43791
 Alpha  occ. eigenvalues --   -0.43781  -0.43591  -0.43166  -0.43031  -0.42981
 Alpha  occ. eigenvalues --   -0.42661  -0.42576  -0.42369  -0.41947  -0.41625
 Alpha  occ. eigenvalues --   -0.41344  -0.41250  -0.41132  -0.40673  -0.40612
 Alpha  occ. eigenvalues --   -0.40060  -0.39775  -0.39710  -0.39547  -0.39450
 Alpha  occ. eigenvalues --   -0.39423  -0.38857  -0.38547  -0.38360  -0.38086
 Alpha  occ. eigenvalues --   -0.37983  -0.37731  -0.36821  -0.36516  -0.36085
 Alpha  occ. eigenvalues --   -0.36071  -0.35141  -0.34971  -0.33488  -0.33053
 Alpha  occ. eigenvalues --   -0.33005  -0.32735  -0.32404  -0.32043  -0.25361
 Alpha  occ. eigenvalues --   -0.22191
 Alpha virt. eigenvalues --   -0.06132   0.00437   0.02640   0.04377   0.05564
 Alpha virt. eigenvalues --    0.06141   0.06682   0.08361   0.09082   0.09735
 Alpha virt. eigenvalues --    0.10810   0.10857   0.11646   0.12114   0.12504

 Mulliken charges:
               1
     1  Mg   0.970667
     2  C    0.000840
     3  C   -0.080300
     4  C   -0.071887
     5  C   -0.089799
     6  N   -0.299850
     7  C   -0.016521
     8  C   -0.085266
     9  C   -0.093997
    10  C    0.004692
    11  C   -0.010640
    12  C    0.016124
    13  C    0.027720
    14  C    0.210523
    15  O   -0.283937
    16  O   -0.340859
    17  N   -0.446930
    18  C    0.185453
    19  C   -0.169485
    20  C   -0.048783
    21  C    0.080249
    22  C    0.063482
    23  C    0.037124
    24  O   -0.253613
    25  C   -0.004476
    26  N   -0.405604
    27  C    0.093858
    28  C   -0.072355
    29  C   -0.053958
    30  C    0.064659
    31  C    0.041051
    32  C   -0.021687
    33  C   -0.063497
    34  N   -0.400461
    35  C    0.097613
    36  C   -0.181574
    37  C   -0.063463
    38  C    0.166391
    39  C    0.067099
    40  C    0.128521
    41  O   -0.169785
    42  C   -0.089386
    43  C    0.233376
    44  O   -0.276184
    45  O   -0.296986
    46  C    0.127976
    47  C    0.279209
    48  C   -0.137582
    49  C   -0.208160
    50  C    0.041175
    51  C    0.012667
    52  C   -0.030806
    53  C   -0.002794
    54  C   -0.154698
    55  C   -0.014765
    56  C    0.020452
    57  C   -0.086226
    58  C    0.046421
    59  C   -0.196078
    60  C    0.016721
    61  C    0.013747
    62  C   -0.051285
    63  C   -0.006613
    64  C   -0.189680
    65  C   -0.026701
    66  C   -0.015723
    67  H   -0.000316
    68  H    0.018653
    69  H   -0.002314
    70  H    0.075607
    71  H    0.039798
    72  H    0.027376
    73  H    0.044435
    74  H    0.039396
    75  H    0.037076
    76  H    0.051544
    77  H    0.050840
    78  H    0.053107
    79  H    0.015727
    80  H    0.050835
    81  H    0.054750
    82  H    0.077091
    83  H    0.056236
    84  H    0.053502
    85  H    0.037034
    86  H    0.027469
    87  H    0.042588
    88  H    0.051085
    89  H    0.037998
    90  H    0.027528
    91  H    0.031720
    92  H    0.034306
    93  H    0.053579
    94  H    0.031042
    95  H    0.059022
    96  H    0.047405
    97  H    0.051267
    98  H    0.063664
    99  H    0.050091
   100  H    0.049578
   101  H    0.064127
   102  H    0.031647
   103  H    0.041202
   104  H    0.010898
   105  H    0.036259
   106  H    0.065162
   107  H    0.037692
   108  H    0.026132
   109  H    0.013228
   110  H    0.024497
   111  H    0.027277
   112  H    0.003532
   113  H    0.015966
   114  H    0.013891
   115  H    0.026098
   116  H    0.025667
   117  H    0.035479
   118  H    0.023037
   119  H    0.019821
   120  H    0.020682
   121  H    0.011122
   122  H    0.023616
   123  H    0.016610
   124  H    0.018284
   125  H    0.029571
   126  H    0.026421
   127  H    0.007636
   128  H    0.014744
   129  H    0.027393
   130  H    0.023105
   131  H    0.017682
   132  H    0.020223
   133  H    0.022745
   134  H    0.028906
   135  H    0.032183
   136  H    0.033686
   137  H    0.022545
   138  H    0.032191
   139  H    0.022989
   140  H    0.031917
 Sum of Mulliken charges =  -0.00000

 Dipole moment (field-independent basis, Debye):
    X=              4.1673    Y=              2.1282    Z=             -4.2237  Tot=              6.3036
 Quadrupole moment (field-independent basis, Debye-Ang):
   XX=           -374.0347   YY=           -427.0180   ZZ=           -398.4173
   XY=             -7.6239   XZ=              6.8769   YZ=              2.7158

 Normal termination of Gaussian 16 at Thu Apr 28 07:17:32 2022.
