 Gaussian 16, Revision A.03,
 Gaussian 16:  ES64L-G16RevA.03 25-Dec-2016

 --------------------
 #p ZINDO=(nstates=5)
 --------------------

 -----------------------------
 step_1451_chromophore_9 ZINDO
 -----------------------------
 Symbolic Z-matrix:
 Charge =  0 Multiplicity = 1

                         Standard orientation:
 ---------------------------------------------------------------------
 Center     Atomic      Atomic             Coordinates (Angstroms)
 Number     Number       Type             X           Y           Z
 ---------------------------------------------------------------------
      1         12           0       -5.040532    0.856861   -0.242145
      2          6           0       -3.981393   -2.505501    0.005799
      3          6           0       -1.667619    1.804063   -0.095220
      4          6           0       -6.038058    3.967310   -0.056098
      5          6           0       -8.321262   -0.371666    0.307632
      6          7           0       -3.032122   -0.287600   -0.056235
      7          6           0       -2.902147   -1.619797   -0.156969
      8          6           0       -1.366593   -1.984863   -0.250665
      9          6           0       -0.710247   -0.626553   -0.092047
     10          6           0       -1.862603    0.383851   -0.043413
     11          6           0        0.241116   -0.535250    1.141942
     12          6           0       -1.116050   -2.609510   -1.760499
     13          6           0       -0.125699   -3.782254   -1.779261
     14          6           0        1.008816   -3.753749   -0.756402
     15          8           0        1.059392   -4.497077    0.241330
     16          8           0        1.932336   -2.788250   -1.065548
     17          7           0       -3.983601    2.636214   -0.082163
     18          6           0       -2.642097    2.846191   -0.048355
     19          6           0       -2.369574    4.275807   -0.150563
     20          6           0       -3.580200    4.949851   -0.006204
     21          6           0       -4.597906    3.860867   -0.068015
     22          6           0       -1.045293    4.819069   -0.461794
     23          6           0       -3.882058    6.445532    0.135438
     24          8           0       -5.012661    6.888186    0.386400
     25          6           0       -2.796716    7.404114   -0.029453
     26          7           0       -6.937047    1.664273    0.055780
     27          6           0       -7.064595    3.030953    0.080633
     28          6           0       -8.470863    3.461304    0.306207
     29          6           0       -9.278333    2.086107    0.214057
     30          6           0       -8.151207    1.029465    0.193893
     31          6           0       -8.787818    4.452792    1.462379
     32          6           0      -10.365675    1.990518   -0.914516
     33          6           0       -9.852735    1.364843   -2.239461
     34          7           0       -6.029896   -0.972345    0.006049
     35          6           0       -7.295199   -1.307258    0.326119
     36          6           0       -7.459330   -2.796026    0.461647
     37          6           0       -6.150511   -3.261849    0.281673
     38          6           0       -5.360645   -2.140304    0.012965
     39          6           0       -8.794709   -3.522353    0.588134
     40          6           0       -5.347380   -4.474048    0.322912
     41          8           0       -5.635193   -5.618501    0.505260
     42          6           0       -3.898719   -4.028888    0.038342
     43          6           0       -3.124459   -4.464782    1.236968
     44          8           0       -3.110922   -3.784927    2.272060
     45          8           0       -2.431252   -5.572346    1.030285
     46          6           0       -1.757681   -6.158019    2.126036
     47          6           0        3.085238   -2.815115   -0.207191
     48          6           0        4.075363   -1.889723   -0.779146
     49          6           0        5.086314   -2.221579   -1.586130
     50          6           0        5.340613   -3.615819   -2.178059
     51          6           0        6.061645   -1.110849   -2.077036
     52          6           0        7.236884   -0.695086   -1.184581
     53          6           0        8.588873   -1.142485   -1.755530
     54          6           0        9.255566   -0.198915   -2.773803
     55          6           0        9.316709   -0.731734   -4.250707
     56          6           0       10.598053    0.295385   -2.248233
     57          6           0       10.627725    1.870705   -2.251737
     58          6           0       11.655111    2.416415   -1.292783
     59          6           0       11.019569    2.975341    0.037377
     60          6           0       11.001447    4.470359    0.119267
     61          6           0       11.704106    2.340919    1.305088
     62          6           0       10.950543    1.051169    1.690464
     63          6           0        9.882940    1.293077    2.827788
     64          6           0       10.138850    0.455032    4.198408
     65          6           0       11.603996    0.669161    4.834277
     66          6           0        9.834121   -1.047795    3.969116
     67          1           0       -0.588176    1.967524   -0.081380
     68          1           0       -6.273925    5.030863   -0.140900
     69          1           0       -9.298316   -0.791884    0.555170
     70          1           0       -1.137413   -2.583986    0.630796
     71          1           0       -0.093883   -0.336654   -0.943413
     72          1           0        1.264518   -0.226850    0.929428
     73          1           0        0.385010   -1.452350    1.713659
     74          1           0       -0.132737    0.193480    1.861791
     75          1           0       -0.564424   -1.917189   -2.396376
     76          1           0       -2.017718   -2.844018   -2.326467
     77          1           0        0.370231   -3.832858   -2.749128
     78          1           0       -0.720454   -4.686541   -1.652874
     79          1           0       -0.376370    3.959843   -0.505216
     80          1           0       -0.604076    5.538760    0.227601
     81          1           0       -0.989592    5.223510   -1.471754
     82          1           0       -2.313920    7.434711    0.948203
     83          1           0       -3.413654    8.273235   -0.256843
     84          1           0       -2.168161    7.227452   -0.902115
     85          1           0       -8.691493    3.933558   -0.651071
     86          1           0       -9.843285    1.960405    1.138351
     87          1           0       -9.186793    5.380521    1.051178
     88          1           0       -7.828503    4.653072    1.939717
     89          1           0       -9.475717    4.075978    2.219377
     90          1           0      -10.648367    3.026300   -1.098424
     91          1           0      -11.292554    1.496821   -0.625202
     92          1           0      -10.418861    0.479808   -2.529680
     93          1           0       -8.797200    1.102114   -2.171016
     94          1           0       -9.983532    2.053406   -3.074324
     95          1           0       -8.649990   -4.566552    0.314458
     96          1           0       -9.643929   -3.127544    0.029983
     97          1           0       -9.070812   -3.467639    1.641570
     98          1           0       -3.408601   -4.551230   -0.784205
     99          1           0       -1.897587   -7.238970    2.104195
    100          1           0       -2.079355   -5.897581    3.134354
    101          1           0       -0.701818   -5.888080    2.122117
    102          1           0        3.628183   -3.757239   -0.136823
    103          1           0        2.936153   -2.522507    0.832416
    104          1           0        4.078550   -0.841167   -0.484289
    105          1           0        6.429391   -3.641370   -2.235383
    106          1           0        4.887451   -3.714362   -3.163794
    107          1           0        4.989225   -4.419806   -1.530669
    108          1           0        5.646252   -0.117853   -2.247746
    109          1           0        6.418580   -1.449698   -3.048893
    110          1           0        7.103350   -1.254926   -0.259274
    111          1           0        7.332958    0.382993   -1.057002
    112          1           0        8.460619   -2.149605   -2.153321
    113          1           0        9.180201   -1.268887   -0.848725
    114          1           0        8.526104    0.598218   -2.918913
    115          1           0        9.781614    0.000336   -4.911912
    116          1           0        8.307458   -0.826261   -4.650458
    117          1           0        9.836612   -1.685236   -4.346918
    118          1           0       11.397567   -0.021594   -2.918388
    119          1           0       10.848866    0.007838   -1.226781
    120          1           0        9.624695    2.296958   -2.237088
    121          1           0       11.024530    2.121841   -3.235621
    122          1           0       12.128261    3.200564   -1.883946
    123          1           0       12.279232    1.550179   -1.071483
    124          1           0        9.957952    2.732864    0.017470
    125          1           0       11.611933    4.906228    0.910464
    126          1           0       10.026494    4.943899    0.226887
    127          1           0       11.383420    4.746416   -0.863241
    128          1           0       11.551759    3.094213    2.078795
    129          1           0       12.723701    1.984928    1.157866
    130          1           0       11.697832    0.287861    1.905640
    131          1           0       10.460683    0.756714    0.762387
    132          1           0        8.882529    0.994473    2.514689
    133          1           0        9.845374    2.348368    3.096979
    134          1           0        9.314393    0.747555    4.850050
    135          1           0       12.380897    1.015817    4.153359
    136          1           0       12.011090   -0.166396    5.402683
    137          1           0       11.565998    1.499910    5.538658
    138          1           0        9.548247   -1.229579    2.933035
    139          1           0        8.962183   -1.176606    4.610937
    140          1           0       10.583196   -1.749928    4.336092
 ---------------------------------------------------------------------

 SCF Done:  E(RZINDO/S) =  -474.396083737     A.U. after   20 cycles

 Excitation energies and oscillator strengths:

 Excited State   1:      Singlet-A      1.2598 eV  984.16 nm  f=0.5917  <S**2>=0.000
     175 ->178        -0.20739
     176 ->177         0.65866
 This state for optimization and/or second-order correction.
 Total Energy, E(CIS/TDA) =  -474.349787094
 Copying the excited state density for this state as the 1-particle RhoCI density.

 Excited State   2:      Singlet-A      1.9118 eV  648.53 nm  f=0.0131  <S**2>=0.000
     175 ->177         0.51500
     176 ->178         0.46385

 Excited State   3:      Singlet-A      2.9613 eV  418.68 nm  f=0.1599  <S**2>=0.000
     175 ->177        -0.14501
     176 ->178         0.18423
     176 ->179         0.63367

 Excited State   4:      Singlet-A      3.0152 eV  411.20 nm  f=1.1100  <S**2>=0.000
     175 ->177        -0.40239
     176 ->178         0.45545
     176 ->179        -0.23584
     176 ->181        -0.13804

 Excited State   5:      Singlet-A      3.0396 eV  407.90 nm  f=0.0038  <S**2>=0.000
     169 ->177         0.29827
     169 ->178        -0.12400
     169 ->179        -0.39159
     169 ->181         0.29043
     169 ->186        -0.17035
     169 ->187         0.13236
     169 ->202         0.13282

 The electronic state is 1-A.
 Alpha  occ. eigenvalues --   -1.84683  -1.80247  -1.79739  -1.75106  -1.74345
 Alpha  occ. eigenvalues --   -1.70646  -1.66898  -1.61171  -1.60746  -1.59654
 Alpha  occ. eigenvalues --   -1.53648  -1.50768  -1.50122  -1.46955  -1.44868
 Alpha  occ. eigenvalues --   -1.43458  -1.42277  -1.39778  -1.39094  -1.38784
 Alpha  occ. eigenvalues --   -1.36162  -1.32902  -1.32742  -1.31666  -1.28542
 Alpha  occ. eigenvalues --   -1.27818  -1.24776  -1.22361  -1.21330  -1.18552
 Alpha  occ. eigenvalues --   -1.17510  -1.16249  -1.15989  -1.15005  -1.12009
 Alpha  occ. eigenvalues --   -1.11872  -1.10711  -1.10133  -1.05020  -1.04534
 Alpha  occ. eigenvalues --   -1.02130  -1.01427  -0.98388  -0.97979  -0.97667
 Alpha  occ. eigenvalues --   -0.96429  -0.94732  -0.93856  -0.93492  -0.92690
 Alpha  occ. eigenvalues --   -0.91418  -0.89381  -0.88459  -0.87865  -0.85758
 Alpha  occ. eigenvalues --   -0.85121  -0.84280  -0.83492  -0.81239  -0.79936
 Alpha  occ. eigenvalues --   -0.79819  -0.79399  -0.78318  -0.76458  -0.75724
 Alpha  occ. eigenvalues --   -0.75522  -0.74971  -0.74560  -0.74522  -0.74093
 Alpha  occ. eigenvalues --   -0.73558  -0.72734  -0.72389  -0.71908  -0.70998
 Alpha  occ. eigenvalues --   -0.70443  -0.69509  -0.68174  -0.68144  -0.67731
 Alpha  occ. eigenvalues --   -0.67572  -0.67008  -0.66769  -0.65756  -0.65635
 Alpha  occ. eigenvalues --   -0.64857  -0.64496  -0.64166  -0.63958  -0.63681
 Alpha  occ. eigenvalues --   -0.63326  -0.62892  -0.62652  -0.61962  -0.61722
 Alpha  occ. eigenvalues --   -0.61577  -0.61101  -0.60674  -0.60145  -0.59634
 Alpha  occ. eigenvalues --   -0.59512  -0.59152  -0.59069  -0.58366  -0.58311
 Alpha  occ. eigenvalues --   -0.57485  -0.57381  -0.57176  -0.56961  -0.56392
 Alpha  occ. eigenvalues --   -0.56155  -0.55060  -0.54909  -0.54848  -0.54837
 Alpha  occ. eigenvalues --   -0.54315  -0.53764  -0.53705  -0.53232  -0.52889
 Alpha  occ. eigenvalues --   -0.52666  -0.52309  -0.51608  -0.51352  -0.51010
 Alpha  occ. eigenvalues --   -0.50800  -0.50609  -0.50448  -0.50265  -0.49976
 Alpha  occ. eigenvalues --   -0.49271  -0.48993  -0.48880  -0.48638  -0.48502
 Alpha  occ. eigenvalues --   -0.48269  -0.48169  -0.48073  -0.47727  -0.47494
 Alpha  occ. eigenvalues --   -0.47376  -0.47062  -0.46454  -0.46330  -0.46296
 Alpha  occ. eigenvalues --   -0.45972  -0.45844  -0.45688  -0.45300  -0.45178
 Alpha  occ. eigenvalues --   -0.44954  -0.44818  -0.44562  -0.44290  -0.44154
 Alpha  occ. eigenvalues --   -0.43486  -0.43182  -0.42592  -0.42441  -0.42126
 Alpha  occ. eigenvalues --   -0.41729  -0.41595  -0.40378  -0.39530  -0.38191
 Alpha  occ. eigenvalues --   -0.37345  -0.36652  -0.35282  -0.34992  -0.34541
 Alpha  occ. eigenvalues --   -0.33258  -0.33207  -0.32620  -0.31689  -0.26091
 Alpha  occ. eigenvalues --   -0.21028
 Alpha virt. eigenvalues --   -0.07694  -0.01819  -0.00191   0.01080   0.01353
 Alpha virt. eigenvalues --    0.02180   0.03209   0.03566   0.04630   0.05180
 Alpha virt. eigenvalues --    0.06703   0.07440   0.07720   0.08048   0.08178

 Mulliken charges:
               1
     1  Mg   0.430411
     2  C   -0.032977
     3  C   -0.080883
     4  C   -0.084105
     5  C   -0.080632
     6  N   -0.264731
     7  C    0.105006
     8  C    0.001997
     9  C    0.014215
    10  C    0.112978
    11  C   -0.056012
    12  C   -0.027136
    13  C    0.006413
    14  C    0.468621
    15  O   -0.523645
    16  O   -0.249644
    17  N   -0.310673
    18  C    0.099005
    19  C    0.023350
    20  C   -0.058124
    21  C    0.127339
    22  C   -0.041932
    23  C    0.336696
    24  O   -0.536186
    25  C   -0.037127
    26  N   -0.284650
    27  C    0.150880
    28  C    0.002972
    29  C    0.000916
    30  C    0.132782
    31  C   -0.045192
    32  C   -0.027191
    33  C   -0.057699
    34  N   -0.307865
    35  C    0.110856
    36  C    0.012500
    37  C   -0.041949
    38  C    0.105768
    39  C   -0.034970
    40  C    0.349065
    41  O   -0.506124
    42  C    0.048096
    43  C    0.495163
    44  O   -0.552281
    45  O   -0.240084
    46  C    0.079031
    47  C    0.110395
    48  C   -0.084848
    49  C   -0.011056
    50  C   -0.043741
    51  C   -0.030614
    52  C   -0.031708
    53  C   -0.036945
    54  C   -0.008396
    55  C   -0.057567
    56  C   -0.034170
    57  C   -0.046853
    58  C   -0.037408
    59  C   -0.013540
    60  C   -0.060914
    61  C   -0.043118
    62  C   -0.042594
    63  C   -0.036534
    64  C   -0.019305
    65  C   -0.060608
    66  C   -0.062498
    67  H    0.028708
    68  H    0.040586
    69  H    0.025813
    70  H    0.063526
    71  H    0.025208
    72  H    0.014631
    73  H    0.026672
    74  H    0.019363
    75  H    0.022058
    76  H    0.033227
    77  H    0.032675
    78  H    0.034177
    79  H    0.015026
    80  H    0.031265
    81  H    0.030825
    82  H    0.055324
    83  H    0.041252
    84  H    0.035779
    85  H    0.028203
    86  H    0.020782
    87  H    0.025657
    88  H    0.029161
    89  H    0.024723
    90  H    0.016097
    91  H    0.024512
    92  H    0.017940
    93  H    0.029019
    94  H    0.014893
    95  H    0.031213
    96  H    0.030265
    97  H    0.032351
    98  H    0.056882
    99  H    0.030883
   100  H    0.044444
   101  H    0.042372
   102  H    0.048454
   103  H    0.045757
   104  H    0.025371
   105  H    0.024034
   106  H    0.035423
   107  H    0.027699
   108  H    0.018642
   109  H    0.015205
   110  H    0.018465
   111  H    0.026841
   112  H    0.014278
   113  H    0.009678
   114  H    0.018445
   115  H    0.015744
   116  H    0.013150
   117  H    0.021048
   118  H    0.019837
   119  H    0.026943
   120  H    0.027267
   121  H    0.003017
   122  H    0.025193
   123  H    0.025611
   124  H    0.021425
   125  H    0.018981
   126  H    0.015876
   127  H    0.014153
   128  H    0.024746
   129  H    0.028085
   130  H    0.020620
   131  H    0.018453
   132  H    0.017364
   133  H    0.019426
   134  H    0.023399
   135  H    0.023361
   136  H    0.023882
   137  H    0.008981
   138  H    0.023015
   139  H    0.012177
   140  H    0.024212
 Sum of Mulliken charges =  -0.00000

 Dipole moment (field-independent basis, Debye):
    X=              5.2727    Y=              2.9288    Z=             -6.5510  Tot=              8.9048
 N-N= 4.395896084378D+03 E-N= 0.000000000000D+00  KE=-9.466624689163D+03
 Leave Link  601 at Thu Apr 28 07:30:52 2022, MaxMem=  6710886400 cpu:               0.8 elap:               0.0
 (Enter /sw/apps/gaussian-16.0/g16/l9999.exe)
 1\1\GINC-BP1-COMPUTE132\SP\RZINDO CIS\STO-3G\C55H74Mg1N4O6\OF15641\28-
 Apr-2022\0\\#p ZINDO=(nstates=5)\\step_1451_chromophore_9 ZINDO\\0,1\M
 g,0,35.462,1.316,30.278\C,0,33.294,2.592,32.76\C,0,38.058,1.486,32.629
 \C,0,37.539,0.531,27.875\C,0,32.818,1.899,27.988\N,0,35.616,1.992,32.4
 91\C,0,34.565,2.282,33.274\C,0,35.058,2.43,34.769\C,0,36.558,2.257,34.
 624\C,0,36.792,1.918,33.147\C,0,37.377,3.494,35.109\C,0,34.381,1.185,3
 5.62\C,0,33.933,1.584,37.033\C,0,34.756,2.653,37.75\O,0,34.363,3.82,37

 Normal termination of Gaussian 16 at Thu Apr 28 07:30:52 2022.
