 Gaussian 16, Revision A.03,
 Gaussian 16:  ES64L-G16RevA.03 25-Dec-2016

 ------------------------------
 #p blyp/Def2SVP td=(nstates=5)
 ------------------------------

 --------------------------------------------------
 step_401_chromophore_13 TDDFT with blyp functional
 --------------------------------------------------
 Symbolic Z-matrix:
 Charge =  0 Multiplicity = 1

                         Standard orientation:
 ---------------------------------------------------------------------
 Center     Atomic      Atomic             Coordinates (Angstroms)
 Number     Number       Type             X           Y           Z
 ---------------------------------------------------------------------
      1         12           0       -5.895208    0.438586   -0.316171
      2          6           0       -3.642355   -2.287027    0.269452
      3          6           0       -3.596242    2.647082    0.650317
      4          6           0       -8.402085    2.713933   -0.133100
      5          6           0       -8.362532   -2.123415   -0.745239
      6          7           0       -3.930726    0.192153    0.387434
      7          6           0       -3.122025   -0.944076    0.278263
      8          6           0       -1.638147   -0.658320    0.370212
      9          6           0       -1.706159    0.886923    0.673813
     10          6           0       -3.150542    1.299775    0.488740
     11          6           0       -1.108757    1.338054    2.047072
     12          6           0       -0.807990   -1.021823   -0.942727
     13          6           0        0.333198   -2.030009   -0.667342
     14          6           0        1.748639   -1.743871   -1.106305
     15          8           0        2.058301   -1.056680   -2.053997
     16          8           0        2.707326   -2.270538   -0.292847
     17          7           0       -6.019289    2.447035    0.094509
     18          6           0       -4.905536    3.191944    0.488506
     19          6           0       -5.377828    4.559818    0.826125
     20          6           0       -6.836566    4.586592    0.704961
     21          6           0       -7.162892    3.195281    0.219392
     22          6           0       -4.334095    5.663933    1.236018
     23          6           0       -7.856971    5.665606    0.960364
     24          8           0       -9.087923    5.551034    0.987553
     25          6           0       -7.209883    6.984865    1.417841
     26          7           0       -8.032372    0.309030   -0.575372
     27          6           0       -8.787470    1.434401   -0.623398
     28          6           0      -10.232343    1.043531   -0.629116
     29          6           0      -10.159841   -0.397063   -1.233554
     30          6           0       -8.779686   -0.807282   -0.743191
     31          6           0      -10.962232    1.063904    0.765929
     32          6           0      -10.337660   -0.497459   -2.750813
     33          6           0       -9.413848    0.263471   -3.698802
     34          7           0       -6.066391   -1.748785   -0.212530
     35          6           0       -7.101222   -2.604030   -0.409683
     36          6           0       -6.665552   -3.961864   -0.275263
     37          6           0       -5.257030   -3.925093   -0.060475
     38          6           0       -4.941237   -2.511799    0.050416
     39          6           0       -7.457936   -5.200561   -0.486984
     40          6           0       -4.054619   -4.634346    0.214051
     41          8           0       -3.758901   -5.856664    0.269003
     42          6           0       -2.954613   -3.599949    0.469261
     43          6           0       -2.271372   -3.846938    1.784089
     44          8           0       -2.802946   -3.733273    2.839715
     45          8           0       -0.986137   -4.315003    1.501448
     46          6           0       -0.110919   -4.478444    2.699342
     47          6           0        4.082843   -2.195848   -0.667898
     48          6           0        4.836221   -1.158183    0.119113
     49          6           0        6.131213   -0.868932   -0.062161
     50          6           0        7.041649   -1.567519   -1.059099
     51          6           0        6.777553    0.140347    0.803214
     52          6           0        7.291882    1.372401   -0.036576
     53          6           0        8.840732    1.507159    0.319373
     54          6           0        9.605329    2.123840   -0.948160
     55          6           0        9.011782    3.519671   -1.459998
     56          6           0        9.649882    1.086278   -2.129631
     57          6           0       10.981266    1.243692   -2.939440
     58          6           0       12.123017    0.227630   -2.438946
     59          6           0       13.408068    0.971284   -1.993779
     60          6           0       14.460431    1.097505   -3.159941
     61          6           0       14.059528    0.123970   -0.841840
     62          6           0       14.049241    0.882400    0.507773
     63          6           0       14.152532   -0.073041    1.716772
     64          6           0       13.186108    0.385581    2.829878
     65          6           0       13.682328   -0.055895    4.191984
     66          6           0       11.764537   -0.144032    2.618631
     67          1           0       -2.792358    3.342054    0.903570
     68          1           0       -9.257319    3.391158   -0.159528
     69          1           0       -9.085965   -2.918705   -0.936249
     70          1           0       -1.199637   -1.074069    1.277456
     71          1           0       -1.257699    1.404277   -0.174171
     72          1           0       -0.246289    1.979148    1.859300
     73          1           0       -1.019096    0.539225    2.782984
     74          1           0       -1.794936    1.973933    2.606899
     75          1           0       -0.363535   -0.084704   -1.277508
     76          1           0       -1.509033   -1.369294   -1.700133
     77          1           0        0.115167   -2.998299   -1.117491
     78          1           0        0.354014   -2.163710    0.413667
     79          1           0       -4.521244    6.554586    0.635773
     80          1           0       -3.353599    5.230049    1.037183
     81          1           0       -4.420265    5.935237    2.287383
     82          1           0       -6.766711    6.785776    2.393983
     83          1           0       -7.891397    7.810525    1.624122
     84          1           0       -6.463751    7.298213    0.687683
     85          1           0      -10.894057    1.548294   -1.333728
     86          1           0      -10.935807   -0.996876   -0.755487
     87          1           0      -10.211889    1.364220    1.497028
     88          1           0      -11.246638    0.106066    1.202176
     89          1           0      -11.812810    1.740643    0.683411
     90          1           0      -11.329919   -0.068779   -2.888441
     91          1           0      -10.456852   -1.514498   -3.124730
     92          1           0       -8.901011   -0.486123   -4.302555
     93          1           0       -8.788567    0.924162   -3.097873
     94          1           0      -10.052484    0.844160   -4.363860
     95          1           0       -7.294363   -5.825660    0.391123
     96          1           0       -7.215687   -5.720757   -1.412917
     97          1           0       -8.515048   -4.953638   -0.386382
     98          1           0       -2.251577   -3.566076   -0.362322
     99          1           0       -0.618301   -4.633870    3.650979
    100          1           0        0.335686   -3.508878    2.919494
    101          1           0        0.753432   -5.114268    2.501244
    102          1           0        4.375893   -2.042855   -1.706193
    103          1           0        4.300982   -3.232654   -0.413467
    104          1           0        4.255124   -0.520612    0.785134
    105          1           0        6.682763   -2.480620   -1.534467
    106          1           0        8.018834   -1.874616   -0.685729
    107          1           0        7.174568   -0.872417   -1.887602
    108          1           0        7.650085   -0.346600    1.239200
    109          1           0        6.126354    0.472133    1.611473
    110          1           0        6.900529    2.234956    0.503756
    111          1           0        6.998956    1.374247   -1.085900
    112          1           0        9.236677    0.496029    0.416472
    113          1           0        8.984862    2.257441    1.096599
    114          1           0       10.607333    2.402739   -0.622659
    115          1           0        8.002592    3.318317   -1.819928
    116          1           0        9.568916    4.035362   -2.241611
    117          1           0        8.993062    4.286652   -0.685236
    118          1           0        8.926943    1.331088   -2.908388
    119          1           0        9.500890    0.072302   -1.761388
    120          1           0       11.315677    2.264312   -2.754430
    121          1           0       10.746937    1.135169   -3.999062
    122          1           0       12.328979   -0.421708   -3.289896
    123          1           0       11.724339   -0.431601   -1.666899
    124          1           0       13.339291    2.030500   -1.748932
    125          1           0       14.991685    2.043890   -3.068487
    126          1           0       13.941922    1.201093   -4.113840
    127          1           0       15.014843    0.188539   -3.394877
    128          1           0       15.083605   -0.137082   -1.107657
    129          1           0       13.552079   -0.831526   -0.710880
    130          1           0       13.191326    1.554560    0.480952
    131          1           0       14.813514    1.656666    0.581619
    132          1           0       15.183390   -0.016616    2.066562
    133          1           0       13.868628   -1.063174    1.358974
    134          1           0       13.027623    1.463792    2.820797
    135          1           0       13.689842    0.865197    4.775825
    136          1           0       14.756874   -0.239521    4.156677
    137          1           0       13.113979   -0.798083    4.752912
    138          1           0       11.516081   -0.288175    1.567416
    139          1           0       11.001294    0.592887    2.869815
    140          1           0       11.389701   -0.967921    3.225424
 ---------------------------------------------------------------------

 SCF Done:  E(RB-LYP) =  -3007.35426375     A.U. after   24 cycles

 Excitation energies and oscillator strengths:

 Excited State   1:      Singlet-A      1.7850 eV  694.60 nm  f=0.2342  <S**2>=0.000
     244 -> 247       -0.33065
     245 -> 248       -0.18332
     246 -> 247        0.59748
     246 <- 247       -0.12338
 This state for optimization and/or second-order correction.
 Total Energy, E(TD-HF/TD-DFT) =  -3007.28866722
 Copying the excited state density for this state as the 1-particle RhoCI density.

 Excited State   2:      Singlet-A      1.8213 eV  680.75 nm  f=0.0798  <S**2>=0.000
     244 -> 247        0.59458
     245 -> 247       -0.15811
     245 -> 248       -0.11600
     246 -> 247        0.33174

 Excited State   3:      Singlet-A      1.9487 eV  636.24 nm  f=0.0293  <S**2>=0.000
     243 -> 247        0.37489
     244 -> 247        0.16022
     245 -> 247        0.52516
     246 -> 248        0.22632

 Excited State   4:      Singlet-A      1.9814 eV  625.74 nm  f=0.0143  <S**2>=0.000
     243 -> 247        0.59851
     245 -> 247       -0.32466
     246 -> 248       -0.15552

 Excited State   5:      Singlet-A      2.2224 eV  557.89 nm  f=0.0000  <S**2>=0.000
     242 -> 247        0.70707

 The electronic state is 1-A.
 Alpha  occ. eigenvalues --  -46.27266 -18.82578 -18.81871 -18.77789 -18.76202
 Alpha  occ. eigenvalues --  -18.76000 -18.74974 -14.04237 -14.02934 -14.01668
 Alpha  occ. eigenvalues --  -14.00546 -10.04346 -10.03892 -10.00351  -9.99236
 Alpha  occ. eigenvalues --   -9.97869  -9.97676  -9.97282  -9.97173  -9.96770
 Alpha  occ. eigenvalues --   -9.96138  -9.96113  -9.95791  -9.95474  -9.95047
 Alpha  occ. eigenvalues --   -9.94705  -9.94350  -9.94110  -9.94026  -9.93964
 Alpha  occ. eigenvalues --   -9.93872  -9.93816  -9.93814  -9.93676  -9.93576
 Alpha  occ. eigenvalues --   -9.93364  -9.93194  -9.93132  -9.92798  -9.92566
 Alpha  occ. eigenvalues --   -9.92550  -9.92511  -9.92307  -9.92159  -9.92137
 Alpha  occ. eigenvalues --   -9.92132  -9.92126  -9.92107  -9.91945  -9.91942
 Alpha  occ. eigenvalues --   -9.91861  -9.91746  -9.91724  -9.91544  -9.91520
 Alpha  occ. eigenvalues --   -9.91385  -9.91341  -9.91331  -9.91319  -9.91291
 Alpha  occ. eigenvalues --   -9.90997  -9.90788  -9.90743  -9.90700  -9.90597
 Alpha  occ. eigenvalues --   -9.90370  -2.91905  -1.72325  -1.71752  -1.71651
 Alpha  occ. eigenvalues --   -0.98684  -0.98000  -0.91216  -0.90871  -0.90102
 Alpha  occ. eigenvalues --   -0.89101  -0.86749  -0.86339  -0.85155  -0.84373
 Alpha  occ. eigenvalues --   -0.76723  -0.73912  -0.72970  -0.72731  -0.72100
 Alpha  occ. eigenvalues --   -0.71696  -0.71599  -0.70883  -0.70582  -0.70080
 Alpha  occ. eigenvalues --   -0.69667  -0.69525  -0.68043  -0.67585  -0.67205
 Alpha  occ. eigenvalues --   -0.66319  -0.65884  -0.65263  -0.65088  -0.64343
 Alpha  occ. eigenvalues --   -0.63565  -0.62766  -0.62412  -0.61812  -0.60995
 Alpha  occ. eigenvalues --   -0.60850  -0.60395  -0.59961  -0.59365  -0.58976
 Alpha  occ. eigenvalues --   -0.58494  -0.57736  -0.57438  -0.56292  -0.54798
 Alpha  occ. eigenvalues --   -0.54463  -0.54065  -0.52915  -0.52727  -0.51935
 Alpha  occ. eigenvalues --   -0.51240  -0.50964  -0.50823  -0.50290  -0.50254
 Alpha  occ. eigenvalues --   -0.49273  -0.48934  -0.48368  -0.48092  -0.46909
 Alpha  occ. eigenvalues --   -0.46612  -0.46264  -0.46068  -0.45555  -0.45085
 Alpha  occ. eigenvalues --   -0.44525  -0.44103  -0.43187  -0.42596  -0.42332
 Alpha  occ. eigenvalues --   -0.42222  -0.41938  -0.41614  -0.41397  -0.41364
 Alpha  occ. eigenvalues --   -0.41072  -0.40620  -0.40399  -0.40317  -0.40204
 Alpha  occ. eigenvalues --   -0.39777  -0.39694  -0.39522  -0.39437  -0.39089
 Alpha  occ. eigenvalues --   -0.38998  -0.38919  -0.38726  -0.38439  -0.38381
 Alpha  occ. eigenvalues --   -0.38043  -0.37892  -0.37855  -0.37584  -0.37138
 Alpha  occ. eigenvalues --   -0.36921  -0.36911  -0.36814  -0.36415  -0.36329
 Alpha  occ. eigenvalues --   -0.36220  -0.36137  -0.35932  -0.35749  -0.35704
 Alpha  occ. eigenvalues --   -0.35430  -0.35343  -0.35243  -0.34786  -0.34699
 Alpha  occ. eigenvalues --   -0.34532  -0.34304  -0.34131  -0.33971  -0.33851
 Alpha  occ. eigenvalues --   -0.33648  -0.33510  -0.33008  -0.32957  -0.32881
 Alpha  occ. eigenvalues --   -0.32772  -0.32511  -0.32443  -0.32303  -0.32204
 Alpha  occ. eigenvalues --   -0.32107  -0.31888  -0.31726  -0.31559  -0.31478
 Alpha  occ. eigenvalues --   -0.31313  -0.31176  -0.31033  -0.30885  -0.30817
 Alpha  occ. eigenvalues --   -0.30449  -0.30313  -0.30293  -0.30060  -0.29748
 Alpha  occ. eigenvalues --   -0.29689  -0.29654  -0.29545  -0.29372  -0.29261
 Alpha  occ. eigenvalues --   -0.29089  -0.28834  -0.28481  -0.28371  -0.28275
 Alpha  occ. eigenvalues --   -0.28013  -0.27346  -0.27067  -0.26768  -0.26751
 Alpha  occ. eigenvalues --   -0.26361  -0.26169  -0.26105  -0.25589  -0.25291
 Alpha  occ. eigenvalues --   -0.24929  -0.24469  -0.24443  -0.23672  -0.23559
 Alpha  occ. eigenvalues --   -0.23156  -0.22925  -0.21978  -0.21516  -0.21005
 Alpha  occ. eigenvalues --   -0.20276  -0.19900  -0.18886  -0.18266  -0.17522
 Alpha  occ. eigenvalues --   -0.16047
 Alpha virt. eigenvalues --   -0.11733  -0.07767  -0.07094  -0.04870  -0.03073
 Alpha virt. eigenvalues --   -0.02720  -0.02357  -0.01915  -0.01462  -0.00112
 Alpha virt. eigenvalues --    0.01171   0.01714   0.01746   0.02203   0.02593

 Mulliken charges:
               1
     1  Mg   0.685431
     2  C   -0.069353
     3  C   -0.060169
     4  C   -0.061393
     5  C   -0.094980
     6  N   -0.253514
     7  C   -0.083498
     8  C   -0.013256
     9  C    0.005026
    10  C    0.025485
    11  C    0.140808
    12  C    0.163845
    13  C    0.109656
    14  C    0.034498
    15  O   -0.183334
    16  O   -0.255891
    17  N   -0.325299
    18  C    0.156909
    19  C   -0.149476
    20  C    0.014054
    21  C    0.143020
    22  C    0.164475
    23  C   -0.046573
    24  O   -0.164925
    25  C    0.107213
    26  N   -0.195403
    27  C    0.028528
    28  C   -0.007215
    29  C    0.026539
    30  C    0.050407
    31  C    0.136217
    32  C    0.071303
    33  C    0.080534
    34  N   -0.221003
    35  C    0.120163
    36  C   -0.193697
    37  C    0.113742
    38  C    0.085542
    39  C    0.188539
    40  C   -0.076674
    41  O   -0.171640
    42  C    0.160344
    43  C    0.118285
    44  O   -0.128931
    45  O   -0.291204
    46  C    0.223201
    47  C    0.310708
    48  C   -0.108232
    49  C   -0.127398
    50  C    0.121126
    51  C    0.156282
    52  C    0.036450
    53  C    0.064247
    54  C   -0.081558
    55  C    0.063283
    56  C    0.087422
    57  C    0.046466
    58  C    0.121608
    59  C   -0.074952
    60  C    0.090176
    61  C    0.117366
    62  C    0.022774
    63  C    0.143620
    64  C   -0.088399
    65  C    0.134712
    66  C    0.074067
    67  H   -0.058967
    68  H   -0.035134
    69  H   -0.066401
    70  H   -0.012086
    71  H   -0.026532
    72  H    0.002411
    73  H   -0.002420
    74  H   -0.015825
    75  H   -0.010533
    76  H   -0.013677
    77  H    0.024903
    78  H   -0.004009
    79  H    0.005719
    80  H   -0.012421
    81  H    0.011235
    82  H    0.008462
    83  H   -0.014092
    84  H    0.004497
    85  H   -0.041711
    86  H   -0.052116
    87  H   -0.006956
    88  H   -0.010909
    89  H    0.010166
    90  H   -0.034711
    91  H   -0.026615
    92  H   -0.003415
    93  H    0.012264
    94  H   -0.012857
    95  H    0.003586
    96  H    0.024895
    97  H   -0.028727
    98  H   -0.011137
    99  H    0.022150
   100  H   -0.011838
   101  H    0.026388
   102  H    0.008906
   103  H   -0.004420
   104  H   -0.043776
   105  H   -0.020035
   106  H    0.000547
   107  H    0.007894
   108  H   -0.025348
   109  H   -0.039344
   110  H   -0.027469
   111  H    0.014554
   112  H    0.003411
   113  H   -0.014581
   114  H   -0.027955
   115  H   -0.008756
   116  H   -0.015654
   117  H   -0.021823
   118  H   -0.032908
   119  H   -0.029046
   120  H   -0.023064
   121  H   -0.032945
   122  H   -0.033347
   123  H   -0.025482
   124  H   -0.028462
   125  H   -0.013904
   126  H   -0.041170
   127  H   -0.015027
   128  H   -0.038776
   129  H   -0.035973
   130  H   -0.030360
   131  H   -0.039971
   132  H   -0.029294
   133  H   -0.025230
   134  H   -0.027938
   135  H   -0.035262
   136  H   -0.033634
   137  H   -0.004316
   138  H   -0.017472
   139  H   -0.033721
   140  H   -0.018541
 Sum of Mulliken charges =  -0.00000

 Dipole moment (field-independent basis, Debye):
    X=              3.6275    Y=              3.0543    Z=             -0.8161  Tot=              4.8118
 Quadrupole moment (field-independent basis, Debye-Ang):
   XX=           -397.1560   YY=           -428.1115   ZZ=           -406.9948
   XY=             10.1253   XZ=             22.7975   YZ=              8.5091

 Normal termination of Gaussian 16 at Fri Apr 29 17:22:24 2022.
