 Gaussian 16, Revision A.03,
 Gaussian 16:  ES64L-G16RevA.03 25-Dec-2016

 -----------------------------------
 #p cam-b3lyp/Def2SVP td=(nstates=5)
 -----------------------------------

 -------------------------------------------------------
 step_401_chromophore_13 TDDFT with cam-b3lyp functional
 -------------------------------------------------------
 Symbolic Z-matrix:
 Charge =  0 Multiplicity = 1

                         Standard orientation:
 ---------------------------------------------------------------------
 Center     Atomic      Atomic             Coordinates (Angstroms)
 Number     Number       Type             X           Y           Z
 ---------------------------------------------------------------------
      1         12           0       -5.895208    0.438586   -0.316171
      2          6           0       -3.642355   -2.287027    0.269452
      3          6           0       -3.596242    2.647082    0.650317
      4          6           0       -8.402085    2.713933   -0.133100
      5          6           0       -8.362532   -2.123415   -0.745239
      6          7           0       -3.930726    0.192153    0.387434
      7          6           0       -3.122025   -0.944076    0.278263
      8          6           0       -1.638147   -0.658320    0.370212
      9          6           0       -1.706159    0.886923    0.673813
     10          6           0       -3.150542    1.299775    0.488740
     11          6           0       -1.108757    1.338054    2.047072
     12          6           0       -0.807990   -1.021823   -0.942727
     13          6           0        0.333198   -2.030009   -0.667342
     14          6           0        1.748639   -1.743871   -1.106305
     15          8           0        2.058301   -1.056680   -2.053997
     16          8           0        2.707326   -2.270538   -0.292847
     17          7           0       -6.019289    2.447035    0.094509
     18          6           0       -4.905536    3.191944    0.488506
     19          6           0       -5.377828    4.559818    0.826125
     20          6           0       -6.836566    4.586592    0.704961
     21          6           0       -7.162892    3.195281    0.219392
     22          6           0       -4.334095    5.663933    1.236018
     23          6           0       -7.856971    5.665606    0.960364
     24          8           0       -9.087923    5.551034    0.987553
     25          6           0       -7.209883    6.984865    1.417841
     26          7           0       -8.032372    0.309030   -0.575372
     27          6           0       -8.787470    1.434401   -0.623398
     28          6           0      -10.232343    1.043531   -0.629116
     29          6           0      -10.159841   -0.397063   -1.233554
     30          6           0       -8.779686   -0.807282   -0.743191
     31          6           0      -10.962232    1.063904    0.765929
     32          6           0      -10.337660   -0.497459   -2.750813
     33          6           0       -9.413848    0.263471   -3.698802
     34          7           0       -6.066391   -1.748785   -0.212530
     35          6           0       -7.101222   -2.604030   -0.409683
     36          6           0       -6.665552   -3.961864   -0.275263
     37          6           0       -5.257030   -3.925093   -0.060475
     38          6           0       -4.941237   -2.511799    0.050416
     39          6           0       -7.457936   -5.200561   -0.486984
     40          6           0       -4.054619   -4.634346    0.214051
     41          8           0       -3.758901   -5.856664    0.269003
     42          6           0       -2.954613   -3.599949    0.469261
     43          6           0       -2.271372   -3.846938    1.784089
     44          8           0       -2.802946   -3.733273    2.839715
     45          8           0       -0.986137   -4.315003    1.501448
     46          6           0       -0.110919   -4.478444    2.699342
     47          6           0        4.082843   -2.195848   -0.667898
     48          6           0        4.836221   -1.158183    0.119113
     49          6           0        6.131213   -0.868932   -0.062161
     50          6           0        7.041649   -1.567519   -1.059099
     51          6           0        6.777553    0.140347    0.803214
     52          6           0        7.291882    1.372401   -0.036576
     53          6           0        8.840732    1.507159    0.319373
     54          6           0        9.605329    2.123840   -0.948160
     55          6           0        9.011782    3.519671   -1.459998
     56          6           0        9.649882    1.086278   -2.129631
     57          6           0       10.981266    1.243692   -2.939440
     58          6           0       12.123017    0.227630   -2.438946
     59          6           0       13.408068    0.971284   -1.993779
     60          6           0       14.460431    1.097505   -3.159941
     61          6           0       14.059528    0.123970   -0.841840
     62          6           0       14.049241    0.882400    0.507773
     63          6           0       14.152532   -0.073041    1.716772
     64          6           0       13.186108    0.385581    2.829878
     65          6           0       13.682328   -0.055895    4.191984
     66          6           0       11.764537   -0.144032    2.618631
     67          1           0       -2.792358    3.342054    0.903570
     68          1           0       -9.257319    3.391158   -0.159528
     69          1           0       -9.085965   -2.918705   -0.936249
     70          1           0       -1.199637   -1.074069    1.277456
     71          1           0       -1.257699    1.404277   -0.174171
     72          1           0       -0.246289    1.979148    1.859300
     73          1           0       -1.019096    0.539225    2.782984
     74          1           0       -1.794936    1.973933    2.606899
     75          1           0       -0.363535   -0.084704   -1.277508
     76          1           0       -1.509033   -1.369294   -1.700133
     77          1           0        0.115167   -2.998299   -1.117491
     78          1           0        0.354014   -2.163710    0.413667
     79          1           0       -4.521244    6.554586    0.635773
     80          1           0       -3.353599    5.230049    1.037183
     81          1           0       -4.420265    5.935237    2.287383
     82          1           0       -6.766711    6.785776    2.393983
     83          1           0       -7.891397    7.810525    1.624122
     84          1           0       -6.463751    7.298213    0.687683
     85          1           0      -10.894057    1.548294   -1.333728
     86          1           0      -10.935807   -0.996876   -0.755487
     87          1           0      -10.211889    1.364220    1.497028
     88          1           0      -11.246638    0.106066    1.202176
     89          1           0      -11.812810    1.740643    0.683411
     90          1           0      -11.329919   -0.068779   -2.888441
     91          1           0      -10.456852   -1.514498   -3.124730
     92          1           0       -8.901011   -0.486123   -4.302555
     93          1           0       -8.788567    0.924162   -3.097873
     94          1           0      -10.052484    0.844160   -4.363860
     95          1           0       -7.294363   -5.825660    0.391123
     96          1           0       -7.215687   -5.720757   -1.412917
     97          1           0       -8.515048   -4.953638   -0.386382
     98          1           0       -2.251577   -3.566076   -0.362322
     99          1           0       -0.618301   -4.633870    3.650979
    100          1           0        0.335686   -3.508878    2.919494
    101          1           0        0.753432   -5.114268    2.501244
    102          1           0        4.375893   -2.042855   -1.706193
    103          1           0        4.300982   -3.232654   -0.413467
    104          1           0        4.255124   -0.520612    0.785134
    105          1           0        6.682763   -2.480620   -1.534467
    106          1           0        8.018834   -1.874616   -0.685729
    107          1           0        7.174568   -0.872417   -1.887602
    108          1           0        7.650085   -0.346600    1.239200
    109          1           0        6.126354    0.472133    1.611473
    110          1           0        6.900529    2.234956    0.503756
    111          1           0        6.998956    1.374247   -1.085900
    112          1           0        9.236677    0.496029    0.416472
    113          1           0        8.984862    2.257441    1.096599
    114          1           0       10.607333    2.402739   -0.622659
    115          1           0        8.002592    3.318317   -1.819928
    116          1           0        9.568916    4.035362   -2.241611
    117          1           0        8.993062    4.286652   -0.685236
    118          1           0        8.926943    1.331088   -2.908388
    119          1           0        9.500890    0.072302   -1.761388
    120          1           0       11.315677    2.264312   -2.754430
    121          1           0       10.746937    1.135169   -3.999062
    122          1           0       12.328979   -0.421708   -3.289896
    123          1           0       11.724339   -0.431601   -1.666899
    124          1           0       13.339291    2.030500   -1.748932
    125          1           0       14.991685    2.043890   -3.068487
    126          1           0       13.941922    1.201093   -4.113840
    127          1           0       15.014843    0.188539   -3.394877
    128          1           0       15.083605   -0.137082   -1.107657
    129          1           0       13.552079   -0.831526   -0.710880
    130          1           0       13.191326    1.554560    0.480952
    131          1           0       14.813514    1.656666    0.581619
    132          1           0       15.183390   -0.016616    2.066562
    133          1           0       13.868628   -1.063174    1.358974
    134          1           0       13.027623    1.463792    2.820797
    135          1           0       13.689842    0.865197    4.775825
    136          1           0       14.756874   -0.239521    4.156677
    137          1           0       13.113979   -0.798083    4.752912
    138          1           0       11.516081   -0.288175    1.567416
    139          1           0       11.001294    0.592887    2.869815
    140          1           0       11.389701   -0.967921    3.225424
 ---------------------------------------------------------------------

 SCF Done:  E(RCAM-B3LYP) =  -3007.14321598     A.U. after   17 cycles

 Excitation energies and oscillator strengths:

 Excited State   1:      Singlet-A      1.7112 eV  724.53 nm  f=0.3855  <S**2>=0.000
     245 -> 248       -0.20001
     246 -> 247        0.67999
     245 <- 248       -0.11012
 This state for optimization and/or second-order correction.
 Total Energy, E(TD-HF/TD-DFT) =  -3007.08032886
 Copying the excited state density for this state as the 1-particle RhoCI density.

 Excited State   2:      Singlet-A      2.1984 eV  563.97 nm  f=0.0491  <S**2>=0.000
     245 -> 247        0.61038
     246 -> 248        0.34714

 Excited State   3:      Singlet-A      3.3135 eV  374.18 nm  f=0.0033  <S**2>=0.000
     239 -> 247        0.11225
     241 -> 247        0.43804
     241 -> 249        0.27942
     241 -> 250       -0.18716
     242 -> 247        0.26067
     242 -> 249        0.14347
     243 -> 247       -0.10474
     244 -> 247        0.16349

 Excited State   4:      Singlet-A      3.3234 eV  373.06 nm  f=0.4945  <S**2>=0.000
     241 -> 247        0.15143
     243 -> 247        0.15145
     244 -> 247       -0.24089
     245 -> 247       -0.28708
     246 -> 248        0.55181

 Excited State   5:      Singlet-A      3.4211 eV  362.41 nm  f=0.1601  <S**2>=0.000
     242 -> 247       -0.29677
     243 -> 247       -0.29836
     244 -> 247        0.48119
     245 -> 247       -0.15277
     246 -> 248        0.22133

 The electronic state is 1-A.
 Alpha  occ. eigenvalues --  -46.88836 -19.25502 -19.24724 -19.20936 -19.19360
 Alpha  occ. eigenvalues --  -19.19191 -19.18154 -14.43230 -14.41776 -14.40215
 Alpha  occ. eigenvalues --  -14.38928 -10.39792 -10.39138 -10.35767 -10.34583
 Alpha  occ. eigenvalues --  -10.31910 -10.31821 -10.31727 -10.31590 -10.31307
 Alpha  occ. eigenvalues --  -10.30656 -10.30609 -10.30432 -10.30035 -10.29151
 Alpha  occ. eigenvalues --  -10.28796 -10.28426 -10.28355 -10.28278 -10.28204
 Alpha  occ. eigenvalues --  -10.28101 -10.28058 -10.27938 -10.27876 -10.27848
 Alpha  occ. eigenvalues --  -10.27635 -10.27014 -10.26934 -10.26625 -10.26573
 Alpha  occ. eigenvalues --  -10.26402 -10.26295 -10.26221 -10.26203 -10.25980
 Alpha  occ. eigenvalues --  -10.25906 -10.25867 -10.25792 -10.25761 -10.25657
 Alpha  occ. eigenvalues --  -10.25562 -10.25507 -10.25399 -10.25375 -10.25287
 Alpha  occ. eigenvalues --  -10.25231 -10.25061 -10.25055 -10.25046 -10.24978
 Alpha  occ. eigenvalues --  -10.24634 -10.24423 -10.24413 -10.24312 -10.24177
 Alpha  occ. eigenvalues --  -10.23914  -3.17378  -1.92273  -1.91808  -1.91703
 Alpha  occ. eigenvalues --   -1.17172  -1.16622  -1.09376  -1.09140  -1.08005
 Alpha  occ. eigenvalues --   -1.07420  -1.04487  -1.04054  -1.02698  -1.01921
 Alpha  occ. eigenvalues --   -0.93926  -0.90792  -0.89744  -0.89502  -0.88796
 Alpha  occ. eigenvalues --   -0.88373  -0.88189  -0.87456  -0.87130  -0.86670
 Alpha  occ. eigenvalues --   -0.86355  -0.85921  -0.84255  -0.83738  -0.83361
 Alpha  occ. eigenvalues --   -0.82309  -0.81918  -0.81259  -0.80920  -0.80319
 Alpha  occ. eigenvalues --   -0.79296  -0.78432  -0.78141  -0.77392  -0.76384
 Alpha  occ. eigenvalues --   -0.76224  -0.75748  -0.75217  -0.74626  -0.74121
 Alpha  occ. eigenvalues --   -0.73639  -0.72726  -0.72423  -0.71138  -0.69398
 Alpha  occ. eigenvalues --   -0.69147  -0.68592  -0.67433  -0.67168  -0.66105
 Alpha  occ. eigenvalues --   -0.65329  -0.65179  -0.64820  -0.64324  -0.64227
 Alpha  occ. eigenvalues --   -0.62984  -0.62820  -0.62069  -0.61880  -0.60438
 Alpha  occ. eigenvalues --   -0.60276  -0.59905  -0.59519  -0.59077  -0.58693
 Alpha  occ. eigenvalues --   -0.58107  -0.57438  -0.56290  -0.55797  -0.55360
 Alpha  occ. eigenvalues --   -0.55114  -0.55022  -0.54748  -0.54455  -0.54357
 Alpha  occ. eigenvalues --   -0.54101  -0.53431  -0.53293  -0.53099  -0.52769
 Alpha  occ. eigenvalues --   -0.52487  -0.52430  -0.52264  -0.52240  -0.51856
 Alpha  occ. eigenvalues --   -0.51680  -0.51498  -0.51392  -0.50900  -0.50758
 Alpha  occ. eigenvalues --   -0.50342  -0.50219  -0.50090  -0.49818  -0.49651
 Alpha  occ. eigenvalues --   -0.49411  -0.49140  -0.49079  -0.48904  -0.48666
 Alpha  occ. eigenvalues --   -0.48401  -0.48270  -0.48189  -0.47916  -0.47854
 Alpha  occ. eigenvalues --   -0.47602  -0.47457  -0.47368  -0.46831  -0.46605
 Alpha  occ. eigenvalues --   -0.46276  -0.46257  -0.46001  -0.45653  -0.45585
 Alpha  occ. eigenvalues --   -0.45418  -0.45251  -0.44787  -0.44686  -0.44506
 Alpha  occ. eigenvalues --   -0.44379  -0.44356  -0.44044  -0.43861  -0.43765
 Alpha  occ. eigenvalues --   -0.43661  -0.43558  -0.43342  -0.43297  -0.42927
 Alpha  occ. eigenvalues --   -0.42809  -0.42688  -0.42503  -0.42413  -0.42349
 Alpha  occ. eigenvalues --   -0.42121  -0.41891  -0.41577  -0.41533  -0.41206
 Alpha  occ. eigenvalues --   -0.41114  -0.40798  -0.40677  -0.40513  -0.40342
 Alpha  occ. eigenvalues --   -0.40144  -0.39795  -0.39488  -0.39470  -0.39314
 Alpha  occ. eigenvalues --   -0.38923  -0.38142  -0.38120  -0.37699  -0.37447
 Alpha  occ. eigenvalues --   -0.37163  -0.37125  -0.36894  -0.36852  -0.36497
 Alpha  occ. eigenvalues --   -0.35993  -0.35414  -0.35173  -0.34074  -0.33919
 Alpha  occ. eigenvalues --   -0.33876  -0.33754  -0.33623  -0.31282  -0.31220
 Alpha  occ. eigenvalues --   -0.30664  -0.30332  -0.29433  -0.29424  -0.24335
 Alpha  occ. eigenvalues --   -0.21262
 Alpha virt. eigenvalues --   -0.08723  -0.02892  -0.00824   0.01960   0.01978
 Alpha virt. eigenvalues --    0.04654   0.05010   0.05584   0.06154   0.07109
 Alpha virt. eigenvalues --    0.07798   0.07862   0.08152   0.08514   0.08771

 Mulliken charges:
               1
     1  Mg   0.817077
     2  C   -0.089612
     3  C   -0.075947
     4  C   -0.080801
     5  C   -0.097303
     6  N   -0.321342
     7  C   -0.038778
     8  C   -0.064448
     9  C   -0.048767
    10  C    0.046107
    11  C    0.074344
    12  C    0.110623
    13  C    0.036561
    14  C    0.122887
    15  O   -0.224154
    16  O   -0.320691
    17  N   -0.412982
    18  C    0.162780
    19  C   -0.153146
    20  C   -0.051162
    21  C    0.166135
    22  C    0.114662
    23  C    0.033507
    24  O   -0.204288
    25  C    0.026540
    26  N   -0.263626
    27  C    0.046667
    28  C   -0.071872
    29  C   -0.032664
    30  C    0.065378
    31  C    0.080383
    32  C    0.023348
    33  C    0.017334
    34  N   -0.306265
    35  C    0.122840
    36  C   -0.187320
    37  C    0.036681
    38  C    0.115285
    39  C    0.135902
    40  C    0.023668
    41  O   -0.210559
    42  C    0.082184
    43  C    0.202541
    44  O   -0.165532
    45  O   -0.355779
    46  C    0.181409
    47  C    0.274869
    48  C   -0.126145
    49  C   -0.151182
    50  C    0.059237
    51  C    0.099264
    52  C   -0.027545
    53  C    0.024572
    54  C   -0.131951
    55  C    0.011348
    56  C    0.032403
    57  C    0.001595
    58  C    0.069389
    59  C   -0.135924
    60  C    0.034827
    61  C    0.065337
    62  C   -0.023848
    63  C    0.082645
    64  C   -0.147174
    65  C    0.069870
    66  C    0.022353
    67  H   -0.024863
    68  H    0.005043
    69  H   -0.030526
    70  H    0.018878
    71  H    0.009110
    72  H    0.027278
    73  H    0.023544
    74  H    0.011383
    75  H    0.022963
    76  H    0.018062
    77  H    0.054485
    78  H    0.026484
    79  H    0.030725
    80  H    0.013910
    81  H    0.037491
    82  H    0.035488
    83  H    0.022089
    84  H    0.029794
    85  H   -0.004462
    86  H   -0.014022
    87  H    0.018830
    88  H    0.014669
    89  H    0.033255
    90  H   -0.006424
    91  H    0.002205
    92  H    0.020423
    93  H    0.031229
    94  H    0.011659
    95  H    0.031270
    96  H    0.050242
    97  H   -0.003556
    98  H    0.031009
    99  H    0.049103
   100  H    0.008315
   101  H    0.050539
   102  H    0.038843
   103  H    0.024550
   104  H   -0.009038
   105  H    0.007124
   106  H    0.024059
   107  H    0.030676
   108  H    0.003398
   109  H   -0.006968
   110  H    0.003100
   111  H    0.038502
   112  H    0.022300
   113  H    0.012403
   114  H   -0.000251
   115  H    0.012055
   116  H    0.008684
   117  H    0.002476
   118  H   -0.004609
   119  H   -0.004995
   120  H    0.000804
   121  H   -0.003770
   122  H   -0.003629
   123  H   -0.000159
   124  H    0.001815
   125  H    0.010774
   126  H   -0.016221
   127  H    0.009024
   128  H   -0.008827
   129  H   -0.009005
   130  H   -0.006444
   131  H   -0.011248
   132  H    0.000357
   133  H    0.003072
   134  H    0.004096
   135  H   -0.009592
   136  H   -0.007214
   137  H    0.019720
   138  H    0.000350
   139  H   -0.009664
   140  H    0.006090
 Sum of Mulliken charges =  -0.00000

 Dipole moment (field-independent basis, Debye):
    X=              3.6357    Y=              3.7676    Z=             -0.7073  Tot=              5.2834
 Quadrupole moment (field-independent basis, Debye-Ang):
   XX=           -396.6978   YY=           -423.5762   ZZ=           -406.8195
   XY=              7.0671   XZ=             22.6943   YZ=              9.8685

 Normal termination of Gaussian 16 at Fri Apr 29 16:20:53 2022.
