 Gaussian 16, Revision A.03,
 Gaussian 16:  ES64L-G16RevA.03 25-Dec-2016

 ---------------------------------
 #p PBE1PBE/Def2SVP td=(nstates=5)
 ---------------------------------

 -----------------------------------------------------
 step_401_chromophore_13 TDDFT with PBE1PBE functional
 -----------------------------------------------------
 Symbolic Z-matrix:
 Charge =  0 Multiplicity = 1

                         Standard orientation:
 ---------------------------------------------------------------------
 Center     Atomic      Atomic             Coordinates (Angstroms)
 Number     Number       Type             X           Y           Z
 ---------------------------------------------------------------------
      1         12           0       -5.895208    0.438586   -0.316171
      2          6           0       -3.642355   -2.287027    0.269452
      3          6           0       -3.596242    2.647082    0.650317
      4          6           0       -8.402085    2.713933   -0.133100
      5          6           0       -8.362532   -2.123415   -0.745239
      6          7           0       -3.930726    0.192153    0.387434
      7          6           0       -3.122025   -0.944076    0.278263
      8          6           0       -1.638147   -0.658320    0.370212
      9          6           0       -1.706159    0.886923    0.673813
     10          6           0       -3.150542    1.299775    0.488740
     11          6           0       -1.108757    1.338054    2.047072
     12          6           0       -0.807990   -1.021823   -0.942727
     13          6           0        0.333198   -2.030009   -0.667342
     14          6           0        1.748639   -1.743871   -1.106305
     15          8           0        2.058301   -1.056680   -2.053997
     16          8           0        2.707326   -2.270538   -0.292847
     17          7           0       -6.019289    2.447035    0.094509
     18          6           0       -4.905536    3.191944    0.488506
     19          6           0       -5.377828    4.559818    0.826125
     20          6           0       -6.836566    4.586592    0.704961
     21          6           0       -7.162892    3.195281    0.219392
     22          6           0       -4.334095    5.663933    1.236018
     23          6           0       -7.856971    5.665606    0.960364
     24          8           0       -9.087923    5.551034    0.987553
     25          6           0       -7.209883    6.984865    1.417841
     26          7           0       -8.032372    0.309030   -0.575372
     27          6           0       -8.787470    1.434401   -0.623398
     28          6           0      -10.232343    1.043531   -0.629116
     29          6           0      -10.159841   -0.397063   -1.233554
     30          6           0       -8.779686   -0.807282   -0.743191
     31          6           0      -10.962232    1.063904    0.765929
     32          6           0      -10.337660   -0.497459   -2.750813
     33          6           0       -9.413848    0.263471   -3.698802
     34          7           0       -6.066391   -1.748785   -0.212530
     35          6           0       -7.101222   -2.604030   -0.409683
     36          6           0       -6.665552   -3.961864   -0.275263
     37          6           0       -5.257030   -3.925093   -0.060475
     38          6           0       -4.941237   -2.511799    0.050416
     39          6           0       -7.457936   -5.200561   -0.486984
     40          6           0       -4.054619   -4.634346    0.214051
     41          8           0       -3.758901   -5.856664    0.269003
     42          6           0       -2.954613   -3.599949    0.469261
     43          6           0       -2.271372   -3.846938    1.784089
     44          8           0       -2.802946   -3.733273    2.839715
     45          8           0       -0.986137   -4.315003    1.501448
     46          6           0       -0.110919   -4.478444    2.699342
     47          6           0        4.082843   -2.195848   -0.667898
     48          6           0        4.836221   -1.158183    0.119113
     49          6           0        6.131213   -0.868932   -0.062161
     50          6           0        7.041649   -1.567519   -1.059099
     51          6           0        6.777553    0.140347    0.803214
     52          6           0        7.291882    1.372401   -0.036576
     53          6           0        8.840732    1.507159    0.319373
     54          6           0        9.605329    2.123840   -0.948160
     55          6           0        9.011782    3.519671   -1.459998
     56          6           0        9.649882    1.086278   -2.129631
     57          6           0       10.981266    1.243692   -2.939440
     58          6           0       12.123017    0.227630   -2.438946
     59          6           0       13.408068    0.971284   -1.993779
     60          6           0       14.460431    1.097505   -3.159941
     61          6           0       14.059528    0.123970   -0.841840
     62          6           0       14.049241    0.882400    0.507773
     63          6           0       14.152532   -0.073041    1.716772
     64          6           0       13.186108    0.385581    2.829878
     65          6           0       13.682328   -0.055895    4.191984
     66          6           0       11.764537   -0.144032    2.618631
     67          1           0       -2.792358    3.342054    0.903570
     68          1           0       -9.257319    3.391158   -0.159528
     69          1           0       -9.085965   -2.918705   -0.936249
     70          1           0       -1.199637   -1.074069    1.277456
     71          1           0       -1.257699    1.404277   -0.174171
     72          1           0       -0.246289    1.979148    1.859300
     73          1           0       -1.019096    0.539225    2.782984
     74          1           0       -1.794936    1.973933    2.606899
     75          1           0       -0.363535   -0.084704   -1.277508
     76          1           0       -1.509033   -1.369294   -1.700133
     77          1           0        0.115167   -2.998299   -1.117491
     78          1           0        0.354014   -2.163710    0.413667
     79          1           0       -4.521244    6.554586    0.635773
     80          1           0       -3.353599    5.230049    1.037183
     81          1           0       -4.420265    5.935237    2.287383
     82          1           0       -6.766711    6.785776    2.393983
     83          1           0       -7.891397    7.810525    1.624122
     84          1           0       -6.463751    7.298213    0.687683
     85          1           0      -10.894057    1.548294   -1.333728
     86          1           0      -10.935807   -0.996876   -0.755487
     87          1           0      -10.211889    1.364220    1.497028
     88          1           0      -11.246638    0.106066    1.202176
     89          1           0      -11.812810    1.740643    0.683411
     90          1           0      -11.329919   -0.068779   -2.888441
     91          1           0      -10.456852   -1.514498   -3.124730
     92          1           0       -8.901011   -0.486123   -4.302555
     93          1           0       -8.788567    0.924162   -3.097873
     94          1           0      -10.052484    0.844160   -4.363860
     95          1           0       -7.294363   -5.825660    0.391123
     96          1           0       -7.215687   -5.720757   -1.412917
     97          1           0       -8.515048   -4.953638   -0.386382
     98          1           0       -2.251577   -3.566076   -0.362322
     99          1           0       -0.618301   -4.633870    3.650979
    100          1           0        0.335686   -3.508878    2.919494
    101          1           0        0.753432   -5.114268    2.501244
    102          1           0        4.375893   -2.042855   -1.706193
    103          1           0        4.300982   -3.232654   -0.413467
    104          1           0        4.255124   -0.520612    0.785134
    105          1           0        6.682763   -2.480620   -1.534467
    106          1           0        8.018834   -1.874616   -0.685729
    107          1           0        7.174568   -0.872417   -1.887602
    108          1           0        7.650085   -0.346600    1.239200
    109          1           0        6.126354    0.472133    1.611473
    110          1           0        6.900529    2.234956    0.503756
    111          1           0        6.998956    1.374247   -1.085900
    112          1           0        9.236677    0.496029    0.416472
    113          1           0        8.984862    2.257441    1.096599
    114          1           0       10.607333    2.402739   -0.622659
    115          1           0        8.002592    3.318317   -1.819928
    116          1           0        9.568916    4.035362   -2.241611
    117          1           0        8.993062    4.286652   -0.685236
    118          1           0        8.926943    1.331088   -2.908388
    119          1           0        9.500890    0.072302   -1.761388
    120          1           0       11.315677    2.264312   -2.754430
    121          1           0       10.746937    1.135169   -3.999062
    122          1           0       12.328979   -0.421708   -3.289896
    123          1           0       11.724339   -0.431601   -1.666899
    124          1           0       13.339291    2.030500   -1.748932
    125          1           0       14.991685    2.043890   -3.068487
    126          1           0       13.941922    1.201093   -4.113840
    127          1           0       15.014843    0.188539   -3.394877
    128          1           0       15.083605   -0.137082   -1.107657
    129          1           0       13.552079   -0.831526   -0.710880
    130          1           0       13.191326    1.554560    0.480952
    131          1           0       14.813514    1.656666    0.581619
    132          1           0       15.183390   -0.016616    2.066562
    133          1           0       13.868628   -1.063174    1.358974
    134          1           0       13.027623    1.463792    2.820797
    135          1           0       13.689842    0.865197    4.775825
    136          1           0       14.756874   -0.239521    4.156677
    137          1           0       13.113979   -0.798083    4.752912
    138          1           0       11.516081   -0.288175    1.567416
    139          1           0       11.001294    0.592887    2.869815
    140          1           0       11.389701   -0.967921    3.225424
 ---------------------------------------------------------------------

 SCF Done:  E(RPBE1PBE) =  -3005.33372347     A.U. after   16 cycles

 Excitation energies and oscillator strengths:

 Excited State   1:      Singlet-A      1.8552 eV  668.30 nm  f=0.3748  <S**2>=0.000
     245 -> 248       -0.19329
     246 -> 247        0.68714
 This state for optimization and/or second-order correction.
 Total Energy, E(TD-HF/TD-DFT) =  -3005.26554541
 Copying the excited state density for this state as the 1-particle RhoCI density.

 Excited State   2:      Singlet-A      2.1920 eV  565.62 nm  f=0.0564  <S**2>=0.000
     245 -> 247        0.63257
     246 -> 248        0.30591

 Excited State   3:      Singlet-A      2.8589 eV  433.68 nm  f=0.0006  <S**2>=0.000
     242 -> 247        0.57073
     242 -> 249        0.18408
     242 -> 250        0.10320
     243 -> 247        0.31499

 Excited State   4:      Singlet-A      3.0395 eV  407.91 nm  f=0.0096  <S**2>=0.000
     242 -> 247       -0.31884
     243 -> 247        0.58825
     246 -> 248       -0.18738

 Excited State   5:      Singlet-A      3.0747 eV  403.24 nm  f=0.0012  <S**2>=0.000
     240 -> 247       -0.14890
     241 -> 247        0.64326
     241 -> 249       -0.19140
     241 -> 250        0.10763

 The electronic state is 1-A.
 Alpha  occ. eigenvalues --  -46.92227 -19.26194 -19.25438 -19.21124 -19.19501
 Alpha  occ. eigenvalues --  -19.19469 -19.18445 -14.42739 -14.41309 -14.39863
 Alpha  occ. eigenvalues --  -14.38617 -10.36793 -10.36170 -10.32817 -10.31731
 Alpha  occ. eigenvalues --  -10.29662 -10.29434 -10.29163 -10.29011 -10.28968
 Alpha  occ. eigenvalues --  -10.28314 -10.28270 -10.28054 -10.27823 -10.26895
 Alpha  occ. eigenvalues --  -10.26668 -10.26187 -10.26103 -10.26009 -10.25853
 Alpha  occ. eigenvalues --  -10.25820 -10.25734 -10.25489 -10.25394 -10.25373
 Alpha  occ. eigenvalues --  -10.25311 -10.24854 -10.24494 -10.24434 -10.24225
 Alpha  occ. eigenvalues --  -10.24160 -10.23932 -10.23851 -10.23622 -10.23603
 Alpha  occ. eigenvalues --  -10.23526 -10.23428 -10.23281 -10.23245 -10.23194
 Alpha  occ. eigenvalues --  -10.23167 -10.23159 -10.23076 -10.22984 -10.22839
 Alpha  occ. eigenvalues --  -10.22821 -10.22652 -10.22646 -10.22482 -10.22410
 Alpha  occ. eigenvalues --  -10.22186 -10.21996 -10.21961 -10.21731 -10.21556
 Alpha  occ. eigenvalues --  -10.21298  -3.14349  -1.87185  -1.86698  -1.86597
 Alpha  occ. eigenvalues --   -1.12027  -1.11371  -1.04026  -1.03998  -1.02891
 Alpha  occ. eigenvalues --   -1.02157  -0.99097  -0.98657  -0.97393  -0.96549
 Alpha  occ. eigenvalues --   -0.88342  -0.84944  -0.83995  -0.83585  -0.83106
 Alpha  occ. eigenvalues --   -0.82511  -0.82466  -0.81789  -0.81252  -0.80946
 Alpha  occ. eigenvalues --   -0.80588  -0.80189  -0.78525  -0.78013  -0.77604
 Alpha  occ. eigenvalues --   -0.76520  -0.76136  -0.75496  -0.75143  -0.74595
 Alpha  occ. eigenvalues --   -0.73472  -0.72708  -0.72376  -0.71679  -0.70664
 Alpha  occ. eigenvalues --   -0.70447  -0.69821  -0.69557  -0.68765  -0.68370
 Alpha  occ. eigenvalues --   -0.67880  -0.67154  -0.66879  -0.65468  -0.63751
 Alpha  occ. eigenvalues --   -0.63620  -0.62874  -0.61861  -0.61352  -0.60591
 Alpha  occ. eigenvalues --   -0.59900  -0.59398  -0.59353  -0.58702  -0.58461
 Alpha  occ. eigenvalues --   -0.57498  -0.57025  -0.56664  -0.56119  -0.54808
 Alpha  occ. eigenvalues --   -0.54792  -0.54391  -0.54143  -0.53614  -0.53203
 Alpha  occ. eigenvalues --   -0.52546  -0.52098  -0.50695  -0.50366  -0.49909
 Alpha  occ. eigenvalues --   -0.49632  -0.49555  -0.49318  -0.49035  -0.48999
 Alpha  occ. eigenvalues --   -0.48445  -0.47985  -0.47928  -0.47502  -0.47326
 Alpha  occ. eigenvalues --   -0.47017  -0.46859  -0.46749  -0.46590  -0.46366
 Alpha  occ. eigenvalues --   -0.46202  -0.46037  -0.45928  -0.45525  -0.45266
 Alpha  occ. eigenvalues --   -0.44900  -0.44805  -0.44674  -0.44401  -0.44218
 Alpha  occ. eigenvalues --   -0.43941  -0.43712  -0.43656  -0.43486  -0.43305
 Alpha  occ. eigenvalues --   -0.43047  -0.42865  -0.42846  -0.42527  -0.42495
 Alpha  occ. eigenvalues --   -0.42230  -0.42144  -0.42060  -0.41544  -0.41365
 Alpha  occ. eigenvalues --   -0.41026  -0.40896  -0.40759  -0.40468  -0.40289
 Alpha  occ. eigenvalues --   -0.40090  -0.40015  -0.39521  -0.39430  -0.39229
 Alpha  occ. eigenvalues --   -0.39165  -0.39050  -0.38683  -0.38577  -0.38510
 Alpha  occ. eigenvalues --   -0.38433  -0.38372  -0.38125  -0.38043  -0.37703
 Alpha  occ. eigenvalues --   -0.37600  -0.37364  -0.37320  -0.37293  -0.37137
 Alpha  occ. eigenvalues --   -0.36866  -0.36680  -0.36408  -0.36239  -0.36077
 Alpha  occ. eigenvalues --   -0.35963  -0.35589  -0.35540  -0.35421  -0.35276
 Alpha  occ. eigenvalues --   -0.34901  -0.34556  -0.34394  -0.34351  -0.34253
 Alpha  occ. eigenvalues --   -0.33707  -0.33085  -0.33041  -0.32712  -0.32316
 Alpha  occ. eigenvalues --   -0.32241  -0.31869  -0.31796  -0.31690  -0.31555
 Alpha  occ. eigenvalues --   -0.30937  -0.30347  -0.30075  -0.29210  -0.29044
 Alpha  occ. eigenvalues --   -0.29025  -0.28912  -0.28558  -0.26945  -0.26034
 Alpha  occ. eigenvalues --   -0.25912  -0.25430  -0.25109  -0.24759  -0.21250
 Alpha  occ. eigenvalues --   -0.18951
 Alpha virt. eigenvalues --   -0.11274  -0.06285  -0.04959  -0.02394  -0.00818
 Alpha virt. eigenvalues --    0.00307   0.00441   0.01182   0.01652   0.02971
 Alpha virt. eigenvalues --    0.04109   0.04437   0.04529   0.05035   0.05474

 Mulliken charges:
               1
     1  Mg   0.962059
     2  C   -0.083236
     3  C   -0.073555
     4  C   -0.075878
     5  C   -0.084572
     6  N   -0.424657
     7  C    0.034260
     8  C   -0.136437
     9  C   -0.122168
    10  C    0.082644
    11  C    0.013625
    12  C    0.065753
    13  C   -0.048326
    14  C    0.198065
    15  O   -0.258104
    16  O   -0.356050
    17  N   -0.525826
    18  C    0.184906
    19  C   -0.176232
    20  C   -0.089991
    21  C    0.191205
    22  C    0.051564
    23  C    0.080009
    24  O   -0.243070
    25  C   -0.048301
    26  N   -0.365872
    27  C    0.082265
    28  C   -0.155920
    29  C   -0.118056
    30  C    0.109706
    31  C    0.029137
    32  C   -0.028509
    33  C   -0.060966
    34  N   -0.428400
    35  C    0.147182
    36  C   -0.204985
    37  C    0.001681
    38  C    0.150672
    39  C    0.082675
    40  C    0.111714
    41  O   -0.255929
    42  C   -0.040026
    43  C    0.290804
    44  O   -0.202222
    45  O   -0.386495
    46  C    0.124519
    47  C    0.235565
    48  C   -0.132516
    49  C   -0.201335
    50  C    0.001560
    51  C    0.036443
    52  C   -0.089710
    53  C   -0.036001
    54  C   -0.218581
    55  C   -0.044976
    56  C   -0.025086
    57  C   -0.058617
    58  C    0.018600
    59  C   -0.225992
    60  C   -0.023121
    61  C    0.014415
    62  C   -0.081703
    63  C    0.018711
    64  C   -0.241715
    65  C    0.009935
    66  C   -0.035849
    67  H    0.007274
    68  H    0.036448
    69  H    0.001004
    70  H    0.058171
    71  H    0.047216
    72  H    0.054468
    73  H    0.049901
    74  H    0.039236
    75  H    0.055063
    76  H    0.050156
    77  H    0.085719
    78  H    0.062511
    79  H    0.058324
    80  H    0.042346
    81  H    0.064458
    82  H    0.063030
    83  H    0.049605
    84  H    0.056659
    85  H    0.032969
    86  H    0.023349
    87  H    0.047496
    88  H    0.041130
    89  H    0.059664
    90  H    0.028076
    91  H    0.034669
    92  H    0.048294
    93  H    0.065323
    94  H    0.039992
    95  H    0.059902
    96  H    0.076751
    97  H    0.024109
    98  H    0.074056
    99  H    0.070395
   100  H    0.030297
   101  H    0.072197
   102  H    0.064680
   103  H    0.051963
   104  H    0.020870
   105  H    0.033914
   106  H    0.049012
   107  H    0.058689
   108  H    0.036899
   109  H    0.024300
   110  H    0.038470
   111  H    0.067309
   112  H    0.056753
   113  H    0.044088
   114  H    0.040963
   115  H    0.039083
   116  H    0.035721
   117  H    0.030376
   118  H    0.027587
   119  H    0.029415
   120  H    0.033711
   121  H    0.028137
   122  H    0.029073
   123  H    0.031219
   124  H    0.036408
   125  H    0.038588
   126  H    0.012980
   127  H    0.035720
   128  H    0.024225
   129  H    0.021549
   130  H    0.027762
   131  H    0.021903
   132  H    0.033333
   133  H    0.035554
   134  H    0.040773
   135  H    0.019081
   136  H    0.020670
   137  H    0.045703
   138  H    0.030992
   139  H    0.019145
   140  H    0.032433
 Sum of Mulliken charges =  -0.00000

 Dipole moment (field-independent basis, Debye):
    X=              3.6239    Y=              3.6066    Z=             -0.8122  Tot=              5.1769
 Quadrupole moment (field-independent basis, Debye-Ang):
   XX=           -390.7260   YY=           -421.4963   ZZ=           -404.0903
   XY=              9.2871   XZ=             23.4436   YZ=             10.1203

 Normal termination of Gaussian 16 at Fri Apr 29 16:40:03 2022.
