 Gaussian 16, Revision A.03,
 Gaussian 16:  ES64L-G16RevA.03 25-Dec-2016

 --------------------------------
 #p wB97XD/Def2SVP td=(nstates=5)
 --------------------------------

 ----------------------------------------------------
 step_401_chromophore_13 TDDFT with wB97XD functional
 ----------------------------------------------------
 Symbolic Z-matrix:
 Charge =  0 Multiplicity = 1

                         Standard orientation:
 ---------------------------------------------------------------------
 Center     Atomic      Atomic             Coordinates (Angstroms)
 Number     Number       Type             X           Y           Z
 ---------------------------------------------------------------------
      1         12           0       -5.895208    0.438586   -0.316171
      2          6           0       -3.642355   -2.287027    0.269452
      3          6           0       -3.596242    2.647082    0.650317
      4          6           0       -8.402085    2.713933   -0.133100
      5          6           0       -8.362532   -2.123415   -0.745239
      6          7           0       -3.930726    0.192153    0.387434
      7          6           0       -3.122025   -0.944076    0.278263
      8          6           0       -1.638147   -0.658320    0.370212
      9          6           0       -1.706159    0.886923    0.673813
     10          6           0       -3.150542    1.299775    0.488740
     11          6           0       -1.108757    1.338054    2.047072
     12          6           0       -0.807990   -1.021823   -0.942727
     13          6           0        0.333198   -2.030009   -0.667342
     14          6           0        1.748639   -1.743871   -1.106305
     15          8           0        2.058301   -1.056680   -2.053997
     16          8           0        2.707326   -2.270538   -0.292847
     17          7           0       -6.019289    2.447035    0.094509
     18          6           0       -4.905536    3.191944    0.488506
     19          6           0       -5.377828    4.559818    0.826125
     20          6           0       -6.836566    4.586592    0.704961
     21          6           0       -7.162892    3.195281    0.219392
     22          6           0       -4.334095    5.663933    1.236018
     23          6           0       -7.856971    5.665606    0.960364
     24          8           0       -9.087923    5.551034    0.987553
     25          6           0       -7.209883    6.984865    1.417841
     26          7           0       -8.032372    0.309030   -0.575372
     27          6           0       -8.787470    1.434401   -0.623398
     28          6           0      -10.232343    1.043531   -0.629116
     29          6           0      -10.159841   -0.397063   -1.233554
     30          6           0       -8.779686   -0.807282   -0.743191
     31          6           0      -10.962232    1.063904    0.765929
     32          6           0      -10.337660   -0.497459   -2.750813
     33          6           0       -9.413848    0.263471   -3.698802
     34          7           0       -6.066391   -1.748785   -0.212530
     35          6           0       -7.101222   -2.604030   -0.409683
     36          6           0       -6.665552   -3.961864   -0.275263
     37          6           0       -5.257030   -3.925093   -0.060475
     38          6           0       -4.941237   -2.511799    0.050416
     39          6           0       -7.457936   -5.200561   -0.486984
     40          6           0       -4.054619   -4.634346    0.214051
     41          8           0       -3.758901   -5.856664    0.269003
     42          6           0       -2.954613   -3.599949    0.469261
     43          6           0       -2.271372   -3.846938    1.784089
     44          8           0       -2.802946   -3.733273    2.839715
     45          8           0       -0.986137   -4.315003    1.501448
     46          6           0       -0.110919   -4.478444    2.699342
     47          6           0        4.082843   -2.195848   -0.667898
     48          6           0        4.836221   -1.158183    0.119113
     49          6           0        6.131213   -0.868932   -0.062161
     50          6           0        7.041649   -1.567519   -1.059099
     51          6           0        6.777553    0.140347    0.803214
     52          6           0        7.291882    1.372401   -0.036576
     53          6           0        8.840732    1.507159    0.319373
     54          6           0        9.605329    2.123840   -0.948160
     55          6           0        9.011782    3.519671   -1.459998
     56          6           0        9.649882    1.086278   -2.129631
     57          6           0       10.981266    1.243692   -2.939440
     58          6           0       12.123017    0.227630   -2.438946
     59          6           0       13.408068    0.971284   -1.993779
     60          6           0       14.460431    1.097505   -3.159941
     61          6           0       14.059528    0.123970   -0.841840
     62          6           0       14.049241    0.882400    0.507773
     63          6           0       14.152532   -0.073041    1.716772
     64          6           0       13.186108    0.385581    2.829878
     65          6           0       13.682328   -0.055895    4.191984
     66          6           0       11.764537   -0.144032    2.618631
     67          1           0       -2.792358    3.342054    0.903570
     68          1           0       -9.257319    3.391158   -0.159528
     69          1           0       -9.085965   -2.918705   -0.936249
     70          1           0       -1.199637   -1.074069    1.277456
     71          1           0       -1.257699    1.404277   -0.174171
     72          1           0       -0.246289    1.979148    1.859300
     73          1           0       -1.019096    0.539225    2.782984
     74          1           0       -1.794936    1.973933    2.606899
     75          1           0       -0.363535   -0.084704   -1.277508
     76          1           0       -1.509033   -1.369294   -1.700133
     77          1           0        0.115167   -2.998299   -1.117491
     78          1           0        0.354014   -2.163710    0.413667
     79          1           0       -4.521244    6.554586    0.635773
     80          1           0       -3.353599    5.230049    1.037183
     81          1           0       -4.420265    5.935237    2.287383
     82          1           0       -6.766711    6.785776    2.393983
     83          1           0       -7.891397    7.810525    1.624122
     84          1           0       -6.463751    7.298213    0.687683
     85          1           0      -10.894057    1.548294   -1.333728
     86          1           0      -10.935807   -0.996876   -0.755487
     87          1           0      -10.211889    1.364220    1.497028
     88          1           0      -11.246638    0.106066    1.202176
     89          1           0      -11.812810    1.740643    0.683411
     90          1           0      -11.329919   -0.068779   -2.888441
     91          1           0      -10.456852   -1.514498   -3.124730
     92          1           0       -8.901011   -0.486123   -4.302555
     93          1           0       -8.788567    0.924162   -3.097873
     94          1           0      -10.052484    0.844160   -4.363860
     95          1           0       -7.294363   -5.825660    0.391123
     96          1           0       -7.215687   -5.720757   -1.412917
     97          1           0       -8.515048   -4.953638   -0.386382
     98          1           0       -2.251577   -3.566076   -0.362322
     99          1           0       -0.618301   -4.633870    3.650979
    100          1           0        0.335686   -3.508878    2.919494
    101          1           0        0.753432   -5.114268    2.501244
    102          1           0        4.375893   -2.042855   -1.706193
    103          1           0        4.300982   -3.232654   -0.413467
    104          1           0        4.255124   -0.520612    0.785134
    105          1           0        6.682763   -2.480620   -1.534467
    106          1           0        8.018834   -1.874616   -0.685729
    107          1           0        7.174568   -0.872417   -1.887602
    108          1           0        7.650085   -0.346600    1.239200
    109          1           0        6.126354    0.472133    1.611473
    110          1           0        6.900529    2.234956    0.503756
    111          1           0        6.998956    1.374247   -1.085900
    112          1           0        9.236677    0.496029    0.416472
    113          1           0        8.984862    2.257441    1.096599
    114          1           0       10.607333    2.402739   -0.622659
    115          1           0        8.002592    3.318317   -1.819928
    116          1           0        9.568916    4.035362   -2.241611
    117          1           0        8.993062    4.286652   -0.685236
    118          1           0        8.926943    1.331088   -2.908388
    119          1           0        9.500890    0.072302   -1.761388
    120          1           0       11.315677    2.264312   -2.754430
    121          1           0       10.746937    1.135169   -3.999062
    122          1           0       12.328979   -0.421708   -3.289896
    123          1           0       11.724339   -0.431601   -1.666899
    124          1           0       13.339291    2.030500   -1.748932
    125          1           0       14.991685    2.043890   -3.068487
    126          1           0       13.941922    1.201093   -4.113840
    127          1           0       15.014843    0.188539   -3.394877
    128          1           0       15.083605   -0.137082   -1.107657
    129          1           0       13.552079   -0.831526   -0.710880
    130          1           0       13.191326    1.554560    0.480952
    131          1           0       14.813514    1.656666    0.581619
    132          1           0       15.183390   -0.016616    2.066562
    133          1           0       13.868628   -1.063174    1.358974
    134          1           0       13.027623    1.463792    2.820797
    135          1           0       13.689842    0.865197    4.775825
    136          1           0       14.756874   -0.239521    4.156677
    137          1           0       13.113979   -0.798083    4.752912
    138          1           0       11.516081   -0.288175    1.567416
    139          1           0       11.001294    0.592887    2.869815
    140          1           0       11.389701   -0.967921    3.225424
 ---------------------------------------------------------------------

 SCF Done:  E(RwB97XD) =  -3007.84544862     A.U. after   18 cycles

 Excitation energies and oscillator strengths:

 Excited State   1:      Singlet-A      1.6515 eV  750.72 nm  f=0.3815  <S**2>=0.000
     245 -> 248        0.20597
     246 -> 247        0.67766
     245 <- 248        0.12006
 This state for optimization and/or second-order correction.
 Total Energy, E(TD-HF/TD-DFT) =  -3007.78475545
 Copying the excited state density for this state as the 1-particle RhoCI density.

 Excited State   2:      Singlet-A      2.1409 eV  579.13 nm  f=0.0474  <S**2>=0.000
     245 -> 247        0.60894
     246 -> 248       -0.34824

 Excited State   3:      Singlet-A      3.3293 eV  372.40 nm  f=0.4675  <S**2>=0.000
     242 -> 247        0.12463
     243 -> 247        0.31699
     245 -> 247        0.27441
     246 -> 248        0.53550
     245 <- 247       -0.10141

 Excited State   4:      Singlet-A      3.3407 eV  371.13 nm  f=0.0583  <S**2>=0.000
     241 -> 247        0.33743
     241 -> 249        0.21115
     241 -> 250        0.14894
     242 -> 247        0.37393
     242 -> 249        0.25610
     242 -> 250        0.16264
     246 -> 248       -0.17304

 Excited State   5:      Singlet-A      3.4456 eV  359.83 nm  f=0.1324  <S**2>=0.000
     241 -> 247        0.13449
     242 -> 247       -0.29502
     243 -> 247        0.55842
     245 -> 247       -0.13660
     246 -> 248       -0.19290

 The electronic state is 1-A.
 Alpha  occ. eigenvalues --  -46.95183 -19.30754 -19.29996 -19.25858 -19.24412
 Alpha  occ. eigenvalues --  -19.24150 -19.23244 -14.47822 -14.46357 -14.44837
 Alpha  occ. eigenvalues --  -14.43540 -10.43646 -10.42954 -10.39764 -10.38613
 Alpha  occ. eigenvalues --  -10.35847 -10.35756 -10.35677 -10.35488 -10.35389
 Alpha  occ. eigenvalues --  -10.34705 -10.34650 -10.34641 -10.34030 -10.33126
 Alpha  occ. eigenvalues --  -10.32874 -10.32569 -10.32402 -10.32301 -10.32271
 Alpha  occ. eigenvalues --  -10.32227 -10.32054 -10.31916 -10.31907 -10.31788
 Alpha  occ. eigenvalues --  -10.31726 -10.31050 -10.30808 -10.30664 -10.30569
 Alpha  occ. eigenvalues --  -10.30416 -10.30305 -10.30246 -10.30084 -10.29873
 Alpha  occ. eigenvalues --  -10.29870 -10.29861 -10.29682 -10.29664 -10.29631
 Alpha  occ. eigenvalues --  -10.29442 -10.29429 -10.29422 -10.29343 -10.29222
 Alpha  occ. eigenvalues --  -10.29179 -10.29006 -10.29002 -10.28866 -10.28839
 Alpha  occ. eigenvalues --  -10.28548 -10.28349 -10.28328 -10.28155 -10.27986
 Alpha  occ. eigenvalues --  -10.27719  -3.21161  -1.94746  -1.94261  -1.94155
 Alpha  occ. eigenvalues --   -1.19387  -1.18778  -1.11612  -1.11360  -1.10224
 Alpha  occ. eigenvalues --   -1.09657  -1.06475  -1.06046  -1.04734  -1.03972
 Alpha  occ. eigenvalues --   -0.95925  -0.92611  -0.91601  -0.91250  -0.90710
 Alpha  occ. eigenvalues --   -0.90141  -0.90069  -0.89376  -0.88916  -0.88621
 Alpha  occ. eigenvalues --   -0.88311  -0.87820  -0.86157  -0.85630  -0.85235
 Alpha  occ. eigenvalues --   -0.84164  -0.83810  -0.83199  -0.82797  -0.82276
 Alpha  occ. eigenvalues --   -0.81136  -0.80359  -0.80074  -0.79326  -0.78290
 Alpha  occ. eigenvalues --   -0.78102  -0.77512  -0.77140  -0.76444  -0.76000
 Alpha  occ. eigenvalues --   -0.75517  -0.74695  -0.74405  -0.73069  -0.71313
 Alpha  occ. eigenvalues --   -0.71151  -0.70490  -0.69441  -0.69012  -0.68070
 Alpha  occ. eigenvalues --   -0.67348  -0.67018  -0.66822  -0.66165  -0.66135
 Alpha  occ. eigenvalues --   -0.64960  -0.64652  -0.64058  -0.63741  -0.62333
 Alpha  occ. eigenvalues --   -0.62271  -0.61847  -0.61530  -0.61039  -0.60669
 Alpha  occ. eigenvalues --   -0.60028  -0.59452  -0.58175  -0.57774  -0.57306
 Alpha  occ. eigenvalues --   -0.57045  -0.56972  -0.56703  -0.56411  -0.56364
 Alpha  occ. eigenvalues --   -0.55929  -0.55355  -0.55240  -0.54960  -0.54673
 Alpha  occ. eigenvalues --   -0.54423  -0.54345  -0.54145  -0.54120  -0.53769
 Alpha  occ. eigenvalues --   -0.53610  -0.53399  -0.53263  -0.52794  -0.52633
 Alpha  occ. eigenvalues --   -0.52233  -0.52134  -0.51999  -0.51719  -0.51609
 Alpha  occ. eigenvalues --   -0.51368  -0.51061  -0.50976  -0.50801  -0.50632
 Alpha  occ. eigenvalues --   -0.50347  -0.50142  -0.50125  -0.49806  -0.49789
 Alpha  occ. eigenvalues --   -0.49516  -0.49393  -0.49305  -0.48783  -0.48535
 Alpha  occ. eigenvalues --   -0.48200  -0.48120  -0.47934  -0.47588  -0.47492
 Alpha  occ. eigenvalues --   -0.47310  -0.47166  -0.46698  -0.46602  -0.46398
 Alpha  occ. eigenvalues --   -0.46277  -0.46237  -0.45954  -0.45727  -0.45659
 Alpha  occ. eigenvalues --   -0.45607  -0.45499  -0.45260  -0.45179  -0.44810
 Alpha  occ. eigenvalues --   -0.44731  -0.44550  -0.44423  -0.44324  -0.44318
 Alpha  occ. eigenvalues --   -0.44129  -0.43820  -0.43499  -0.43391  -0.43151
 Alpha  occ. eigenvalues --   -0.43036  -0.42647  -0.42585  -0.42422  -0.42279
 Alpha  occ. eigenvalues --   -0.41986  -0.41637  -0.41374  -0.41341  -0.41215
 Alpha  occ. eigenvalues --   -0.40752  -0.40035  -0.40023  -0.39675  -0.39304
 Alpha  occ. eigenvalues --   -0.39248  -0.38951  -0.38890  -0.38724  -0.38412
 Alpha  occ. eigenvalues --   -0.37947  -0.37416  -0.37034  -0.35935  -0.35910
 Alpha  occ. eigenvalues --   -0.35795  -0.35766  -0.35679  -0.33500  -0.33179
 Alpha  occ. eigenvalues --   -0.32725  -0.32461  -0.31606  -0.31462  -0.26258
 Alpha  occ. eigenvalues --   -0.23058
 Alpha virt. eigenvalues --   -0.07074  -0.00992   0.01236   0.04049   0.05094
 Alpha virt. eigenvalues --    0.07003   0.07216   0.07916   0.08455   0.09687
 Alpha virt. eigenvalues --    0.10466   0.11089   0.11187   0.11736   0.12147

 Mulliken charges:
               1
     1  Mg   0.951944
     2  C   -0.094404
     3  C   -0.089128
     4  C   -0.090371
     5  C   -0.101332
     6  N   -0.393352
     7  C    0.003311
     8  C   -0.106973
     9  C   -0.096498
    10  C    0.070731
    11  C    0.024594
    12  C    0.073146
    13  C   -0.026550
    14  C    0.186679
    15  O   -0.254880
    16  O   -0.353278
    17  N   -0.493908
    18  C    0.178166
    19  C   -0.169491
    20  C   -0.088163
    21  C    0.187796
    22  C    0.067601
    23  C    0.077430
    24  O   -0.235887
    25  C   -0.033099
    26  N   -0.334904
    27  C    0.068214
    28  C   -0.130792
    29  C   -0.082130
    30  C    0.088280
    31  C    0.035599
    32  C   -0.020882
    33  C   -0.039492
    34  N   -0.389549
    35  C    0.138625
    36  C   -0.202097
    37  C   -0.000247
    38  C    0.139657
    39  C    0.094229
    40  C    0.097093
    41  O   -0.246190
    42  C    0.011141
    43  C    0.266318
    44  O   -0.196969
    45  O   -0.384534
    46  C    0.139810
    47  C    0.247400
    48  C   -0.144269
    49  C   -0.182681
    50  C    0.011536
    51  C    0.056794
    52  C   -0.077511
    53  C   -0.010445
    54  C   -0.182848
    55  C   -0.034557
    56  C   -0.006907
    57  C   -0.038260
    58  C    0.031850
    59  C   -0.196573
    60  C   -0.011458
    61  C    0.030131
    62  C   -0.064615
    63  C    0.036966
    64  C   -0.209763
    65  C    0.021001
    66  C   -0.021272
    67  H   -0.000987
    68  H    0.031810
    69  H   -0.004812
    70  H    0.039850
    71  H    0.035132
    72  H    0.049895
    73  H    0.045694
    74  H    0.031747
    75  H    0.047034
    76  H    0.043619
    77  H    0.080724
    78  H    0.049216
    79  H    0.052655
    80  H    0.037604
    81  H    0.060285
    82  H    0.056313
    83  H    0.048853
    84  H    0.049331
    85  H    0.023002
    86  H    0.013677
    87  H    0.040089
    88  H    0.035980
    89  H    0.055401
    90  H    0.018194
    91  H    0.027873
    92  H    0.043079
    93  H    0.051198
    94  H    0.035023
    95  H    0.055031
    96  H    0.072995
    97  H    0.017706
    98  H    0.060029
    99  H    0.067069
   100  H    0.025204
   101  H    0.069673
   102  H    0.059447
   103  H    0.047938
   104  H    0.018302
   105  H    0.029980
   106  H    0.044836
   107  H    0.050495
   108  H    0.026233
   109  H    0.019207
   110  H    0.030321
   111  H    0.056506
   112  H    0.036875
   113  H    0.037069
   114  H    0.024524
   115  H    0.030726
   116  H    0.030667
   117  H    0.024726
   118  H    0.018775
   119  H    0.013124
   120  H    0.019274
   121  H    0.022253
   122  H    0.021635
   123  H    0.019605
   124  H    0.024351
   125  H    0.033917
   126  H    0.005132
   127  H    0.029704
   128  H    0.015842
   129  H    0.010385
   130  H    0.012630
   131  H    0.014572
   132  H    0.025307
   133  H    0.025556
   134  H    0.030065
   135  H    0.012865
   136  H    0.014044
   137  H    0.040886
   138  H    0.018438
   139  H    0.011824
   140  H    0.026995
 Sum of Mulliken charges =  -0.00000

 Dipole moment (field-independent basis, Debye):
    X=              3.6587    Y=              3.8678    Z=             -0.7358  Tot=              5.3747
 Quadrupole moment (field-independent basis, Debye-Ang):
   XX=           -391.7709   YY=           -419.2207   ZZ=           -403.7339
   XY=              7.2411   XZ=             23.1029   YZ=             10.3971

 Normal termination of Gaussian 16 at Fri Apr 29 17:08:35 2022.
