 Gaussian 16, Revision A.03,
 Gaussian 16:  ES64L-G16RevA.03 25-Dec-2016

 --------------------
 #p ZINDO=(nstates=5)
 --------------------

 -----------------------------
 step_401_chromophore_13 ZINDO
 -----------------------------
 Symbolic Z-matrix:
 Charge =  0 Multiplicity = 1

                         Standard orientation:
 ---------------------------------------------------------------------
 Center     Atomic      Atomic             Coordinates (Angstroms)
 Number     Number       Type             X           Y           Z
 ---------------------------------------------------------------------
      1         12           0       -5.895208    0.438586   -0.316171
      2          6           0       -3.642355   -2.287027    0.269452
      3          6           0       -3.596242    2.647082    0.650317
      4          6           0       -8.402085    2.713933   -0.133100
      5          6           0       -8.362532   -2.123415   -0.745239
      6          7           0       -3.930726    0.192153    0.387434
      7          6           0       -3.122025   -0.944076    0.278263
      8          6           0       -1.638147   -0.658320    0.370212
      9          6           0       -1.706159    0.886923    0.673813
     10          6           0       -3.150542    1.299775    0.488740
     11          6           0       -1.108757    1.338054    2.047072
     12          6           0       -0.807990   -1.021823   -0.942727
     13          6           0        0.333198   -2.030009   -0.667342
     14          6           0        1.748639   -1.743871   -1.106305
     15          8           0        2.058301   -1.056680   -2.053997
     16          8           0        2.707326   -2.270538   -0.292847
     17          7           0       -6.019289    2.447035    0.094509
     18          6           0       -4.905536    3.191944    0.488506
     19          6           0       -5.377828    4.559818    0.826125
     20          6           0       -6.836566    4.586592    0.704961
     21          6           0       -7.162892    3.195281    0.219392
     22          6           0       -4.334095    5.663933    1.236018
     23          6           0       -7.856971    5.665606    0.960364
     24          8           0       -9.087923    5.551034    0.987553
     25          6           0       -7.209883    6.984865    1.417841
     26          7           0       -8.032372    0.309030   -0.575372
     27          6           0       -8.787470    1.434401   -0.623398
     28          6           0      -10.232343    1.043531   -0.629116
     29          6           0      -10.159841   -0.397063   -1.233554
     30          6           0       -8.779686   -0.807282   -0.743191
     31          6           0      -10.962232    1.063904    0.765929
     32          6           0      -10.337660   -0.497459   -2.750813
     33          6           0       -9.413848    0.263471   -3.698802
     34          7           0       -6.066391   -1.748785   -0.212530
     35          6           0       -7.101222   -2.604030   -0.409683
     36          6           0       -6.665552   -3.961864   -0.275263
     37          6           0       -5.257030   -3.925093   -0.060475
     38          6           0       -4.941237   -2.511799    0.050416
     39          6           0       -7.457936   -5.200561   -0.486984
     40          6           0       -4.054619   -4.634346    0.214051
     41          8           0       -3.758901   -5.856664    0.269003
     42          6           0       -2.954613   -3.599949    0.469261
     43          6           0       -2.271372   -3.846938    1.784089
     44          8           0       -2.802946   -3.733273    2.839715
     45          8           0       -0.986137   -4.315003    1.501448
     46          6           0       -0.110919   -4.478444    2.699342
     47          6           0        4.082843   -2.195848   -0.667898
     48          6           0        4.836221   -1.158183    0.119113
     49          6           0        6.131213   -0.868932   -0.062161
     50          6           0        7.041649   -1.567519   -1.059099
     51          6           0        6.777553    0.140347    0.803214
     52          6           0        7.291882    1.372401   -0.036576
     53          6           0        8.840732    1.507159    0.319373
     54          6           0        9.605329    2.123840   -0.948160
     55          6           0        9.011782    3.519671   -1.459998
     56          6           0        9.649882    1.086278   -2.129631
     57          6           0       10.981266    1.243692   -2.939440
     58          6           0       12.123017    0.227630   -2.438946
     59          6           0       13.408068    0.971284   -1.993779
     60          6           0       14.460431    1.097505   -3.159941
     61          6           0       14.059528    0.123970   -0.841840
     62          6           0       14.049241    0.882400    0.507773
     63          6           0       14.152532   -0.073041    1.716772
     64          6           0       13.186108    0.385581    2.829878
     65          6           0       13.682328   -0.055895    4.191984
     66          6           0       11.764537   -0.144032    2.618631
     67          1           0       -2.792358    3.342054    0.903570
     68          1           0       -9.257319    3.391158   -0.159528
     69          1           0       -9.085965   -2.918705   -0.936249
     70          1           0       -1.199637   -1.074069    1.277456
     71          1           0       -1.257699    1.404277   -0.174171
     72          1           0       -0.246289    1.979148    1.859300
     73          1           0       -1.019096    0.539225    2.782984
     74          1           0       -1.794936    1.973933    2.606899
     75          1           0       -0.363535   -0.084704   -1.277508
     76          1           0       -1.509033   -1.369294   -1.700133
     77          1           0        0.115167   -2.998299   -1.117491
     78          1           0        0.354014   -2.163710    0.413667
     79          1           0       -4.521244    6.554586    0.635773
     80          1           0       -3.353599    5.230049    1.037183
     81          1           0       -4.420265    5.935237    2.287383
     82          1           0       -6.766711    6.785776    2.393983
     83          1           0       -7.891397    7.810525    1.624122
     84          1           0       -6.463751    7.298213    0.687683
     85          1           0      -10.894057    1.548294   -1.333728
     86          1           0      -10.935807   -0.996876   -0.755487
     87          1           0      -10.211889    1.364220    1.497028
     88          1           0      -11.246638    0.106066    1.202176
     89          1           0      -11.812810    1.740643    0.683411
     90          1           0      -11.329919   -0.068779   -2.888441
     91          1           0      -10.456852   -1.514498   -3.124730
     92          1           0       -8.901011   -0.486123   -4.302555
     93          1           0       -8.788567    0.924162   -3.097873
     94          1           0      -10.052484    0.844160   -4.363860
     95          1           0       -7.294363   -5.825660    0.391123
     96          1           0       -7.215687   -5.720757   -1.412917
     97          1           0       -8.515048   -4.953638   -0.386382
     98          1           0       -2.251577   -3.566076   -0.362322
     99          1           0       -0.618301   -4.633870    3.650979
    100          1           0        0.335686   -3.508878    2.919494
    101          1           0        0.753432   -5.114268    2.501244
    102          1           0        4.375893   -2.042855   -1.706193
    103          1           0        4.300982   -3.232654   -0.413467
    104          1           0        4.255124   -0.520612    0.785134
    105          1           0        6.682763   -2.480620   -1.534467
    106          1           0        8.018834   -1.874616   -0.685729
    107          1           0        7.174568   -0.872417   -1.887602
    108          1           0        7.650085   -0.346600    1.239200
    109          1           0        6.126354    0.472133    1.611473
    110          1           0        6.900529    2.234956    0.503756
    111          1           0        6.998956    1.374247   -1.085900
    112          1           0        9.236677    0.496029    0.416472
    113          1           0        8.984862    2.257441    1.096599
    114          1           0       10.607333    2.402739   -0.622659
    115          1           0        8.002592    3.318317   -1.819928
    116          1           0        9.568916    4.035362   -2.241611
    117          1           0        8.993062    4.286652   -0.685236
    118          1           0        8.926943    1.331088   -2.908388
    119          1           0        9.500890    0.072302   -1.761388
    120          1           0       11.315677    2.264312   -2.754430
    121          1           0       10.746937    1.135169   -3.999062
    122          1           0       12.328979   -0.421708   -3.289896
    123          1           0       11.724339   -0.431601   -1.666899
    124          1           0       13.339291    2.030500   -1.748932
    125          1           0       14.991685    2.043890   -3.068487
    126          1           0       13.941922    1.201093   -4.113840
    127          1           0       15.014843    0.188539   -3.394877
    128          1           0       15.083605   -0.137082   -1.107657
    129          1           0       13.552079   -0.831526   -0.710880
    130          1           0       13.191326    1.554560    0.480952
    131          1           0       14.813514    1.656666    0.581619
    132          1           0       15.183390   -0.016616    2.066562
    133          1           0       13.868628   -1.063174    1.358974
    134          1           0       13.027623    1.463792    2.820797
    135          1           0       13.689842    0.865197    4.775825
    136          1           0       14.756874   -0.239521    4.156677
    137          1           0       13.113979   -0.798083    4.752912
    138          1           0       11.516081   -0.288175    1.567416
    139          1           0       11.001294    0.592887    2.869815
    140          1           0       11.389701   -0.967921    3.225424
 ---------------------------------------------------------------------

 SCF Done:  E(RZINDO/S) =  -474.187094988     A.U. after   21 cycles

 Excitation energies and oscillator strengths:

 Excited State   1:      Singlet-A      1.2501 eV  991.80 nm  f=0.5915  <S**2>=0.000
     175 ->178         0.20723
     176 ->177         0.65777
 This state for optimization and/or second-order correction.
 Total Energy, E(CIS/TDA) =  -474.141155032
 Copying the excited state density for this state as the 1-particle RhoCI density.

 Excited State   2:      Singlet-A      1.8525 eV  669.28 nm  f=0.0037  <S**2>=0.000
     175 ->177         0.49360
     176 ->178        -0.48499

 Excited State   3:      Singlet-A      2.8006 eV  442.71 nm  f=0.1300  <S**2>=0.000
     175 ->177         0.16308
     176 ->178         0.21466
     176 ->179         0.59495
     176 ->180        -0.10400

 Excited State   4:      Singlet-A      2.9032 eV  427.07 nm  f=0.0238  <S**2>=0.000
     169 ->177         0.16278
     169 ->179        -0.15660
     169 ->180         0.14552
     170 ->177         0.30773
     170 ->178        -0.16922
     170 ->179        -0.29862
     170 ->180         0.24787
     170 ->184        -0.10134
     170 ->185        -0.13698
     170 ->187        -0.13089
     170 ->198         0.10359
     176 ->179        -0.12314

 Excited State   5:      Singlet-A      2.9589 eV  419.02 nm  f=0.9711  <S**2>=0.000
     175 ->177         0.40770
     176 ->178         0.41492
     176 ->179        -0.28469
     176 ->180        -0.13260

 The electronic state is 1-A.
 Alpha  occ. eigenvalues --   -1.84816  -1.83176  -1.78701  -1.74878  -1.71894
 Alpha  occ. eigenvalues --   -1.70280  -1.64436  -1.61041  -1.58793  -1.56633
 Alpha  occ. eigenvalues --   -1.55551  -1.51546  -1.48749  -1.48140  -1.46102
 Alpha  occ. eigenvalues --   -1.45560  -1.43345  -1.39367  -1.38096  -1.37882
 Alpha  occ. eigenvalues --   -1.35821  -1.34138  -1.32673  -1.31807  -1.29621
 Alpha  occ. eigenvalues --   -1.26265  -1.25107  -1.22387  -1.19783  -1.18313
 Alpha  occ. eigenvalues --   -1.17506  -1.17057  -1.16021  -1.14313  -1.12820
 Alpha  occ. eigenvalues --   -1.12305  -1.10776  -1.10042  -1.06000  -1.04496
 Alpha  occ. eigenvalues --   -1.03775  -1.01520  -0.99965  -0.98340  -0.97666
 Alpha  occ. eigenvalues --   -0.96195  -0.94829  -0.93950  -0.93318  -0.92541
 Alpha  occ. eigenvalues --   -0.90347  -0.90190  -0.88054  -0.87320  -0.85821
 Alpha  occ. eigenvalues --   -0.84948  -0.84336  -0.83350  -0.81710  -0.81330
 Alpha  occ. eigenvalues --   -0.80589  -0.79590  -0.77015  -0.76911  -0.76566
 Alpha  occ. eigenvalues --   -0.76013  -0.75698  -0.75348  -0.74930  -0.74184
 Alpha  occ. eigenvalues --   -0.73630  -0.72867  -0.72211  -0.72030  -0.70999
 Alpha  occ. eigenvalues --   -0.70534  -0.69343  -0.69111  -0.68811  -0.68318
 Alpha  occ. eigenvalues --   -0.68028  -0.67364  -0.66695  -0.66315  -0.66017
 Alpha  occ. eigenvalues --   -0.65126  -0.64631  -0.64296  -0.64128  -0.63675
 Alpha  occ. eigenvalues --   -0.62785  -0.62579  -0.62156  -0.61799  -0.61562
 Alpha  occ. eigenvalues --   -0.61372  -0.60782  -0.60511  -0.60023  -0.59623
 Alpha  occ. eigenvalues --   -0.59386  -0.59288  -0.58981  -0.58294  -0.57673
 Alpha  occ. eigenvalues --   -0.57372  -0.57175  -0.56878  -0.56254  -0.55976
 Alpha  occ. eigenvalues --   -0.55525  -0.55423  -0.54797  -0.54680  -0.54469
 Alpha  occ. eigenvalues --   -0.54384  -0.54024  -0.53882  -0.52884  -0.52402
 Alpha  occ. eigenvalues --   -0.52319  -0.52176  -0.51876  -0.51756  -0.51571
 Alpha  occ. eigenvalues --   -0.51308  -0.51111  -0.51102  -0.50840  -0.50606
 Alpha  occ. eigenvalues --   -0.50358  -0.49876  -0.49714  -0.49610  -0.49202
 Alpha  occ. eigenvalues --   -0.49031  -0.48949  -0.48868  -0.48708  -0.48181
 Alpha  occ. eigenvalues --   -0.47892  -0.47680  -0.47385  -0.47235  -0.46765
 Alpha  occ. eigenvalues --   -0.46423  -0.46354  -0.45623  -0.45428  -0.45272
 Alpha  occ. eigenvalues --   -0.45076  -0.44980  -0.44476  -0.44341  -0.43941
 Alpha  occ. eigenvalues --   -0.43736  -0.43047  -0.42596  -0.42216  -0.42020
 Alpha  occ. eigenvalues --   -0.41935  -0.41181  -0.40905  -0.39545  -0.38811
 Alpha  occ. eigenvalues --   -0.38655  -0.36817  -0.35805  -0.35277  -0.35151
 Alpha  occ. eigenvalues --   -0.33373  -0.32501  -0.32193  -0.32036  -0.26769
 Alpha  occ. eigenvalues --   -0.21746
 Alpha virt. eigenvalues --   -0.08398  -0.03127  -0.01403   0.00887   0.01673
 Alpha virt. eigenvalues --    0.02196   0.02387   0.02741   0.04499   0.05048
 Alpha virt. eigenvalues --    0.05835   0.06351   0.07168   0.07610   0.08033

 Mulliken charges:
               1
     1  Mg   0.424497
     2  C   -0.024887
     3  C   -0.079341
     4  C   -0.054162
     5  C   -0.066306
     6  N   -0.259099
     7  C    0.101793
     8  C   -0.009682
     9  C   -0.000292
    10  C    0.134251
    11  C   -0.053694
    12  C   -0.019942
    13  C    0.006692
    14  C    0.470858
    15  O   -0.525771
    16  O   -0.274322
    17  N   -0.325332
    18  C    0.100899
    19  C    0.005185
    20  C   -0.054074
    21  C    0.140325
    22  C   -0.045412
    23  C    0.335089
    24  O   -0.518056
    25  C   -0.034910
    26  N   -0.263980
    27  C    0.135969
    28  C    0.003111
    29  C    0.000604
    30  C    0.127092
    31  C   -0.053293
    32  C   -0.026710
    33  C   -0.056083
    34  N   -0.341914
    35  C    0.114994
    36  C    0.040131
    37  C   -0.063691
    38  C    0.099744
    39  C   -0.039718
    40  C    0.339275
    41  O   -0.544070
    42  C    0.059392
    43  C    0.498033
    44  O   -0.489274
    45  O   -0.274934
    46  C    0.065082
    47  C    0.108476
    48  C   -0.093525
    49  C    0.001434
    50  C   -0.045047
    51  C   -0.022902
    52  C   -0.044431
    53  C   -0.045824
    54  C   -0.025810
    55  C   -0.063870
    56  C   -0.039968
    57  C   -0.050528
    58  C   -0.032887
    59  C   -0.016456
    60  C   -0.070220
    61  C   -0.038969
    62  C   -0.045392
    63  C   -0.029963
    64  C   -0.000650
    65  C   -0.062729
    66  C   -0.063550
    67  H    0.028705
    68  H    0.042069
    69  H    0.024485
    70  H    0.039832
    71  H    0.029090
    72  H    0.026986
    73  H    0.033328
    74  H    0.016127
    75  H    0.034932
    76  H    0.032949
    77  H    0.049146
    78  H    0.035729
    79  H    0.032063
    80  H    0.029144
    81  H    0.035103
    82  H    0.036610
    83  H    0.033430
    84  H    0.034338
    85  H    0.023986
    86  H    0.017105
    87  H    0.024001
    88  H    0.024307
    89  H    0.029705
    90  H    0.004717
    91  H    0.018657
    92  H    0.024229
    93  H    0.034322
    94  H    0.018023
    95  H    0.033893
    96  H    0.045112
    97  H    0.016977
    98  H    0.048842
    99  H    0.059746
   100  H    0.020042
   101  H    0.045025
   102  H    0.059524
   103  H    0.033453
   104  H    0.034845
   105  H    0.018029
   106  H    0.024284
   107  H    0.029704
   108  H    0.024619
   109  H    0.021577
   110  H    0.015490
   111  H    0.046962
   112  H    0.033755
   113  H    0.033215
   114  H    0.015283
   115  H    0.019400
   116  H    0.019832
   117  H    0.013107
   118  H    0.018377
   119  H    0.025250
   120  H    0.021894
   121  H    0.019643
   122  H    0.018882
   123  H    0.022757
   124  H    0.035226
   125  H    0.024450
   126  H    0.001317
   127  H    0.027347
   128  H    0.015767
   129  H    0.021632
   130  H    0.016676
   131  H    0.013777
   132  H    0.022895
   133  H    0.027587
   134  H    0.025905
   135  H    0.005507
   136  H    0.016794
   137  H    0.031805
   138  H    0.012743
   139  H    0.002918
   140  H    0.023764
 Sum of Mulliken charges =  -0.00000

 Dipole moment (field-independent basis, Debye):
    X=              5.2021    Y=              5.4558    Z=             -1.5522  Tot=              7.6965
 N-N= 4.286202861763D+03 E-N= 0.000000000000D+00  KE=-9.246339816980D+03
 Leave Link  601 at Fri Apr 29 17:22:30 2022, MaxMem=  6710886400 cpu:               0.8 elap:               0.0
 (Enter /sw/apps/gaussian-16.0/g16/l9999.exe)
 1\1\GINC-BP1-COMPUTE102\SP\RZINDO CIS\STO-3G\C55H74Mg1N4O6\OF15641\29-
 Apr-2022\0\\#p ZINDO=(nstates=5)\\step_401_chromophore_13 ZINDO\\0,1\M
 g,0,46.504,24.866,28.215\C,0,47.357,27.1,30.885\C,0,46.065,22.352,30.3
 56\C,0,46.563,22.794,25.532\C,0,47.591,27.529,26.079\N,0,46.721,24.755
 ,30.302\C,0,46.789,25.817,31.21\C,0,46.398,25.447,32.625\C,0,46.182,23
 .899,32.421\C,0,46.248,23.647,30.93\C,0,47.128,22.965,33.245\C,0,45.11
 2,26.21,33.181\C,0,45.402,27.001,34.479\C,0,44.546,26.821,35.709\O,0,4

 Normal termination of Gaussian 16 at Fri Apr 29 17:22:31 2022.
