 Gaussian 16, Revision A.03,
 Gaussian 16:  ES64L-G16RevA.03 25-Dec-2016

 ------------------------------
 #p blyp/Def2SVP td=(nstates=5)
 ------------------------------

 --------------------------------------------------
 step_851_chromophore_11 TDDFT with blyp functional
 --------------------------------------------------
 Symbolic Z-matrix:
 Charge =  0 Multiplicity = 1

                         Standard orientation:
 ---------------------------------------------------------------------
 Center     Atomic      Atomic             Coordinates (Angstroms)
 Number     Number       Type             X           Y           Z
 ---------------------------------------------------------------------
      1         12           0       -4.855237    1.465406    0.707826
      2          6           0       -5.499023   -2.004140    0.642853
      3          6           0       -2.356170    0.834050    3.034539
      4          6           0       -3.614569    4.552800    0.099039
      5          6           0       -7.105173    1.892698   -1.989543
      6          7           0       -4.014147   -0.493633    1.728310
      7          6           0       -4.381904   -1.795978    1.504677
      8          6           0       -3.593180   -2.670662    2.481579
      9          6           0       -2.789763   -1.673696    3.419967
     10          6           0       -2.969264   -0.389379    2.662894
     11          6           0       -3.301833   -1.615923    4.867703
     12          6           0       -2.599543   -3.735873    1.832812
     13          6           0       -2.088872   -3.283945    0.433901
     14          6           0       -1.025385   -4.205902   -0.167490
     15          8           0       -0.928056   -5.407315   -0.021464
     16          8           0       -0.043727   -3.490222   -0.943118
     17          7           0       -3.168553    2.539023    1.368310
     18          6           0       -2.394052    2.150132    2.462277
     19          6           0       -1.558486    3.207742    2.834589
     20          6           0       -1.793466    4.252253    1.918533
     21          6           0       -2.885279    3.811815    1.055520
     22          6           0       -0.587765    3.133226    4.013213
     23          6           0       -1.069891    5.523059    1.880684
     24          8           0       -0.377908    5.937038    2.808930
     25          6           0       -1.178599    6.482275    0.740306
     26          7           0       -5.190850    2.978992   -0.837340
     27          6           0       -4.577358    4.148493   -0.829922
     28          6           0       -5.162489    5.146968   -1.786926
     29          6           0       -6.243207    4.355986   -2.550088
     30          6           0       -6.195898    2.957629   -1.781482
     31          6           0       -5.853469    6.342877   -1.033011
     32          6           0       -5.856377    4.132294   -4.035912
     33          6           0       -4.616730    3.208489   -4.288877
     34          7           0       -6.140195    0.239876   -0.322421
     35          6           0       -7.025799    0.605036   -1.317302
     36          6           0       -7.877490   -0.580302   -1.529619
     37          6           0       -7.323552   -1.588601   -0.740226
     38          6           0       -6.235822   -1.064879   -0.111589
     39          6           0       -8.994308   -0.644928   -2.539833
     40          6           0       -7.432539   -2.976190   -0.429188
     41          8           0       -8.301335   -3.805342   -0.692355
     42          6           0       -6.159656   -3.330812    0.391469
     43          6           0       -5.406205   -4.262979   -0.446850
     44          8           0       -4.901674   -3.964809   -1.520034
     45          8           0       -5.447224   -5.505367    0.119596
     46          6           0       -4.610285   -6.447073   -0.590345
     47          6           0        1.047284   -4.214100   -1.603067
     48          6           0        2.226484   -3.219686   -1.554738
     49          6           0        3.094469   -3.322008   -0.529326
     50          6           0        3.004758   -4.193858    0.787429
     51          6           0        4.170987   -2.235544   -0.385702
     52          6           0        5.258437   -1.999351   -1.431646
     53          6           0        6.476573   -1.291926   -0.836293
     54          6           0        6.639967    0.208206   -1.295882
     55          6           0        7.068690    0.279333   -2.819744
     56          6           0        7.577146    1.076553   -0.459174
     57          6           0        8.939098    0.475513   -0.425453
     58          6           0        9.584822    0.847400    0.906147
     59          6           0       11.055361    0.344225    1.027608
     60          6           0       11.366304    0.299820    2.529885
     61          6           0       12.062030    1.206971    0.174520
     62          6           0       12.773439    0.557099   -0.980421
     63          6           0       14.072911   -0.124674   -0.568579
     64          6           0       15.373648    0.288020   -1.330611
     65          6           0       16.541198   -0.717382   -1.067209
     66          6           0       15.986177    1.629775   -0.871030
     67          1           0       -1.562069    0.607595    3.748738
     68          1           0       -3.295088    5.560110   -0.172166
     69          1           0       -7.944974    2.053895   -2.668036
     70          1           0       -4.209647   -3.360418    3.058359
     71          1           0       -1.736213   -1.932411    3.528931
     72          1           0       -4.004228   -0.782816    4.896515
     73          1           0       -2.485697   -1.472428    5.575409
     74          1           0       -3.869585   -2.490192    5.186913
     75          1           0       -3.050825   -4.727229    1.798324
     76          1           0       -1.716516   -3.840578    2.462714
     77          1           0       -1.886190   -2.216452    0.354868
     78          1           0       -2.917581   -3.446262   -0.255404
     79          1           0        0.435712    2.893146    3.724672
     80          1           0       -0.951542    2.459601    4.788573
     81          1           0       -0.435732    4.097462    4.498261
     82          1           0       -1.091410    6.018314   -0.242297
     83          1           0       -0.344320    7.179888    0.812288
     84          1           0       -2.060564    7.113897    0.845665
     85          1           0       -4.403101    5.447857   -2.508395
     86          1           0       -7.242621    4.745456   -2.358799
     87          1           0       -6.796889    6.526613   -1.545299
     88          1           0       -5.222646    7.232118   -1.004091
     89          1           0       -6.065008    6.113544    0.011853
     90          1           0       -5.616182    5.099132   -4.476934
     91          1           0       -6.754422    3.789408   -4.549173
     92          1           0       -4.052594    3.119322   -3.361020
     93          1           0       -3.981156    3.659337   -5.050738
     94          1           0       -4.757559    2.215495   -4.715689
     95          1           0       -9.905635   -0.394037   -1.998764
     96          1           0       -9.138602   -1.701528   -2.770828
     97          1           0       -8.952811   -0.071359   -3.465828
     98          1           0       -6.316828   -3.820374    1.352665
     99          1           0       -3.730203   -6.093641   -1.127656
    100          1           0       -5.239838   -6.870143   -1.373440
    101          1           0       -4.497392   -7.315474    0.057500
    102          1           0        0.764241   -4.361660   -2.645064
    103          1           0        1.248147   -5.237708   -1.288535
    104          1           0        2.512408   -2.542306   -2.359079
    105          1           0        2.177841   -4.902819    0.825983
    106          1           0        2.903634   -3.483497    1.608173
    107          1           0        3.892945   -4.821526    0.867315
    108          1           0        4.598935   -2.318529    0.614372
    109          1           0        3.653405   -1.277040   -0.422256
    110          1           0        4.708011   -1.391208   -2.150547
    111          1           0        5.486026   -2.987136   -1.832119
    112          1           0        7.392387   -1.786379   -1.160906
    113          1           0        6.343331   -1.295704    0.245751
    114          1           0        5.640243    0.642652   -1.268463
    115          1           0        7.892144   -0.412471   -3.003389
    116          1           0        7.464887    1.272982   -3.028315
    117          1           0        6.249336   -0.009562   -3.478122
    118          1           0        7.139267    1.177823    0.534268
    119          1           0        7.603458    2.080332   -0.883355
    120          1           0        9.519426    1.000644   -1.183482
    121          1           0        9.088130   -0.551544   -0.760386
    122          1           0        9.001751    0.226117    1.586933
    123          1           0        9.794335    1.914685    0.975260
    124          1           0       11.053635   -0.696983    0.702673
    125          1           0       12.337196    0.739625    2.759044
    126          1           0       11.155185   -0.721964    2.848271
    127          1           0       10.713568    0.892071    3.170294
    128          1           0       12.766047    1.716164    0.834056
    129          1           0       11.445231    2.001750   -0.244589
    130          1           0       13.023385    1.314482   -1.723327
    131          1           0       12.271600   -0.306556   -1.415710
    132          1           0       14.062526   -1.203561   -0.726137
    133          1           0       14.165010    0.082670    0.497400
    134          1           0       15.159970    0.268926   -2.398895
    135          1           0       16.253543   -1.767517   -1.010065
    136          1           0       16.986701   -0.423947   -0.116208
    137          1           0       17.198916   -0.743843   -1.936122
    138          1           0       15.644820    2.328889   -1.635133
    139          1           0       17.066467    1.488314   -0.829819
    140          1           0       15.541998    1.986264    0.057779
 ---------------------------------------------------------------------

 SCF Done:  E(RB-LYP) =  -3007.38117215     A.U. after   21 cycles

 Excitation energies and oscillator strengths:

 Excited State   1:      Singlet-A      1.6133 eV  768.51 nm  f=0.0051  <S**2>=0.000
     244 -> 247        0.68264
     245 -> 247        0.15359
 This state for optimization and/or second-order correction.
 Total Energy, E(TD-HF/TD-DFT) =  -3007.32188393
 Copying the excited state density for this state as the 1-particle RhoCI density.

 Excited State   2:      Singlet-A      1.8494 eV  670.41 nm  f=0.2815  <S**2>=0.000
     244 -> 247        0.10447
     245 -> 248        0.21282
     246 -> 247        0.67486
     246 <- 247       -0.13792

 Excited State   3:      Singlet-A      1.9386 eV  639.55 nm  f=0.0308  <S**2>=0.000
     243 -> 247        0.56463
     245 -> 247       -0.39240
     246 -> 248        0.11063

 Excited State   4:      Singlet-A      2.0555 eV  603.19 nm  f=0.0608  <S**2>=0.000
     243 -> 247        0.41887
     244 -> 247       -0.10935
     245 -> 247        0.50475
     246 -> 248       -0.21976

 Excited State   5:      Singlet-A      2.1696 eV  571.46 nm  f=0.0001  <S**2>=0.000
     242 -> 247        0.70693

 The electronic state is 1-A.
 Alpha  occ. eigenvalues --  -46.28552 -18.82984 -18.80080 -18.77038 -18.77022
 Alpha  occ. eigenvalues --  -18.75983 -18.74606 -14.03657 -14.03519 -14.01471
 Alpha  occ. eigenvalues --  -14.01411 -10.03954 -10.03927  -9.99822  -9.98838
 Alpha  occ. eigenvalues --   -9.97519  -9.97221  -9.96996  -9.96949  -9.96858
 Alpha  occ. eigenvalues --   -9.96478  -9.96453  -9.96257  -9.95725  -9.95201
 Alpha  occ. eigenvalues --   -9.94776  -9.94619  -9.94478  -9.94376  -9.94113
 Alpha  occ. eigenvalues --   -9.94075  -9.94060  -9.93711  -9.93655  -9.93456
 Alpha  occ. eigenvalues --   -9.93445  -9.93400  -9.93377  -9.93191  -9.92889
 Alpha  occ. eigenvalues --   -9.92887  -9.92603  -9.92438  -9.92351  -9.92133
 Alpha  occ. eigenvalues --   -9.92132  -9.91770  -9.91756  -9.91706  -9.91423
 Alpha  occ. eigenvalues --   -9.91384  -9.91367  -9.91321  -9.91253  -9.91073
 Alpha  occ. eigenvalues --   -9.91011  -9.90983  -9.90948  -9.90832  -9.90712
 Alpha  occ. eigenvalues --   -9.90587  -9.90528  -9.90502  -9.90341  -9.90305
 Alpha  occ. eigenvalues --   -9.90234  -2.93025  -1.73431  -1.72932  -1.72725
 Alpha  occ. eigenvalues --   -0.98771  -0.95639  -0.91400  -0.90767  -0.90557
 Alpha  occ. eigenvalues --   -0.88585  -0.87521  -0.86928  -0.86043  -0.85086
 Alpha  occ. eigenvalues --   -0.76552  -0.73699  -0.72811  -0.72782  -0.72504
 Alpha  occ. eigenvalues --   -0.72300  -0.71861  -0.71336  -0.70593  -0.70281
 Alpha  occ. eigenvalues --   -0.69740  -0.69075  -0.68305  -0.68035  -0.67150
 Alpha  occ. eigenvalues --   -0.66665  -0.66195  -0.65215  -0.64853  -0.64432
 Alpha  occ. eigenvalues --   -0.63723  -0.62584  -0.61888  -0.61712  -0.60867
 Alpha  occ. eigenvalues --   -0.60369  -0.59891  -0.59619  -0.59140  -0.58715
 Alpha  occ. eigenvalues --   -0.58517  -0.57672  -0.57257  -0.55922  -0.55708
 Alpha  occ. eigenvalues --   -0.54602  -0.53828  -0.53355  -0.52112  -0.51751
 Alpha  occ. eigenvalues --   -0.51626  -0.51420  -0.51414  -0.50843  -0.49092
 Alpha  occ. eigenvalues --   -0.48870  -0.48569  -0.48387  -0.47440  -0.46883
 Alpha  occ. eigenvalues --   -0.46483  -0.45984  -0.45517  -0.45118  -0.45025
 Alpha  occ. eigenvalues --   -0.44553  -0.44018  -0.43493  -0.43154  -0.43122
 Alpha  occ. eigenvalues --   -0.42597  -0.42431  -0.42162  -0.41816  -0.41327
 Alpha  occ. eigenvalues --   -0.40730  -0.40583  -0.40340  -0.40182  -0.40134
 Alpha  occ. eigenvalues --   -0.39762  -0.39606  -0.39522  -0.39212  -0.39111
 Alpha  occ. eigenvalues --   -0.38952  -0.38802  -0.38683  -0.38278  -0.38103
 Alpha  occ. eigenvalues --   -0.37970  -0.37707  -0.37502  -0.37373  -0.37028
 Alpha  occ. eigenvalues --   -0.36969  -0.36776  -0.36733  -0.36436  -0.36284
 Alpha  occ. eigenvalues --   -0.36139  -0.36090  -0.35691  -0.35594  -0.35439
 Alpha  occ. eigenvalues --   -0.35290  -0.35166  -0.35025  -0.34792  -0.34606
 Alpha  occ. eigenvalues --   -0.34364  -0.34322  -0.34115  -0.33837  -0.33754
 Alpha  occ. eigenvalues --   -0.33702  -0.33602  -0.33399  -0.33213  -0.33152
 Alpha  occ. eigenvalues --   -0.32940  -0.32842  -0.32637  -0.32504  -0.32422
 Alpha  occ. eigenvalues --   -0.32316  -0.32097  -0.31952  -0.31665  -0.31602
 Alpha  occ. eigenvalues --   -0.31397  -0.31296  -0.31186  -0.30944  -0.30739
 Alpha  occ. eigenvalues --   -0.30592  -0.30376  -0.30256  -0.29962  -0.29720
 Alpha  occ. eigenvalues --   -0.29602  -0.29313  -0.29106  -0.29054  -0.29012
 Alpha  occ. eigenvalues --   -0.28826  -0.28486  -0.28423  -0.28222  -0.27804
 Alpha  occ. eigenvalues --   -0.27544  -0.27088  -0.26754  -0.26535  -0.26531
 Alpha  occ. eigenvalues --   -0.26406  -0.25919  -0.25884  -0.25584  -0.25210
 Alpha  occ. eigenvalues --   -0.25116  -0.24589  -0.24236  -0.23788  -0.23389
 Alpha  occ. eigenvalues --   -0.23167  -0.22862  -0.22232  -0.22025  -0.21000
 Alpha  occ. eigenvalues --   -0.20738  -0.20018  -0.19172  -0.17901  -0.17600
 Alpha  occ. eigenvalues --   -0.16536
 Alpha virt. eigenvalues --   -0.12046  -0.07284  -0.06460  -0.04897  -0.04311
 Alpha virt. eigenvalues --   -0.03035  -0.02557  -0.01990  -0.01760  -0.00189
 Alpha virt. eigenvalues --    0.01074   0.01631   0.02110   0.02915   0.03058

 Mulliken charges:
               1
     1  Mg   0.700108
     2  C   -0.014981
     3  C   -0.049183
     4  C   -0.044583
     5  C   -0.050295
     6  N   -0.219404
     7  C   -0.056910
     8  C    0.046332
     9  C    0.022661
    10  C   -0.022249
    11  C    0.125575
    12  C    0.049274
    13  C    0.109563
    14  C    0.104460
    15  O   -0.188385
    16  O   -0.312133
    17  N   -0.282399
    18  C    0.146913
    19  C   -0.124779
    20  C    0.089964
    21  C    0.139677
    22  C    0.179719
    23  C   -0.133648
    24  O   -0.175743
    25  C    0.140888
    26  N   -0.185866
    27  C   -0.060748
    28  C    0.041392
    29  C    0.021501
    30  C   -0.008062
    31  C    0.123070
    32  C    0.095893
    33  C    0.056322
    34  N   -0.256866
    35  C    0.100956
    36  C   -0.199207
    37  C    0.146269
    38  C    0.108661
    39  C    0.173762
    40  C   -0.072400
    41  O   -0.134252
    42  C    0.082329
    43  C    0.101130
    44  O   -0.193656
    45  O   -0.247249
    46  C    0.234715
    47  C    0.315491
    48  C   -0.075619
    49  C   -0.115300
    50  C    0.117868
    51  C    0.053434
    52  C    0.097930
    53  C    0.129112
    54  C   -0.091048
    55  C    0.083438
    56  C    0.152474
    57  C    0.046584
    58  C    0.095310
    59  C   -0.083466
    60  C    0.124191
    61  C    0.112434
    62  C    0.126830
    63  C    0.071925
    64  C   -0.126381
    65  C    0.088826
    66  C    0.121492
    67  H   -0.050332
    68  H   -0.078644
    69  H   -0.053395
    70  H   -0.030613
    71  H   -0.023656
    72  H   -0.008457
    73  H   -0.001114
    74  H   -0.007280
    75  H   -0.003969
    76  H   -0.016382
    77  H    0.006298
    78  H    0.022144
    79  H   -0.002128
    80  H   -0.011292
    81  H   -0.002619
    82  H   -0.002162
    83  H   -0.018444
    84  H    0.016932
    85  H   -0.020809
    86  H   -0.025545
    87  H   -0.004886
    88  H   -0.001734
    89  H   -0.002844
    90  H   -0.020024
    91  H   -0.021460
    92  H    0.008376
    93  H   -0.017196
    94  H    0.002202
    95  H   -0.005464
    96  H    0.000934
    97  H    0.004911
    98  H   -0.020371
    99  H    0.032453
   100  H   -0.006810
   101  H    0.006827
   102  H   -0.028947
   103  H    0.002532
   104  H   -0.030577
   105  H   -0.005335
   106  H    0.013208
   107  H    0.001836
   108  H   -0.044336
   109  H   -0.016485
   110  H   -0.019390
   111  H   -0.033270
   112  H   -0.029166
   113  H   -0.033009
   114  H   -0.052692
   115  H   -0.021452
   116  H   -0.017811
   117  H   -0.009573
   118  H   -0.037679
   119  H   -0.033316
   120  H   -0.053297
   121  H   -0.026670
   122  H   -0.026430
   123  H   -0.020168
   124  H   -0.050499
   125  H   -0.022900
   126  H   -0.015461
   127  H   -0.031552
   128  H   -0.035715
   129  H   -0.047888
   130  H   -0.037237
   131  H   -0.025322
   132  H   -0.040126
   133  H   -0.039310
   134  H   -0.033779
   135  H   -0.034095
   136  H   -0.006718
   137  H   -0.013696
   138  H   -0.020321
   139  H   -0.006246
   140  H   -0.014217
 Sum of Mulliken charges =  -0.00000

 Dipole moment (field-independent basis, Debye):
    X=             -0.4957    Y=              2.5809    Z=             -0.0710  Tot=              2.6290
 Quadrupole moment (field-independent basis, Debye-Ang):
   XX=           -409.2728   YY=           -416.6107   ZZ=           -395.8367
   XY=            -44.8855   XZ=             -7.9741   YZ=            -29.5282

 Normal termination of Gaussian 16 at Thu May  5 11:26:10 2022.
