 Gaussian 16, Revision A.03,
 Gaussian 16:  ES64L-G16RevA.03 25-Dec-2016

 -----------------------------------
 #p cam-b3lyp/Def2SVP td=(nstates=5)
 -----------------------------------

 -------------------------------------------------------
 step_851_chromophore_11 TDDFT with cam-b3lyp functional
 -------------------------------------------------------
 Symbolic Z-matrix:
 Charge =  0 Multiplicity = 1

                         Standard orientation:
 ---------------------------------------------------------------------
 Center     Atomic      Atomic             Coordinates (Angstroms)
 Number     Number       Type             X           Y           Z
 ---------------------------------------------------------------------
      1         12           0       -4.855237    1.465406    0.707826
      2          6           0       -5.499023   -2.004140    0.642853
      3          6           0       -2.356170    0.834050    3.034539
      4          6           0       -3.614569    4.552800    0.099039
      5          6           0       -7.105173    1.892698   -1.989543
      6          7           0       -4.014147   -0.493633    1.728310
      7          6           0       -4.381904   -1.795978    1.504677
      8          6           0       -3.593180   -2.670662    2.481579
      9          6           0       -2.789763   -1.673696    3.419967
     10          6           0       -2.969264   -0.389379    2.662894
     11          6           0       -3.301833   -1.615923    4.867703
     12          6           0       -2.599543   -3.735873    1.832812
     13          6           0       -2.088872   -3.283945    0.433901
     14          6           0       -1.025385   -4.205902   -0.167490
     15          8           0       -0.928056   -5.407315   -0.021464
     16          8           0       -0.043727   -3.490222   -0.943118
     17          7           0       -3.168553    2.539023    1.368310
     18          6           0       -2.394052    2.150132    2.462277
     19          6           0       -1.558486    3.207742    2.834589
     20          6           0       -1.793466    4.252253    1.918533
     21          6           0       -2.885279    3.811815    1.055520
     22          6           0       -0.587765    3.133226    4.013213
     23          6           0       -1.069891    5.523059    1.880684
     24          8           0       -0.377908    5.937038    2.808930
     25          6           0       -1.178599    6.482275    0.740306
     26          7           0       -5.190850    2.978992   -0.837340
     27          6           0       -4.577358    4.148493   -0.829922
     28          6           0       -5.162489    5.146968   -1.786926
     29          6           0       -6.243207    4.355986   -2.550088
     30          6           0       -6.195898    2.957629   -1.781482
     31          6           0       -5.853469    6.342877   -1.033011
     32          6           0       -5.856377    4.132294   -4.035912
     33          6           0       -4.616730    3.208489   -4.288877
     34          7           0       -6.140195    0.239876   -0.322421
     35          6           0       -7.025799    0.605036   -1.317302
     36          6           0       -7.877490   -0.580302   -1.529619
     37          6           0       -7.323552   -1.588601   -0.740226
     38          6           0       -6.235822   -1.064879   -0.111589
     39          6           0       -8.994308   -0.644928   -2.539833
     40          6           0       -7.432539   -2.976190   -0.429188
     41          8           0       -8.301335   -3.805342   -0.692355
     42          6           0       -6.159656   -3.330812    0.391469
     43          6           0       -5.406205   -4.262979   -0.446850
     44          8           0       -4.901674   -3.964809   -1.520034
     45          8           0       -5.447224   -5.505367    0.119596
     46          6           0       -4.610285   -6.447073   -0.590345
     47          6           0        1.047284   -4.214100   -1.603067
     48          6           0        2.226484   -3.219686   -1.554738
     49          6           0        3.094469   -3.322008   -0.529326
     50          6           0        3.004758   -4.193858    0.787429
     51          6           0        4.170987   -2.235544   -0.385702
     52          6           0        5.258437   -1.999351   -1.431646
     53          6           0        6.476573   -1.291926   -0.836293
     54          6           0        6.639967    0.208206   -1.295882
     55          6           0        7.068690    0.279333   -2.819744
     56          6           0        7.577146    1.076553   -0.459174
     57          6           0        8.939098    0.475513   -0.425453
     58          6           0        9.584822    0.847400    0.906147
     59          6           0       11.055361    0.344225    1.027608
     60          6           0       11.366304    0.299820    2.529885
     61          6           0       12.062030    1.206971    0.174520
     62          6           0       12.773439    0.557099   -0.980421
     63          6           0       14.072911   -0.124674   -0.568579
     64          6           0       15.373648    0.288020   -1.330611
     65          6           0       16.541198   -0.717382   -1.067209
     66          6           0       15.986177    1.629775   -0.871030
     67          1           0       -1.562069    0.607595    3.748738
     68          1           0       -3.295088    5.560110   -0.172166
     69          1           0       -7.944974    2.053895   -2.668036
     70          1           0       -4.209647   -3.360418    3.058359
     71          1           0       -1.736213   -1.932411    3.528931
     72          1           0       -4.004228   -0.782816    4.896515
     73          1           0       -2.485697   -1.472428    5.575409
     74          1           0       -3.869585   -2.490192    5.186913
     75          1           0       -3.050825   -4.727229    1.798324
     76          1           0       -1.716516   -3.840578    2.462714
     77          1           0       -1.886190   -2.216452    0.354868
     78          1           0       -2.917581   -3.446262   -0.255404
     79          1           0        0.435712    2.893146    3.724672
     80          1           0       -0.951542    2.459601    4.788573
     81          1           0       -0.435732    4.097462    4.498261
     82          1           0       -1.091410    6.018314   -0.242297
     83          1           0       -0.344320    7.179888    0.812288
     84          1           0       -2.060564    7.113897    0.845665
     85          1           0       -4.403101    5.447857   -2.508395
     86          1           0       -7.242621    4.745456   -2.358799
     87          1           0       -6.796889    6.526613   -1.545299
     88          1           0       -5.222646    7.232118   -1.004091
     89          1           0       -6.065008    6.113544    0.011853
     90          1           0       -5.616182    5.099132   -4.476934
     91          1           0       -6.754422    3.789408   -4.549173
     92          1           0       -4.052594    3.119322   -3.361020
     93          1           0       -3.981156    3.659337   -5.050738
     94          1           0       -4.757559    2.215495   -4.715689
     95          1           0       -9.905635   -0.394037   -1.998764
     96          1           0       -9.138602   -1.701528   -2.770828
     97          1           0       -8.952811   -0.071359   -3.465828
     98          1           0       -6.316828   -3.820374    1.352665
     99          1           0       -3.730203   -6.093641   -1.127656
    100          1           0       -5.239838   -6.870143   -1.373440
    101          1           0       -4.497392   -7.315474    0.057500
    102          1           0        0.764241   -4.361660   -2.645064
    103          1           0        1.248147   -5.237708   -1.288535
    104          1           0        2.512408   -2.542306   -2.359079
    105          1           0        2.177841   -4.902819    0.825983
    106          1           0        2.903634   -3.483497    1.608173
    107          1           0        3.892945   -4.821526    0.867315
    108          1           0        4.598935   -2.318529    0.614372
    109          1           0        3.653405   -1.277040   -0.422256
    110          1           0        4.708011   -1.391208   -2.150547
    111          1           0        5.486026   -2.987136   -1.832119
    112          1           0        7.392387   -1.786379   -1.160906
    113          1           0        6.343331   -1.295704    0.245751
    114          1           0        5.640243    0.642652   -1.268463
    115          1           0        7.892144   -0.412471   -3.003389
    116          1           0        7.464887    1.272982   -3.028315
    117          1           0        6.249336   -0.009562   -3.478122
    118          1           0        7.139267    1.177823    0.534268
    119          1           0        7.603458    2.080332   -0.883355
    120          1           0        9.519426    1.000644   -1.183482
    121          1           0        9.088130   -0.551544   -0.760386
    122          1           0        9.001751    0.226117    1.586933
    123          1           0        9.794335    1.914685    0.975260
    124          1           0       11.053635   -0.696983    0.702673
    125          1           0       12.337196    0.739625    2.759044
    126          1           0       11.155185   -0.721964    2.848271
    127          1           0       10.713568    0.892071    3.170294
    128          1           0       12.766047    1.716164    0.834056
    129          1           0       11.445231    2.001750   -0.244589
    130          1           0       13.023385    1.314482   -1.723327
    131          1           0       12.271600   -0.306556   -1.415710
    132          1           0       14.062526   -1.203561   -0.726137
    133          1           0       14.165010    0.082670    0.497400
    134          1           0       15.159970    0.268926   -2.398895
    135          1           0       16.253543   -1.767517   -1.010065
    136          1           0       16.986701   -0.423947   -0.116208
    137          1           0       17.198916   -0.743843   -1.936122
    138          1           0       15.644820    2.328889   -1.635133
    139          1           0       17.066467    1.488314   -0.829819
    140          1           0       15.541998    1.986264    0.057779
 ---------------------------------------------------------------------

 SCF Done:  E(RCAM-B3LYP) =  -3007.17808261     A.U. after   17 cycles

 Excitation energies and oscillator strengths:

 Excited State   1:      Singlet-A      1.7395 eV  712.75 nm  f=0.3600  <S**2>=0.000
     245 -> 248       -0.19711
     246 -> 247        0.68133
     245 <- 248       -0.11198
 This state for optimization and/or second-order correction.
 Total Energy, E(TD-HF/TD-DFT) =  -3007.11415614
 Copying the excited state density for this state as the 1-particle RhoCI density.

 Excited State   2:      Singlet-A      2.2167 eV  559.32 nm  f=0.1300  <S**2>=0.000
     245 -> 247        0.64772
     246 -> 248        0.27448

 Excited State   3:      Singlet-A      3.3521 eV  369.87 nm  f=0.0046  <S**2>=0.000
     241 -> 251       -0.13079
     243 -> 247        0.64222
     243 -> 249        0.11576

 Excited State   4:      Singlet-A      3.4050 eV  364.12 nm  f=0.0013  <S**2>=0.000
     241 -> 247        0.52095
     241 -> 249        0.18694
     241 -> 251       -0.17992
     242 -> 247       -0.31013
     243 -> 247       -0.10690
     243 -> 251       -0.12565

 Excited State   5:      Singlet-A      3.4800 eV  356.28 nm  f=0.0065  <S**2>=0.000
     239 -> 247       -0.15157
     240 -> 249        0.10938
     241 -> 247        0.29586
     242 -> 247        0.56421

 The electronic state is 1-A.
 Alpha  occ. eigenvalues --  -46.90234 -19.26012 -19.22852 -19.20253 -19.20075
 Alpha  occ. eigenvalues --  -19.19173 -19.17752 -14.42828 -14.42231 -14.39945
 Alpha  occ. eigenvalues --  -14.39811 -10.39490 -10.39433 -10.35149 -10.33926
 Alpha  occ. eigenvalues --  -10.32068 -10.31729 -10.31392 -10.30995 -10.30976
 Alpha  occ. eigenvalues --  -10.30965 -10.30790 -10.30754 -10.30053 -10.29333
 Alpha  occ. eigenvalues --  -10.28999 -10.28960 -10.28638 -10.28414 -10.28361
 Alpha  occ. eigenvalues --  -10.28122 -10.28070 -10.28035 -10.28018 -10.27751
 Alpha  occ. eigenvalues --  -10.27658 -10.27469 -10.27174 -10.27016 -10.26915
 Alpha  occ. eigenvalues --  -10.26611 -10.26540 -10.26368 -10.26066 -10.26037
 Alpha  occ. eigenvalues --  -10.25719 -10.25647 -10.25503 -10.25427 -10.25288
 Alpha  occ. eigenvalues --  -10.25262 -10.25119 -10.25051 -10.24995 -10.24944
 Alpha  occ. eigenvalues --  -10.24741 -10.24672 -10.24600 -10.24431 -10.24342
 Alpha  occ. eigenvalues --  -10.24204 -10.24117 -10.24107 -10.23970 -10.23929
 Alpha  occ. eigenvalues --  -10.23853  -3.18599  -1.93482  -1.93055  -1.92890
 Alpha  occ. eigenvalues --   -1.17413  -1.14114  -1.09780  -1.09114  -1.08657
 Alpha  occ. eigenvalues --   -1.06353  -1.05226  -1.04583  -1.03702  -1.02780
 Alpha  occ. eigenvalues --   -0.93783  -0.90574  -0.89575  -0.89486  -0.89253
 Alpha  occ. eigenvalues --   -0.89048  -0.88564  -0.87982  -0.87178  -0.86811
 Alpha  occ. eigenvalues --   -0.86298  -0.85555  -0.84581  -0.84261  -0.83331
 Alpha  occ. eigenvalues --   -0.82752  -0.82201  -0.81098  -0.80805  -0.80351
 Alpha  occ. eigenvalues --   -0.79461  -0.78222  -0.77514  -0.77187  -0.76315
 Alpha  occ. eigenvalues --   -0.75665  -0.75184  -0.74950  -0.74426  -0.73939
 Alpha  occ. eigenvalues --   -0.73575  -0.72679  -0.72218  -0.70706  -0.70416
 Alpha  occ. eigenvalues --   -0.69295  -0.68444  -0.67885  -0.66490  -0.65986
 Alpha  occ. eigenvalues --   -0.65770  -0.65564  -0.65440  -0.64923  -0.63058
 Alpha  occ. eigenvalues --   -0.62689  -0.62287  -0.62258  -0.61172  -0.60538
 Alpha  occ. eigenvalues --   -0.60071  -0.59573  -0.59088  -0.58637  -0.58506
 Alpha  occ. eigenvalues --   -0.58039  -0.57242  -0.56535  -0.56364  -0.56017
 Alpha  occ. eigenvalues --   -0.55731  -0.55699  -0.55293  -0.55043  -0.54210
 Alpha  occ. eigenvalues --   -0.53695  -0.53305  -0.53114  -0.53020  -0.52693
 Alpha  occ. eigenvalues --   -0.52477  -0.52218  -0.52169  -0.52034  -0.51800
 Alpha  occ. eigenvalues --   -0.51638  -0.51540  -0.51284  -0.50987  -0.50678
 Alpha  occ. eigenvalues --   -0.50264  -0.50033  -0.49861  -0.49757  -0.49312
 Alpha  occ. eigenvalues --   -0.49137  -0.49029  -0.48891  -0.48780  -0.48574
 Alpha  occ. eigenvalues --   -0.48445  -0.48232  -0.48184  -0.47559  -0.47439
 Alpha  occ. eigenvalues --   -0.47268  -0.47214  -0.47064  -0.46799  -0.46671
 Alpha  occ. eigenvalues --   -0.46318  -0.46259  -0.45947  -0.45640  -0.45583
 Alpha  occ. eigenvalues --   -0.45506  -0.45272  -0.45255  -0.45024  -0.44841
 Alpha  occ. eigenvalues --   -0.44686  -0.44521  -0.44508  -0.44130  -0.44066
 Alpha  occ. eigenvalues --   -0.43867  -0.43565  -0.43392  -0.43346  -0.43260
 Alpha  occ. eigenvalues --   -0.42974  -0.42834  -0.42810  -0.42376  -0.42333
 Alpha  occ. eigenvalues --   -0.42018  -0.41727  -0.41504  -0.41461  -0.41181
 Alpha  occ. eigenvalues --   -0.41123  -0.40473  -0.40376  -0.40170  -0.40147
 Alpha  occ. eigenvalues --   -0.40061  -0.39550  -0.39466  -0.39207  -0.38768
 Alpha  occ. eigenvalues --   -0.38413  -0.37936  -0.37924  -0.37412  -0.37290
 Alpha  occ. eigenvalues --   -0.37103  -0.36878  -0.36593  -0.36583  -0.36184
 Alpha  occ. eigenvalues --   -0.35808  -0.35097  -0.35034  -0.34698  -0.34477
 Alpha  occ. eigenvalues --   -0.34107  -0.33758  -0.33633  -0.31716  -0.31169
 Alpha  occ. eigenvalues --   -0.30422  -0.30287  -0.30039  -0.29793  -0.24271
 Alpha  occ. eigenvalues --   -0.21968
 Alpha virt. eigenvalues --   -0.09234  -0.02244  -0.00018   0.00750   0.02149
 Alpha virt. eigenvalues --    0.04521   0.04976   0.05471   0.06054   0.06669
 Alpha virt. eigenvalues --    0.07710   0.08237   0.08682   0.09081   0.09231

 Mulliken charges:
               1
     1  Mg   0.829208
     2  C   -0.035505
     3  C   -0.059526
     4  C   -0.071218
     5  C   -0.060978
     6  N   -0.277267
     7  C   -0.025463
     8  C   -0.000605
     9  C   -0.032903
    10  C   -0.006068
    11  C    0.067170
    12  C    0.007199
    13  C    0.033729
    14  C    0.192850
    15  O   -0.228455
    16  O   -0.377394
    17  N   -0.369928
    18  C    0.148691
    19  C   -0.125648
    20  C    0.008291
    21  C    0.171904
    22  C    0.123955
    23  C   -0.052190
    24  O   -0.217556
    25  C    0.053367
    26  N   -0.258112
    27  C   -0.024919
    28  C   -0.025849
    29  C   -0.030147
    30  C    0.010253
    31  C    0.065860
    32  C    0.043470
    33  C   -0.007385
    34  N   -0.348725
    35  C    0.108405
    36  C   -0.190833
    37  C    0.059937
    38  C    0.145499
    39  C    0.117416
    40  C    0.023792
    41  O   -0.172844
    42  C    0.005190
    43  C    0.189484
    44  O   -0.229553
    45  O   -0.308699
    46  C    0.185945
    47  C    0.277903
    48  C   -0.095700
    49  C   -0.135236
    50  C    0.059211
    51  C   -0.000560
    52  C    0.043067
    53  C    0.071836
    54  C   -0.144766
    55  C    0.028266
    56  C    0.099856
    57  C   -0.009617
    58  C    0.037918
    59  C   -0.133650
    60  C    0.064862
    61  C    0.054192
    62  C    0.067687
    63  C    0.025078
    64  C   -0.180980
    65  C    0.025865
    66  C    0.058259
    67  H   -0.014864
    68  H   -0.043843
    69  H   -0.017812
    70  H    0.006079
    71  H    0.011215
    72  H    0.017506
    73  H    0.022482
    74  H    0.017883
    75  H    0.025151
    76  H    0.013588
    77  H    0.041331
    78  H    0.048893
    79  H    0.026595
    80  H    0.013722
    81  H    0.030679
    82  H    0.027456
    83  H    0.018552
    84  H    0.044159
    85  H    0.014900
    86  H    0.010607
    87  H    0.018812
    88  H    0.021606
    89  H    0.023789
    90  H    0.008551
    91  H    0.007078
    92  H    0.028003
    93  H    0.008035
    94  H    0.027722
    95  H    0.021505
    96  H    0.028584
    97  H    0.029360
    98  H    0.025733
    99  H    0.056494
   100  H    0.019243
   101  H    0.032379
   102  H    0.000252
   103  H    0.033581
   104  H    0.002238
   105  H    0.018217
   106  H    0.035383
   107  H    0.025927
   108  H   -0.014686
   109  H    0.011995
   110  H    0.004172
   111  H   -0.002644
   112  H   -0.001324
   113  H   -0.004998
   114  H   -0.020189
   115  H    0.000719
   116  H    0.006508
   117  H    0.014528
   118  H   -0.007788
   119  H   -0.003163
   120  H   -0.024939
   121  H    0.000066
   122  H    0.001683
   123  H    0.007247
   124  H   -0.018621
   125  H    0.000930
   126  H    0.009358
   127  H   -0.005086
   128  H   -0.008324
   129  H   -0.017727
   130  H   -0.007129
   131  H    0.002504
   132  H   -0.011551
   133  H   -0.013499
   134  H   -0.003108
   135  H   -0.008383
   136  H    0.016281
   137  H    0.011784
   138  H    0.003432
   139  H    0.019386
   140  H    0.008456
 Sum of Mulliken charges =  -0.00000

 Dipole moment (field-independent basis, Debye):
    X=             -0.3052    Y=              2.7789    Z=              0.1129  Tot=              2.7979
 Quadrupole moment (field-independent basis, Debye-Ang):
   XX=           -410.7416   YY=           -413.5449   ZZ=           -394.1094
   XY=            -46.2257   XZ=             -7.9295   YZ=            -30.8950

 Normal termination of Gaussian 16 at Thu May  5 10:23:37 2022.
