 Gaussian 16, Revision A.03,
 Gaussian 16:  ES64L-G16RevA.03 25-Dec-2016

 ---------------------------------
 #p PBE1PBE/Def2SVP td=(nstates=5)
 ---------------------------------

 -----------------------------------------------------
 step_851_chromophore_11 TDDFT with PBE1PBE functional
 -----------------------------------------------------
 Symbolic Z-matrix:
 Charge =  0 Multiplicity = 1

                         Standard orientation:
 ---------------------------------------------------------------------
 Center     Atomic      Atomic             Coordinates (Angstroms)
 Number     Number       Type             X           Y           Z
 ---------------------------------------------------------------------
      1         12           0       -4.855237    1.465406    0.707826
      2          6           0       -5.499023   -2.004140    0.642853
      3          6           0       -2.356170    0.834050    3.034539
      4          6           0       -3.614569    4.552800    0.099039
      5          6           0       -7.105173    1.892698   -1.989543
      6          7           0       -4.014147   -0.493633    1.728310
      7          6           0       -4.381904   -1.795978    1.504677
      8          6           0       -3.593180   -2.670662    2.481579
      9          6           0       -2.789763   -1.673696    3.419967
     10          6           0       -2.969264   -0.389379    2.662894
     11          6           0       -3.301833   -1.615923    4.867703
     12          6           0       -2.599543   -3.735873    1.832812
     13          6           0       -2.088872   -3.283945    0.433901
     14          6           0       -1.025385   -4.205902   -0.167490
     15          8           0       -0.928056   -5.407315   -0.021464
     16          8           0       -0.043727   -3.490222   -0.943118
     17          7           0       -3.168553    2.539023    1.368310
     18          6           0       -2.394052    2.150132    2.462277
     19          6           0       -1.558486    3.207742    2.834589
     20          6           0       -1.793466    4.252253    1.918533
     21          6           0       -2.885279    3.811815    1.055520
     22          6           0       -0.587765    3.133226    4.013213
     23          6           0       -1.069891    5.523059    1.880684
     24          8           0       -0.377908    5.937038    2.808930
     25          6           0       -1.178599    6.482275    0.740306
     26          7           0       -5.190850    2.978992   -0.837340
     27          6           0       -4.577358    4.148493   -0.829922
     28          6           0       -5.162489    5.146968   -1.786926
     29          6           0       -6.243207    4.355986   -2.550088
     30          6           0       -6.195898    2.957629   -1.781482
     31          6           0       -5.853469    6.342877   -1.033011
     32          6           0       -5.856377    4.132294   -4.035912
     33          6           0       -4.616730    3.208489   -4.288877
     34          7           0       -6.140195    0.239876   -0.322421
     35          6           0       -7.025799    0.605036   -1.317302
     36          6           0       -7.877490   -0.580302   -1.529619
     37          6           0       -7.323552   -1.588601   -0.740226
     38          6           0       -6.235822   -1.064879   -0.111589
     39          6           0       -8.994308   -0.644928   -2.539833
     40          6           0       -7.432539   -2.976190   -0.429188
     41          8           0       -8.301335   -3.805342   -0.692355
     42          6           0       -6.159656   -3.330812    0.391469
     43          6           0       -5.406205   -4.262979   -0.446850
     44          8           0       -4.901674   -3.964809   -1.520034
     45          8           0       -5.447224   -5.505367    0.119596
     46          6           0       -4.610285   -6.447073   -0.590345
     47          6           0        1.047284   -4.214100   -1.603067
     48          6           0        2.226484   -3.219686   -1.554738
     49          6           0        3.094469   -3.322008   -0.529326
     50          6           0        3.004758   -4.193858    0.787429
     51          6           0        4.170987   -2.235544   -0.385702
     52          6           0        5.258437   -1.999351   -1.431646
     53          6           0        6.476573   -1.291926   -0.836293
     54          6           0        6.639967    0.208206   -1.295882
     55          6           0        7.068690    0.279333   -2.819744
     56          6           0        7.577146    1.076553   -0.459174
     57          6           0        8.939098    0.475513   -0.425453
     58          6           0        9.584822    0.847400    0.906147
     59          6           0       11.055361    0.344225    1.027608
     60          6           0       11.366304    0.299820    2.529885
     61          6           0       12.062030    1.206971    0.174520
     62          6           0       12.773439    0.557099   -0.980421
     63          6           0       14.072911   -0.124674   -0.568579
     64          6           0       15.373648    0.288020   -1.330611
     65          6           0       16.541198   -0.717382   -1.067209
     66          6           0       15.986177    1.629775   -0.871030
     67          1           0       -1.562069    0.607595    3.748738
     68          1           0       -3.295088    5.560110   -0.172166
     69          1           0       -7.944974    2.053895   -2.668036
     70          1           0       -4.209647   -3.360418    3.058359
     71          1           0       -1.736213   -1.932411    3.528931
     72          1           0       -4.004228   -0.782816    4.896515
     73          1           0       -2.485697   -1.472428    5.575409
     74          1           0       -3.869585   -2.490192    5.186913
     75          1           0       -3.050825   -4.727229    1.798324
     76          1           0       -1.716516   -3.840578    2.462714
     77          1           0       -1.886190   -2.216452    0.354868
     78          1           0       -2.917581   -3.446262   -0.255404
     79          1           0        0.435712    2.893146    3.724672
     80          1           0       -0.951542    2.459601    4.788573
     81          1           0       -0.435732    4.097462    4.498261
     82          1           0       -1.091410    6.018314   -0.242297
     83          1           0       -0.344320    7.179888    0.812288
     84          1           0       -2.060564    7.113897    0.845665
     85          1           0       -4.403101    5.447857   -2.508395
     86          1           0       -7.242621    4.745456   -2.358799
     87          1           0       -6.796889    6.526613   -1.545299
     88          1           0       -5.222646    7.232118   -1.004091
     89          1           0       -6.065008    6.113544    0.011853
     90          1           0       -5.616182    5.099132   -4.476934
     91          1           0       -6.754422    3.789408   -4.549173
     92          1           0       -4.052594    3.119322   -3.361020
     93          1           0       -3.981156    3.659337   -5.050738
     94          1           0       -4.757559    2.215495   -4.715689
     95          1           0       -9.905635   -0.394037   -1.998764
     96          1           0       -9.138602   -1.701528   -2.770828
     97          1           0       -8.952811   -0.071359   -3.465828
     98          1           0       -6.316828   -3.820374    1.352665
     99          1           0       -3.730203   -6.093641   -1.127656
    100          1           0       -5.239838   -6.870143   -1.373440
    101          1           0       -4.497392   -7.315474    0.057500
    102          1           0        0.764241   -4.361660   -2.645064
    103          1           0        1.248147   -5.237708   -1.288535
    104          1           0        2.512408   -2.542306   -2.359079
    105          1           0        2.177841   -4.902819    0.825983
    106          1           0        2.903634   -3.483497    1.608173
    107          1           0        3.892945   -4.821526    0.867315
    108          1           0        4.598935   -2.318529    0.614372
    109          1           0        3.653405   -1.277040   -0.422256
    110          1           0        4.708011   -1.391208   -2.150547
    111          1           0        5.486026   -2.987136   -1.832119
    112          1           0        7.392387   -1.786379   -1.160906
    113          1           0        6.343331   -1.295704    0.245751
    114          1           0        5.640243    0.642652   -1.268463
    115          1           0        7.892144   -0.412471   -3.003389
    116          1           0        7.464887    1.272982   -3.028315
    117          1           0        6.249336   -0.009562   -3.478122
    118          1           0        7.139267    1.177823    0.534268
    119          1           0        7.603458    2.080332   -0.883355
    120          1           0        9.519426    1.000644   -1.183482
    121          1           0        9.088130   -0.551544   -0.760386
    122          1           0        9.001751    0.226117    1.586933
    123          1           0        9.794335    1.914685    0.975260
    124          1           0       11.053635   -0.696983    0.702673
    125          1           0       12.337196    0.739625    2.759044
    126          1           0       11.155185   -0.721964    2.848271
    127          1           0       10.713568    0.892071    3.170294
    128          1           0       12.766047    1.716164    0.834056
    129          1           0       11.445231    2.001750   -0.244589
    130          1           0       13.023385    1.314482   -1.723327
    131          1           0       12.271600   -0.306556   -1.415710
    132          1           0       14.062526   -1.203561   -0.726137
    133          1           0       14.165010    0.082670    0.497400
    134          1           0       15.159970    0.268926   -2.398895
    135          1           0       16.253543   -1.767517   -1.010065
    136          1           0       16.986701   -0.423947   -0.116208
    137          1           0       17.198916   -0.743843   -1.936122
    138          1           0       15.644820    2.328889   -1.635133
    139          1           0       17.066467    1.488314   -0.829819
    140          1           0       15.541998    1.986264    0.057779
 ---------------------------------------------------------------------

 SCF Done:  E(RPBE1PBE) =  -3005.36764894     A.U. after   15 cycles

 Excitation energies and oscillator strengths:

 Excited State   1:      Singlet-A      1.8987 eV  652.99 nm  f=0.3499  <S**2>=0.000
     245 -> 248       -0.19199
     246 -> 247        0.68747
 This state for optimization and/or second-order correction.
 Total Energy, E(TD-HF/TD-DFT) =  -3005.29787207
 Copying the excited state density for this state as the 1-particle RhoCI density.

 Excited State   2:      Singlet-A      2.2275 eV  556.61 nm  f=0.1218  <S**2>=0.000
     245 -> 247        0.65648
     246 -> 248        0.25358

 Excited State   3:      Singlet-A      2.7803 eV  445.94 nm  f=0.0005  <S**2>=0.000
     244 -> 247        0.67516
     244 -> 249        0.12908
     244 -> 250        0.10491

 Excited State   4:      Singlet-A      3.0126 eV  411.55 nm  f=0.0040  <S**2>=0.000
     240 -> 247       -0.39992
     240 -> 249        0.13716
     241 -> 247        0.43436
     242 -> 247       -0.32730

 Excited State   5:      Singlet-A      3.0454 eV  407.12 nm  f=0.0014  <S**2>=0.000
     241 -> 247        0.34804
     242 -> 247        0.59566

 The electronic state is 1-A.
 Alpha  occ. eigenvalues --  -46.93601 -19.26608 -19.23545 -19.20424 -19.20266
 Alpha  occ. eigenvalues --  -19.19403 -19.17964 -14.42218 -14.41816 -14.39562
 Alpha  occ. eigenvalues --  -14.39455 -10.36432 -10.36410 -10.32288 -10.31022
 Alpha  occ. eigenvalues --  -10.29835 -10.29535 -10.29095 -10.28593 -10.28534
 Alpha  occ. eigenvalues --  -10.28377 -10.28341 -10.28161 -10.27702 -10.27161
 Alpha  occ. eigenvalues --  -10.26690 -10.26645 -10.26411 -10.26222 -10.26202
 Alpha  occ. eigenvalues --  -10.25844 -10.25812 -10.25632 -10.25571 -10.25311
 Alpha  occ. eigenvalues --  -10.25268 -10.24930 -10.24822 -10.24718 -10.24432
 Alpha  occ. eigenvalues --  -10.24284 -10.24069 -10.24051 -10.23553 -10.23427
 Alpha  occ. eigenvalues --  -10.23211 -10.23147 -10.23095 -10.23037 -10.22861
 Alpha  occ. eigenvalues --  -10.22817 -10.22696 -10.22626 -10.22553 -10.22487
 Alpha  occ. eigenvalues --  -10.22307 -10.22234 -10.22170 -10.21932 -10.21748
 Alpha  occ. eigenvalues --  -10.21732 -10.21533 -10.21504 -10.21496 -10.21371
 Alpha  occ. eigenvalues --  -10.21323  -3.15551  -1.88371  -1.87925  -1.87764
 Alpha  occ. eigenvalues --   -1.12126  -1.08836  -1.04504  -1.03823  -1.03409
 Alpha  occ. eigenvalues --   -1.01185  -0.99903  -0.99242  -0.98317  -0.97323
 Alpha  occ. eigenvalues --   -0.88136  -0.84651  -0.83772  -0.83688  -0.83495
 Alpha  occ. eigenvalues --   -0.83319  -0.82681  -0.82258  -0.81291  -0.81154
 Alpha  occ. eigenvalues --   -0.80601  -0.79784  -0.78763  -0.78515  -0.77542
 Alpha  occ. eigenvalues --   -0.76915  -0.76446  -0.75418  -0.74992  -0.74572
 Alpha  occ. eigenvalues --   -0.73657  -0.72460  -0.71761  -0.71481  -0.70592
 Alpha  occ. eigenvalues --   -0.69984  -0.69341  -0.69072  -0.68517  -0.68087
 Alpha  occ. eigenvalues --   -0.68005  -0.67005  -0.66585  -0.64998  -0.64779
 Alpha  occ. eigenvalues --   -0.63752  -0.62634  -0.62343  -0.60714  -0.60302
 Alpha  occ. eigenvalues --   -0.60107  -0.60024  -0.59935  -0.59435  -0.57215
 Alpha  occ. eigenvalues --   -0.57196  -0.56766  -0.56410  -0.55411  -0.55060
 Alpha  occ. eigenvalues --   -0.54686  -0.54116  -0.53515  -0.53130  -0.52922
 Alpha  occ. eigenvalues --   -0.52563  -0.51675  -0.51108  -0.50855  -0.50328
 Alpha  occ. eigenvalues --   -0.50275  -0.50154  -0.49783  -0.49451  -0.48710
 Alpha  occ. eigenvalues --   -0.48217  -0.47770  -0.47679  -0.47522  -0.47181
 Alpha  occ. eigenvalues --   -0.47041  -0.46693  -0.46609  -0.46551  -0.46296
 Alpha  occ. eigenvalues --   -0.46156  -0.46007  -0.45844  -0.45606  -0.45253
 Alpha  occ. eigenvalues --   -0.44756  -0.44592  -0.44461  -0.44323  -0.43924
 Alpha  occ. eigenvalues --   -0.43732  -0.43637  -0.43489  -0.43371  -0.43212
 Alpha  occ. eigenvalues --   -0.43065  -0.42830  -0.42743  -0.42241  -0.42088
 Alpha  occ. eigenvalues --   -0.41920  -0.41804  -0.41739  -0.41468  -0.41373
 Alpha  occ. eigenvalues --   -0.41065  -0.40985  -0.40563  -0.40327  -0.40243
 Alpha  occ. eigenvalues --   -0.40132  -0.39944  -0.39861  -0.39741  -0.39467
 Alpha  occ. eigenvalues --   -0.39416  -0.39252  -0.39122  -0.38934  -0.38763
 Alpha  occ. eigenvalues --   -0.38721  -0.38403  -0.38208  -0.38113  -0.38000
 Alpha  occ. eigenvalues --   -0.37681  -0.37606  -0.37484  -0.37210  -0.37133
 Alpha  occ. eigenvalues --   -0.36840  -0.36509  -0.36344  -0.36213  -0.35989
 Alpha  occ. eigenvalues --   -0.35920  -0.35299  -0.35186  -0.35064  -0.34925
 Alpha  occ. eigenvalues --   -0.34835  -0.34372  -0.34301  -0.34114  -0.33632
 Alpha  occ. eigenvalues --   -0.33191  -0.32917  -0.32743  -0.32464  -0.32019
 Alpha  occ. eigenvalues --   -0.31973  -0.31921  -0.31465  -0.31397  -0.31092
 Alpha  occ. eigenvalues --   -0.30662  -0.29978  -0.29960  -0.29688  -0.29373
 Alpha  occ. eigenvalues --   -0.29249  -0.28899  -0.28696  -0.27268  -0.26206
 Alpha  occ. eigenvalues --   -0.25859  -0.25741  -0.25069  -0.24941  -0.21253
 Alpha  occ. eigenvalues --   -0.19544
 Alpha virt. eigenvalues --   -0.11667  -0.05692  -0.04153  -0.02326  -0.02029
 Alpha virt. eigenvalues --   -0.00055   0.00530   0.00961   0.01455   0.02817
 Alpha virt. eigenvalues --    0.04001   0.04384   0.04908   0.05836   0.05932

 Mulliken charges:
               1
     1  Mg   0.965813
     2  C   -0.050897
     3  C   -0.055938
     4  C   -0.065913
     5  C   -0.050324
     6  N   -0.370355
     7  C    0.060329
     8  C   -0.070601
     9  C   -0.112063
    10  C    0.035606
    11  C    0.011509
    12  C   -0.036894
    13  C   -0.056619
    14  C    0.265226
    15  O   -0.263523
    16  O   -0.406533
    17  N   -0.485216
    18  C    0.166880
    19  C   -0.145145
    20  C   -0.053350
    21  C    0.204876
    22  C    0.069058
    23  C    0.002821
    24  O   -0.252884
    25  C   -0.025002
    26  N   -0.356973
    27  C    0.020575
    28  C   -0.106388
    29  C   -0.110591
    30  C    0.048520
    31  C    0.008868
    32  C   -0.014235
    33  C   -0.082781
    34  N   -0.481776
    35  C    0.133718
    36  C   -0.205193
    37  C    0.004465
    38  C    0.193301
    39  C    0.063450
    40  C    0.115403
    41  O   -0.219937
    42  C   -0.102009
    43  C    0.281031
    44  O   -0.263837
    45  O   -0.342733
    46  C    0.127622
    47  C    0.235285
    48  C   -0.116666
    49  C   -0.161657
    50  C   -0.009379
    51  C   -0.061826
    52  C   -0.020974
    53  C    0.016907
    54  C   -0.235293
    55  C   -0.028089
    56  C    0.045175
    57  C   -0.065478
    58  C   -0.034012
    59  C   -0.210221
    60  C    0.007690
    61  C   -0.005957
    62  C    0.003665
    63  C   -0.024266
    64  C   -0.271009
    65  C   -0.041289
    66  C   -0.003886
    67  H    0.015322
    68  H   -0.008530
    69  H    0.013767
    70  H    0.043459
    71  H    0.046904
    72  H    0.046370
    73  H    0.049095
    74  H    0.045093
    75  H    0.057161
    76  H    0.046425
    77  H    0.074349
    78  H    0.092279
    79  H    0.054332
    80  H    0.039487
    81  H    0.057958
    82  H    0.054150
    83  H    0.047263
    84  H    0.070125
    85  H    0.051134
    86  H    0.046030
    87  H    0.046335
    88  H    0.048942
    89  H    0.051691
    90  H    0.042282
    91  H    0.039674
    92  H    0.059496
    93  H    0.036350
    94  H    0.055183
    95  H    0.051335
    96  H    0.057453
    97  H    0.054648
    98  H    0.061978
    99  H    0.078920
   100  H    0.042838
   101  H    0.054346
   102  H    0.028919
   103  H    0.058208
   104  H    0.031403
   105  H    0.045539
   106  H    0.062556
   107  H    0.054310
   108  H    0.016304
   109  H    0.047160
   110  H    0.035760
   111  H    0.031398
   112  H    0.030482
   113  H    0.028184
   114  H    0.019670
   115  H    0.027693
   116  H    0.034476
   117  H    0.042061
   118  H    0.024854
   119  H    0.029658
   120  H    0.010492
   121  H    0.029308
   122  H    0.036837
   123  H    0.040556
   124  H    0.019577
   125  H    0.027278
   126  H    0.037126
   127  H    0.022373
   128  H    0.024220
   129  H    0.014825
   130  H    0.025976
   131  H    0.034698
   132  H    0.020778
   133  H    0.020064
   134  H    0.034014
   135  H    0.019629
   136  H    0.044493
   137  H    0.040737
   138  H    0.031518
   139  H    0.047056
   140  H    0.036083
 Sum of Mulliken charges =  -0.00000

 Dipole moment (field-independent basis, Debye):
    X=             -0.3924    Y=              2.8513    Z=              0.0209  Tot=              2.8783
 Quadrupole moment (field-independent basis, Debye-Ang):
   XX=           -406.2619   YY=           -410.2164   ZZ=           -390.3483
   XY=            -46.9172   XZ=             -6.7215   YZ=            -31.9454

 Normal termination of Gaussian 16 at Thu May  5 10:43:32 2022.
