 Gaussian 16, Revision A.03,
 Gaussian 16:  ES64L-G16RevA.03 25-Dec-2016

 --------------------------------
 #p wB97XD/Def2SVP td=(nstates=5)
 --------------------------------

 ----------------------------------------------------
 step_851_chromophore_11 TDDFT with wB97XD functional
 ----------------------------------------------------
 Symbolic Z-matrix:
 Charge =  0 Multiplicity = 1

                         Standard orientation:
 ---------------------------------------------------------------------
 Center     Atomic      Atomic             Coordinates (Angstroms)
 Number     Number       Type             X           Y           Z
 ---------------------------------------------------------------------
      1         12           0       -4.855237    1.465406    0.707826
      2          6           0       -5.499023   -2.004140    0.642853
      3          6           0       -2.356170    0.834050    3.034539
      4          6           0       -3.614569    4.552800    0.099039
      5          6           0       -7.105173    1.892698   -1.989543
      6          7           0       -4.014147   -0.493633    1.728310
      7          6           0       -4.381904   -1.795978    1.504677
      8          6           0       -3.593180   -2.670662    2.481579
      9          6           0       -2.789763   -1.673696    3.419967
     10          6           0       -2.969264   -0.389379    2.662894
     11          6           0       -3.301833   -1.615923    4.867703
     12          6           0       -2.599543   -3.735873    1.832812
     13          6           0       -2.088872   -3.283945    0.433901
     14          6           0       -1.025385   -4.205902   -0.167490
     15          8           0       -0.928056   -5.407315   -0.021464
     16          8           0       -0.043727   -3.490222   -0.943118
     17          7           0       -3.168553    2.539023    1.368310
     18          6           0       -2.394052    2.150132    2.462277
     19          6           0       -1.558486    3.207742    2.834589
     20          6           0       -1.793466    4.252253    1.918533
     21          6           0       -2.885279    3.811815    1.055520
     22          6           0       -0.587765    3.133226    4.013213
     23          6           0       -1.069891    5.523059    1.880684
     24          8           0       -0.377908    5.937038    2.808930
     25          6           0       -1.178599    6.482275    0.740306
     26          7           0       -5.190850    2.978992   -0.837340
     27          6           0       -4.577358    4.148493   -0.829922
     28          6           0       -5.162489    5.146968   -1.786926
     29          6           0       -6.243207    4.355986   -2.550088
     30          6           0       -6.195898    2.957629   -1.781482
     31          6           0       -5.853469    6.342877   -1.033011
     32          6           0       -5.856377    4.132294   -4.035912
     33          6           0       -4.616730    3.208489   -4.288877
     34          7           0       -6.140195    0.239876   -0.322421
     35          6           0       -7.025799    0.605036   -1.317302
     36          6           0       -7.877490   -0.580302   -1.529619
     37          6           0       -7.323552   -1.588601   -0.740226
     38          6           0       -6.235822   -1.064879   -0.111589
     39          6           0       -8.994308   -0.644928   -2.539833
     40          6           0       -7.432539   -2.976190   -0.429188
     41          8           0       -8.301335   -3.805342   -0.692355
     42          6           0       -6.159656   -3.330812    0.391469
     43          6           0       -5.406205   -4.262979   -0.446850
     44          8           0       -4.901674   -3.964809   -1.520034
     45          8           0       -5.447224   -5.505367    0.119596
     46          6           0       -4.610285   -6.447073   -0.590345
     47          6           0        1.047284   -4.214100   -1.603067
     48          6           0        2.226484   -3.219686   -1.554738
     49          6           0        3.094469   -3.322008   -0.529326
     50          6           0        3.004758   -4.193858    0.787429
     51          6           0        4.170987   -2.235544   -0.385702
     52          6           0        5.258437   -1.999351   -1.431646
     53          6           0        6.476573   -1.291926   -0.836293
     54          6           0        6.639967    0.208206   -1.295882
     55          6           0        7.068690    0.279333   -2.819744
     56          6           0        7.577146    1.076553   -0.459174
     57          6           0        8.939098    0.475513   -0.425453
     58          6           0        9.584822    0.847400    0.906147
     59          6           0       11.055361    0.344225    1.027608
     60          6           0       11.366304    0.299820    2.529885
     61          6           0       12.062030    1.206971    0.174520
     62          6           0       12.773439    0.557099   -0.980421
     63          6           0       14.072911   -0.124674   -0.568579
     64          6           0       15.373648    0.288020   -1.330611
     65          6           0       16.541198   -0.717382   -1.067209
     66          6           0       15.986177    1.629775   -0.871030
     67          1           0       -1.562069    0.607595    3.748738
     68          1           0       -3.295088    5.560110   -0.172166
     69          1           0       -7.944974    2.053895   -2.668036
     70          1           0       -4.209647   -3.360418    3.058359
     71          1           0       -1.736213   -1.932411    3.528931
     72          1           0       -4.004228   -0.782816    4.896515
     73          1           0       -2.485697   -1.472428    5.575409
     74          1           0       -3.869585   -2.490192    5.186913
     75          1           0       -3.050825   -4.727229    1.798324
     76          1           0       -1.716516   -3.840578    2.462714
     77          1           0       -1.886190   -2.216452    0.354868
     78          1           0       -2.917581   -3.446262   -0.255404
     79          1           0        0.435712    2.893146    3.724672
     80          1           0       -0.951542    2.459601    4.788573
     81          1           0       -0.435732    4.097462    4.498261
     82          1           0       -1.091410    6.018314   -0.242297
     83          1           0       -0.344320    7.179888    0.812288
     84          1           0       -2.060564    7.113897    0.845665
     85          1           0       -4.403101    5.447857   -2.508395
     86          1           0       -7.242621    4.745456   -2.358799
     87          1           0       -6.796889    6.526613   -1.545299
     88          1           0       -5.222646    7.232118   -1.004091
     89          1           0       -6.065008    6.113544    0.011853
     90          1           0       -5.616182    5.099132   -4.476934
     91          1           0       -6.754422    3.789408   -4.549173
     92          1           0       -4.052594    3.119322   -3.361020
     93          1           0       -3.981156    3.659337   -5.050738
     94          1           0       -4.757559    2.215495   -4.715689
     95          1           0       -9.905635   -0.394037   -1.998764
     96          1           0       -9.138602   -1.701528   -2.770828
     97          1           0       -8.952811   -0.071359   -3.465828
     98          1           0       -6.316828   -3.820374    1.352665
     99          1           0       -3.730203   -6.093641   -1.127656
    100          1           0       -5.239838   -6.870143   -1.373440
    101          1           0       -4.497392   -7.315474    0.057500
    102          1           0        0.764241   -4.361660   -2.645064
    103          1           0        1.248147   -5.237708   -1.288535
    104          1           0        2.512408   -2.542306   -2.359079
    105          1           0        2.177841   -4.902819    0.825983
    106          1           0        2.903634   -3.483497    1.608173
    107          1           0        3.892945   -4.821526    0.867315
    108          1           0        4.598935   -2.318529    0.614372
    109          1           0        3.653405   -1.277040   -0.422256
    110          1           0        4.708011   -1.391208   -2.150547
    111          1           0        5.486026   -2.987136   -1.832119
    112          1           0        7.392387   -1.786379   -1.160906
    113          1           0        6.343331   -1.295704    0.245751
    114          1           0        5.640243    0.642652   -1.268463
    115          1           0        7.892144   -0.412471   -3.003389
    116          1           0        7.464887    1.272982   -3.028315
    117          1           0        6.249336   -0.009562   -3.478122
    118          1           0        7.139267    1.177823    0.534268
    119          1           0        7.603458    2.080332   -0.883355
    120          1           0        9.519426    1.000644   -1.183482
    121          1           0        9.088130   -0.551544   -0.760386
    122          1           0        9.001751    0.226117    1.586933
    123          1           0        9.794335    1.914685    0.975260
    124          1           0       11.053635   -0.696983    0.702673
    125          1           0       12.337196    0.739625    2.759044
    126          1           0       11.155185   -0.721964    2.848271
    127          1           0       10.713568    0.892071    3.170294
    128          1           0       12.766047    1.716164    0.834056
    129          1           0       11.445231    2.001750   -0.244589
    130          1           0       13.023385    1.314482   -1.723327
    131          1           0       12.271600   -0.306556   -1.415710
    132          1           0       14.062526   -1.203561   -0.726137
    133          1           0       14.165010    0.082670    0.497400
    134          1           0       15.159970    0.268926   -2.398895
    135          1           0       16.253543   -1.767517   -1.010065
    136          1           0       16.986701   -0.423947   -0.116208
    137          1           0       17.198916   -0.743843   -1.936122
    138          1           0       15.644820    2.328889   -1.635133
    139          1           0       17.066467    1.488314   -0.829819
    140          1           0       15.541998    1.986264    0.057779
 ---------------------------------------------------------------------

 SCF Done:  E(RwB97XD) =  -3007.87921762     A.U. after   18 cycles

 Excitation energies and oscillator strengths:

 Excited State   1:      Singlet-A      1.6807 eV  737.68 nm  f=0.3582  <S**2>=0.000
     245 -> 248       -0.20265
     246 -> 247        0.67943
     245 <- 248       -0.12165
 This state for optimization and/or second-order correction.
 Total Energy, E(TD-HF/TD-DFT) =  -3007.81745220
 Copying the excited state density for this state as the 1-particle RhoCI density.

 Excited State   2:      Singlet-A      2.1643 eV  572.85 nm  f=0.1267  <S**2>=0.000
     245 -> 247        0.64559
     246 -> 248        0.27722

 Excited State   3:      Singlet-A      3.3760 eV  367.25 nm  f=0.0054  <S**2>=0.000
     242 -> 247       -0.27226
     243 -> 247        0.57629
     243 -> 249        0.17447
     243 -> 251       -0.13362

 Excited State   4:      Singlet-A      3.4281 eV  361.67 nm  f=0.0012  <S**2>=0.000
     241 -> 247        0.25539
     241 -> 249        0.13449
     242 -> 247        0.52656
     242 -> 249        0.10665
     243 -> 247        0.13429
     243 -> 249        0.16544
     243 -> 251       -0.19340

 Excited State   5:      Singlet-A      3.5031 eV  353.93 nm  f=0.0067  <S**2>=0.000
     239 -> 247       -0.12318
     240 -> 249        0.12065
     241 -> 247        0.57134
     242 -> 247       -0.27727
     246 -> 248        0.14118

 The electronic state is 1-A.
 Alpha  occ. eigenvalues --  -46.96564 -19.31225 -19.28099 -19.25192 -19.24977
 Alpha  occ. eigenvalues --  -19.24228 -19.22762 -14.47472 -14.46777 -14.44525
 Alpha  occ. eigenvalues --  -14.44388 -10.43329 -10.43250 -10.39165 -10.37860
 Alpha  occ. eigenvalues --  -10.36111 -10.35767 -10.35442 -10.34972 -10.34889
 Alpha  occ. eigenvalues --  -10.34825 -10.34796 -10.34694 -10.34098 -10.33421
 Alpha  occ. eigenvalues --  -10.33155 -10.32940 -10.32694 -10.32522 -10.32400
 Alpha  occ. eigenvalues --  -10.32221 -10.32154 -10.32079 -10.32056 -10.31779
 Alpha  occ. eigenvalues --  -10.31642 -10.31396 -10.31100 -10.31029 -10.30793
 Alpha  occ. eigenvalues --  -10.30559 -10.30485 -10.30428 -10.29931 -10.29870
 Alpha  occ. eigenvalues --  -10.29586 -10.29528 -10.29482 -10.29365 -10.29211
 Alpha  occ. eigenvalues --  -10.29118 -10.29096 -10.29010 -10.28995 -10.28865
 Alpha  occ. eigenvalues --  -10.28675 -10.28600 -10.28543 -10.28315 -10.28186
 Alpha  occ. eigenvalues --  -10.28119 -10.27946 -10.27916 -10.27873 -10.27775
 Alpha  occ. eigenvalues --  -10.27752  -3.22407  -1.95970  -1.95521  -1.95361
 Alpha  occ. eigenvalues --   -1.19576  -1.16245  -1.12005  -1.11305  -1.10844
 Alpha  occ. eigenvalues --   -1.08555  -1.07235  -1.06589  -1.05733  -1.04799
 Alpha  occ. eigenvalues --   -0.95786  -0.92325  -0.91357  -0.91331  -0.91133
 Alpha  occ. eigenvalues --   -0.90955  -0.90345  -0.89888  -0.88956  -0.88755
 Alpha  occ. eigenvalues --   -0.88247  -0.87463  -0.86419  -0.86158  -0.85211
 Alpha  occ. eigenvalues --   -0.84570  -0.84089  -0.83042  -0.82695  -0.82239
 Alpha  occ. eigenvalues --   -0.81323  -0.80122  -0.79440  -0.79098  -0.78242
 Alpha  occ. eigenvalues --   -0.77583  -0.77025  -0.76754  -0.76216  -0.75766
 Alpha  occ. eigenvalues --   -0.75547  -0.74611  -0.74167  -0.72619  -0.72329
 Alpha  occ. eigenvalues --   -0.71298  -0.70292  -0.69880  -0.68352  -0.67863
 Alpha  occ. eigenvalues --   -0.67682  -0.67523  -0.67411  -0.66915  -0.64870
 Alpha  occ. eigenvalues --   -0.64659  -0.64248  -0.64085  -0.63029  -0.62511
 Alpha  occ. eigenvalues --   -0.62087  -0.61547  -0.61026  -0.60599  -0.60428
 Alpha  occ. eigenvalues --   -0.60022  -0.59161  -0.58490  -0.58277  -0.57845
 Alpha  occ. eigenvalues --   -0.57702  -0.57605  -0.57220  -0.56933  -0.56112
 Alpha  occ. eigenvalues --   -0.55630  -0.55182  -0.55029  -0.54934  -0.54549
 Alpha  occ. eigenvalues --   -0.54389  -0.54108  -0.54075  -0.53941  -0.53721
 Alpha  occ. eigenvalues --   -0.53570  -0.53399  -0.53205  -0.52907  -0.52602
 Alpha  occ. eigenvalues --   -0.52128  -0.51957  -0.51795  -0.51667  -0.51241
 Alpha  occ. eigenvalues --   -0.51037  -0.50936  -0.50772  -0.50687  -0.50483
 Alpha  occ. eigenvalues --   -0.50402  -0.50105  -0.50052  -0.49453  -0.49351
 Alpha  occ. eigenvalues --   -0.49168  -0.49097  -0.48979  -0.48721  -0.48582
 Alpha  occ. eigenvalues --   -0.48201  -0.48197  -0.47814  -0.47537  -0.47476
 Alpha  occ. eigenvalues --   -0.47388  -0.47188  -0.47090  -0.46914  -0.46697
 Alpha  occ. eigenvalues --   -0.46631  -0.46421  -0.46359  -0.46077  -0.45938
 Alpha  occ. eigenvalues --   -0.45781  -0.45520  -0.45298  -0.45263  -0.45172
 Alpha  occ. eigenvalues --   -0.44838  -0.44740  -0.44655  -0.44337  -0.44244
 Alpha  occ. eigenvalues --   -0.43945  -0.43618  -0.43402  -0.43351  -0.43140
 Alpha  occ. eigenvalues --   -0.42999  -0.42366  -0.42289  -0.42037  -0.42009
 Alpha  occ. eigenvalues --   -0.41935  -0.41416  -0.41351  -0.41100  -0.40638
 Alpha  occ. eigenvalues --   -0.40250  -0.39857  -0.39778  -0.39486  -0.39101
 Alpha  occ. eigenvalues --   -0.38954  -0.38879  -0.38563  -0.38430  -0.38029
 Alpha  occ. eigenvalues --   -0.37646  -0.36969  -0.36928  -0.36676  -0.36425
 Alpha  occ. eigenvalues --   -0.36016  -0.35896  -0.35584  -0.33891  -0.33200
 Alpha  occ. eigenvalues --   -0.32489  -0.32406  -0.32088  -0.31818  -0.26173
 Alpha  occ. eigenvalues --   -0.23769
 Alpha virt. eigenvalues --   -0.07580  -0.00339   0.02138   0.03868   0.04287
 Alpha virt. eigenvalues --    0.06658   0.07251   0.07724   0.08314   0.09447
 Alpha virt. eigenvalues --    0.10393   0.11133   0.11628   0.12513   0.12647

 Mulliken charges:
               1
     1  Mg   0.959155
     2  C   -0.046334
     3  C   -0.068092
     4  C   -0.080101
     5  C   -0.070884
     6  N   -0.337060
     7  C    0.015863
     8  C   -0.045229
     9  C   -0.085773
    10  C    0.018321
    11  C    0.020161
    12  C   -0.029649
    13  C   -0.026077
    14  C    0.252738
    15  O   -0.259077
    16  O   -0.405563
    17  N   -0.452993
    18  C    0.160287
    19  C   -0.138514
    20  C   -0.045035
    21  C    0.200668
    22  C    0.079031
    23  C   -0.002281
    24  O   -0.248510
    25  C   -0.011986
    26  N   -0.327155
    27  C    0.005636
    28  C   -0.084767
    29  C   -0.078344
    30  C    0.033900
    31  C    0.020111
    32  C   -0.003764
    33  C   -0.062372
    34  N   -0.442052
    35  C    0.124646
    36  C   -0.203025
    37  C    0.011582
    38  C    0.175962
    39  C    0.072119
    40  C    0.098037
    41  O   -0.209544
    42  C   -0.062196
    43  C    0.254401
    44  O   -0.257511
    45  O   -0.340036
    46  C    0.141691
    47  C    0.244927
    48  C   -0.119246
    49  C   -0.158956
    50  C    0.009069
    51  C   -0.039058
    52  C   -0.004415
    53  C    0.030468
    54  C   -0.198400
    55  C   -0.018498
    56  C    0.057398
    57  C   -0.050358
    58  C   -0.004715
    59  C   -0.187531
    60  C    0.018887
    61  C    0.013779
    62  C    0.017620
    63  C   -0.008665
    64  C   -0.243611
    65  C   -0.024662
    66  C    0.008008
    67  H    0.009613
    68  H   -0.022619
    69  H    0.009640
    70  H    0.033548
    71  H    0.037575
    72  H    0.038757
    73  H    0.044605
    74  H    0.040114
    75  H    0.050148
    76  H    0.038050
    77  H    0.067378
    78  H    0.073321
    79  H    0.051022
    80  H    0.034404
    81  H    0.054669
    82  H    0.049192
    83  H    0.045460
    84  H    0.065913
    85  H    0.041479
    86  H    0.036890
    87  H    0.039951
    88  H    0.043687
    89  H    0.045250
    90  H    0.033685
    91  H    0.032755
    92  H    0.046543
    93  H    0.031193
    94  H    0.050379
    95  H    0.045501
    96  H    0.052711
    97  H    0.050682
    98  H    0.056748
    99  H    0.074718
   100  H    0.038665
   101  H    0.051786
   102  H    0.025058
   103  H    0.053866
   104  H    0.029445
   105  H    0.039653
   106  H    0.056303
   107  H    0.048466
   108  H    0.005992
   109  H    0.036724
   110  H    0.024060
   111  H    0.023757
   112  H    0.021033
   113  H    0.017345
   114  H    0.007626
   115  H    0.020220
   116  H    0.028075
   117  H    0.036745
   118  H    0.015825
   119  H    0.022086
   120  H   -0.002233
   121  H    0.018452
   122  H    0.025077
   123  H    0.029187
   124  H    0.006812
   125  H    0.021410
   126  H    0.031904
   127  H    0.015916
   128  H    0.013257
   129  H    0.004770
   130  H    0.018448
   131  H    0.026686
   132  H    0.011785
   133  H    0.006161
   134  H    0.024087
   135  H    0.013399
   136  H    0.036379
   137  H    0.034662
   138  H    0.025466
   139  H    0.040578
   140  H    0.029678
 Sum of Mulliken charges =  -0.00000

 Dipole moment (field-independent basis, Debye):
    X=             -0.2777    Y=              2.8385    Z=              0.1724  Tot=              2.8573
 Quadrupole moment (field-independent basis, Debye-Ang):
   XX=           -407.0453   YY=           -409.5360   ZZ=           -390.0362
   XY=            -46.3995   XZ=             -7.5472   YZ=            -31.4468

 Normal termination of Gaussian 16 at Thu May  5 11:13:14 2022.
