 Gaussian 16, Revision A.03,
 Gaussian 16:  ES64L-G16RevA.03 25-Dec-2016

 --------------------
 #p ZINDO=(nstates=5)
 --------------------

 -----------------------------
 step_851_chromophore_11 ZINDO
 -----------------------------
 Symbolic Z-matrix:
 Charge =  0 Multiplicity = 1

                         Standard orientation:
 ---------------------------------------------------------------------
 Center     Atomic      Atomic             Coordinates (Angstroms)
 Number     Number       Type             X           Y           Z
 ---------------------------------------------------------------------
      1         12           0       -4.855237    1.465406    0.707826
      2          6           0       -5.499023   -2.004140    0.642853
      3          6           0       -2.356170    0.834050    3.034539
      4          6           0       -3.614569    4.552800    0.099039
      5          6           0       -7.105173    1.892698   -1.989543
      6          7           0       -4.014147   -0.493633    1.728310
      7          6           0       -4.381904   -1.795978    1.504677
      8          6           0       -3.593180   -2.670662    2.481579
      9          6           0       -2.789763   -1.673696    3.419967
     10          6           0       -2.969264   -0.389379    2.662894
     11          6           0       -3.301833   -1.615923    4.867703
     12          6           0       -2.599543   -3.735873    1.832812
     13          6           0       -2.088872   -3.283945    0.433901
     14          6           0       -1.025385   -4.205902   -0.167490
     15          8           0       -0.928056   -5.407315   -0.021464
     16          8           0       -0.043727   -3.490222   -0.943118
     17          7           0       -3.168553    2.539023    1.368310
     18          6           0       -2.394052    2.150132    2.462277
     19          6           0       -1.558486    3.207742    2.834589
     20          6           0       -1.793466    4.252253    1.918533
     21          6           0       -2.885279    3.811815    1.055520
     22          6           0       -0.587765    3.133226    4.013213
     23          6           0       -1.069891    5.523059    1.880684
     24          8           0       -0.377908    5.937038    2.808930
     25          6           0       -1.178599    6.482275    0.740306
     26          7           0       -5.190850    2.978992   -0.837340
     27          6           0       -4.577358    4.148493   -0.829922
     28          6           0       -5.162489    5.146968   -1.786926
     29          6           0       -6.243207    4.355986   -2.550088
     30          6           0       -6.195898    2.957629   -1.781482
     31          6           0       -5.853469    6.342877   -1.033011
     32          6           0       -5.856377    4.132294   -4.035912
     33          6           0       -4.616730    3.208489   -4.288877
     34          7           0       -6.140195    0.239876   -0.322421
     35          6           0       -7.025799    0.605036   -1.317302
     36          6           0       -7.877490   -0.580302   -1.529619
     37          6           0       -7.323552   -1.588601   -0.740226
     38          6           0       -6.235822   -1.064879   -0.111589
     39          6           0       -8.994308   -0.644928   -2.539833
     40          6           0       -7.432539   -2.976190   -0.429188
     41          8           0       -8.301335   -3.805342   -0.692355
     42          6           0       -6.159656   -3.330812    0.391469
     43          6           0       -5.406205   -4.262979   -0.446850
     44          8           0       -4.901674   -3.964809   -1.520034
     45          8           0       -5.447224   -5.505367    0.119596
     46          6           0       -4.610285   -6.447073   -0.590345
     47          6           0        1.047284   -4.214100   -1.603067
     48          6           0        2.226484   -3.219686   -1.554738
     49          6           0        3.094469   -3.322008   -0.529326
     50          6           0        3.004758   -4.193858    0.787429
     51          6           0        4.170987   -2.235544   -0.385702
     52          6           0        5.258437   -1.999351   -1.431646
     53          6           0        6.476573   -1.291926   -0.836293
     54          6           0        6.639967    0.208206   -1.295882
     55          6           0        7.068690    0.279333   -2.819744
     56          6           0        7.577146    1.076553   -0.459174
     57          6           0        8.939098    0.475513   -0.425453
     58          6           0        9.584822    0.847400    0.906147
     59          6           0       11.055361    0.344225    1.027608
     60          6           0       11.366304    0.299820    2.529885
     61          6           0       12.062030    1.206971    0.174520
     62          6           0       12.773439    0.557099   -0.980421
     63          6           0       14.072911   -0.124674   -0.568579
     64          6           0       15.373648    0.288020   -1.330611
     65          6           0       16.541198   -0.717382   -1.067209
     66          6           0       15.986177    1.629775   -0.871030
     67          1           0       -1.562069    0.607595    3.748738
     68          1           0       -3.295088    5.560110   -0.172166
     69          1           0       -7.944974    2.053895   -2.668036
     70          1           0       -4.209647   -3.360418    3.058359
     71          1           0       -1.736213   -1.932411    3.528931
     72          1           0       -4.004228   -0.782816    4.896515
     73          1           0       -2.485697   -1.472428    5.575409
     74          1           0       -3.869585   -2.490192    5.186913
     75          1           0       -3.050825   -4.727229    1.798324
     76          1           0       -1.716516   -3.840578    2.462714
     77          1           0       -1.886190   -2.216452    0.354868
     78          1           0       -2.917581   -3.446262   -0.255404
     79          1           0        0.435712    2.893146    3.724672
     80          1           0       -0.951542    2.459601    4.788573
     81          1           0       -0.435732    4.097462    4.498261
     82          1           0       -1.091410    6.018314   -0.242297
     83          1           0       -0.344320    7.179888    0.812288
     84          1           0       -2.060564    7.113897    0.845665
     85          1           0       -4.403101    5.447857   -2.508395
     86          1           0       -7.242621    4.745456   -2.358799
     87          1           0       -6.796889    6.526613   -1.545299
     88          1           0       -5.222646    7.232118   -1.004091
     89          1           0       -6.065008    6.113544    0.011853
     90          1           0       -5.616182    5.099132   -4.476934
     91          1           0       -6.754422    3.789408   -4.549173
     92          1           0       -4.052594    3.119322   -3.361020
     93          1           0       -3.981156    3.659337   -5.050738
     94          1           0       -4.757559    2.215495   -4.715689
     95          1           0       -9.905635   -0.394037   -1.998764
     96          1           0       -9.138602   -1.701528   -2.770828
     97          1           0       -8.952811   -0.071359   -3.465828
     98          1           0       -6.316828   -3.820374    1.352665
     99          1           0       -3.730203   -6.093641   -1.127656
    100          1           0       -5.239838   -6.870143   -1.373440
    101          1           0       -4.497392   -7.315474    0.057500
    102          1           0        0.764241   -4.361660   -2.645064
    103          1           0        1.248147   -5.237708   -1.288535
    104          1           0        2.512408   -2.542306   -2.359079
    105          1           0        2.177841   -4.902819    0.825983
    106          1           0        2.903634   -3.483497    1.608173
    107          1           0        3.892945   -4.821526    0.867315
    108          1           0        4.598935   -2.318529    0.614372
    109          1           0        3.653405   -1.277040   -0.422256
    110          1           0        4.708011   -1.391208   -2.150547
    111          1           0        5.486026   -2.987136   -1.832119
    112          1           0        7.392387   -1.786379   -1.160906
    113          1           0        6.343331   -1.295704    0.245751
    114          1           0        5.640243    0.642652   -1.268463
    115          1           0        7.892144   -0.412471   -3.003389
    116          1           0        7.464887    1.272982   -3.028315
    117          1           0        6.249336   -0.009562   -3.478122
    118          1           0        7.139267    1.177823    0.534268
    119          1           0        7.603458    2.080332   -0.883355
    120          1           0        9.519426    1.000644   -1.183482
    121          1           0        9.088130   -0.551544   -0.760386
    122          1           0        9.001751    0.226117    1.586933
    123          1           0        9.794335    1.914685    0.975260
    124          1           0       11.053635   -0.696983    0.702673
    125          1           0       12.337196    0.739625    2.759044
    126          1           0       11.155185   -0.721964    2.848271
    127          1           0       10.713568    0.892071    3.170294
    128          1           0       12.766047    1.716164    0.834056
    129          1           0       11.445231    2.001750   -0.244589
    130          1           0       13.023385    1.314482   -1.723327
    131          1           0       12.271600   -0.306556   -1.415710
    132          1           0       14.062526   -1.203561   -0.726137
    133          1           0       14.165010    0.082670    0.497400
    134          1           0       15.159970    0.268926   -2.398895
    135          1           0       16.253543   -1.767517   -1.010065
    136          1           0       16.986701   -0.423947   -0.116208
    137          1           0       17.198916   -0.743843   -1.936122
    138          1           0       15.644820    2.328889   -1.635133
    139          1           0       17.066467    1.488314   -0.829819
    140          1           0       15.541998    1.986264    0.057779
 ---------------------------------------------------------------------

 SCF Done:  E(RZINDO/S) =  -474.385563276     A.U. after   20 cycles

 Excitation energies and oscillator strengths:

 Excited State   1:      Singlet-A      1.2461 eV  995.00 nm  f=0.5955  <S**2>=0.000
     175 ->178        -0.20274
     176 ->177         0.66055
 This state for optimization and/or second-order correction.
 Total Energy, E(CIS/TDA) =  -474.339770861
 Copying the excited state density for this state as the 1-particle RhoCI density.

 Excited State   2:      Singlet-A      1.8952 eV  654.21 nm  f=0.0714  <S**2>=0.000
     175 ->177         0.56510
     176 ->178         0.40179

 Excited State   3:      Singlet-A      2.8502 eV  435.00 nm  f=0.0020  <S**2>=0.000
     170 ->177         0.32318
     170 ->179         0.30053
     170 ->181        -0.37459
     170 ->184         0.14020
     170 ->185         0.21074
     170 ->187        -0.15803
     170 ->196        -0.12202

 Excited State   4:      Singlet-A      2.9627 eV  418.49 nm  f=0.0324  <S**2>=0.000
     168 ->177         0.28660
     168 ->178        -0.10530
     168 ->179        -0.35520
     168 ->181        -0.21058
     168 ->185        -0.17260
     168 ->187        -0.10417
     168 ->199         0.11557
     169 ->177         0.17664
     169 ->179        -0.20568
     169 ->181        -0.12383

 Excited State   5:      Singlet-A      3.0240 eV  410.00 nm  f=0.0615  <S**2>=0.000
     176 ->178         0.13385
     176 ->179         0.21955
     176 ->180         0.63309

 The electronic state is 1-A.
 Alpha  occ. eigenvalues --   -1.86527  -1.83277  -1.79909  -1.74720  -1.73003
 Alpha  occ. eigenvalues --   -1.68339  -1.67250  -1.61497  -1.60362  -1.60110
 Alpha  occ. eigenvalues --   -1.56093  -1.51552  -1.49171  -1.47774  -1.46229
 Alpha  occ. eigenvalues --   -1.44329  -1.41574  -1.40561  -1.39031  -1.38432
 Alpha  occ. eigenvalues --   -1.36096  -1.34250  -1.33474  -1.30191  -1.28565
 Alpha  occ. eigenvalues --   -1.26888  -1.26483  -1.22711  -1.20010  -1.18622
 Alpha  occ. eigenvalues --   -1.17847  -1.15415  -1.14581  -1.12820  -1.12748
 Alpha  occ. eigenvalues --   -1.12395  -1.10190  -1.09999  -1.06133  -1.04272
 Alpha  occ. eigenvalues --   -1.02771  -1.01040  -0.99156  -0.98924  -0.97930
 Alpha  occ. eigenvalues --   -0.96606  -0.94277  -0.93993  -0.93625  -0.92227
 Alpha  occ. eigenvalues --   -0.90803  -0.89959  -0.88624  -0.88210  -0.85721
 Alpha  occ. eigenvalues --   -0.84437  -0.84083  -0.83643  -0.81634  -0.80338
 Alpha  occ. eigenvalues --   -0.79948  -0.79344  -0.78706  -0.78010  -0.77409
 Alpha  occ. eigenvalues --   -0.77126  -0.76488  -0.75996  -0.75410  -0.74412
 Alpha  occ. eigenvalues --   -0.73975  -0.73556  -0.72251  -0.71949  -0.71458
 Alpha  occ. eigenvalues --   -0.70858  -0.70345  -0.68880  -0.68018  -0.67651
 Alpha  occ. eigenvalues --   -0.67189  -0.67045  -0.66338  -0.64985  -0.64926
 Alpha  occ. eigenvalues --   -0.64117  -0.63870  -0.63662  -0.63376  -0.63300
 Alpha  occ. eigenvalues --   -0.62764  -0.62497  -0.62040  -0.61954  -0.61486
 Alpha  occ. eigenvalues --   -0.61338  -0.60995  -0.60703  -0.60497  -0.60283
 Alpha  occ. eigenvalues --   -0.59737  -0.58498  -0.58243  -0.57898  -0.57748
 Alpha  occ. eigenvalues --   -0.57336  -0.56761  -0.56658  -0.56447  -0.56103
 Alpha  occ. eigenvalues --   -0.55994  -0.55703  -0.55234  -0.55095  -0.54903
 Alpha  occ. eigenvalues --   -0.54416  -0.54114  -0.53756  -0.53519  -0.53187
 Alpha  occ. eigenvalues --   -0.53079  -0.52481  -0.52003  -0.51862  -0.51660
 Alpha  occ. eigenvalues --   -0.51398  -0.51090  -0.50706  -0.50189  -0.50125
 Alpha  occ. eigenvalues --   -0.49953  -0.49708  -0.49479  -0.49157  -0.48719
 Alpha  occ. eigenvalues --   -0.48608  -0.48361  -0.48034  -0.47673  -0.47586
 Alpha  occ. eigenvalues --   -0.47337  -0.47241  -0.46578  -0.46375  -0.46333
 Alpha  occ. eigenvalues --   -0.46300  -0.45906  -0.45790  -0.45334  -0.45286
 Alpha  occ. eigenvalues --   -0.44971  -0.44881  -0.44496  -0.44409  -0.44265
 Alpha  occ. eigenvalues --   -0.43872  -0.43548  -0.43437  -0.42999  -0.42553
 Alpha  occ. eigenvalues --   -0.41239  -0.40906  -0.40805  -0.39275  -0.38970
 Alpha  occ. eigenvalues --   -0.38576  -0.37473  -0.35439  -0.35252  -0.34842
 Alpha  occ. eigenvalues --   -0.33537  -0.33151  -0.32630  -0.32460  -0.26918
 Alpha  occ. eigenvalues --   -0.22462
 Alpha virt. eigenvalues --   -0.09221  -0.02591  -0.00838   0.00206   0.00978
 Alpha virt. eigenvalues --    0.02296   0.02409   0.02600   0.04530   0.04860
 Alpha virt. eigenvalues --    0.05874   0.06824   0.07373   0.07713   0.07834

 Mulliken charges:
               1
     1  Mg   0.438883
     2  C   -0.032857
     3  C   -0.067162
     4  C   -0.105932
     5  C   -0.075516
     6  N   -0.301888
     7  C    0.111777
     8  C    0.007980
     9  C    0.011016
    10  C    0.116827
    11  C   -0.048223
    12  C   -0.024962
    13  C    0.004397
    14  C    0.462291
    15  O   -0.510014
    16  O   -0.291390
    17  N   -0.324537
    18  C    0.101730
    19  C    0.048045
    20  C   -0.046802
    21  C    0.145803
    22  C   -0.041401
    23  C    0.329027
    24  O   -0.536844
    25  C   -0.029694
    26  N   -0.274320
    27  C    0.163202
    28  C    0.004190
    29  C   -0.002836
    30  C    0.107728
    31  C   -0.051235
    32  C   -0.021214
    33  C   -0.057281
    34  N   -0.311065
    35  C    0.086591
    36  C    0.028853
    37  C   -0.033120
    38  C    0.128250
    39  C   -0.042014
    40  C    0.343173
    41  O   -0.523705
    42  C    0.053595
    43  C    0.499799
    44  O   -0.532121
    45  O   -0.256859
    46  C    0.067163
    47  C    0.108842
    48  C   -0.084988
    49  C   -0.013088
    50  C   -0.043859
    51  C   -0.035973
    52  C   -0.029816
    53  C   -0.031483
    54  C   -0.018766
    55  C   -0.062432
    56  C   -0.020545
    57  C   -0.039406
    58  C   -0.046547
    59  C   -0.024868
    60  C   -0.063214
    61  C   -0.028508
    62  C   -0.031352
    63  C   -0.039725
    64  C   -0.020000
    65  C   -0.063629
    66  C   -0.060209
    67  H    0.026449
    68  H    0.020815
    69  H    0.036388
    70  H    0.028518
    71  H    0.030581
    72  H    0.022100
    73  H    0.023480
    74  H    0.021027
    75  H    0.034311
    76  H    0.023526
    77  H    0.048770
    78  H    0.054790
    79  H    0.037065
    80  H    0.022185
    81  H    0.035999
    82  H    0.026350
    83  H    0.029724
    84  H    0.043222
    85  H    0.037224
    86  H    0.037310
    87  H    0.022934
    88  H    0.020570
    89  H    0.026267
    90  H    0.014444
    91  H    0.018356
    92  H    0.026644
    93  H    0.012294
    94  H    0.028994
    95  H    0.029580
    96  H    0.029321
    97  H    0.034942
    98  H    0.048010
    99  H    0.065551
   100  H    0.029963
   101  H    0.032943
   102  H    0.024826
   103  H    0.061635
   104  H    0.048744
   105  H    0.024954
   106  H    0.030254
   107  H    0.028067
   108  H    0.012760
   109  H    0.016861
   110  H    0.025158
   111  H    0.019538
   112  H    0.022659
   113  H    0.022146
   114  H    0.007677
   115  H    0.015084
   116  H    0.018852
   117  H    0.020381
   118  H    0.011811
   119  H    0.018512
   120  H    0.002439
   121  H    0.032933
   122  H    0.030146
   123  H    0.044202
   124  H    0.015874
   125  H    0.020733
   126  H    0.019960
   127  H    0.010493
   128  H    0.022212
   129  H    0.007362
   130  H    0.020808
   131  H    0.024606
   132  H    0.013755
   133  H    0.018241
   134  H    0.022204
   135  H    0.005491
   136  H    0.025303
   137  H    0.018358
   138  H    0.011753
   139  H    0.030737
   140  H    0.024062
 Sum of Mulliken charges =  -0.00000

 Dipole moment (field-independent basis, Debye):
    X=             -0.1800    Y=              4.3203    Z=              0.3807  Tot=              4.3408
 N-N= 4.387343292961D+03 E-N= 0.000000000000D+00  KE=-9.448944765924D+03
 Leave Link  601 at Thu May  5 11:26:17 2022, MaxMem=  6710886400 cpu:               0.8 elap:               0.1
 (Enter /sw/apps/gaussian-16.0/g16/l9999.exe)
 1\1\GINC-BP1-COMPUTE159\SP\RZINDO CIS\STO-3G\C55H74Mg1N4O6\OF15641\05-
 May-2022\0\\#p ZINDO=(nstates=5)\\step_851_chromophore_11 ZINDO\\0,1\M
 g,0,53.169,23.728,43.717\C,0,50.106,25.434,43.312\C,0,51.538,20.821,42
 .744\C,0,56.19,22.302,43.186\C,0,54.783,26.833,44.241\N,0,50.954,23.22
 4,43.064\C,0,49.895,24.082,42.91\C,0,48.668,23.239,42.556\C,0,49.129,2
 1.723,42.652\C,0,50.618,21.9,42.732\C,0,48.532,20.954,43.841\C,0,48.00
 2,23.522,41.135\C,0,49.032,24.068,40.104\C,0,48.472,24.223,38.688\O,0,

 Normal termination of Gaussian 16 at Thu May  5 11:26:17 2022.
