 Gaussian 16, Revision A.03,
 Gaussian 16:  ES64L-G16RevA.03 25-Dec-2016

 ------------------------------
 #p blyp/Def2SVP td=(nstates=5)
 ------------------------------

 --------------------------------------------------
 step_1451_chromophore_3 TDDFT with blyp functional
 --------------------------------------------------
 Symbolic Z-matrix:
 Charge =  0 Multiplicity = 1

                         Standard orientation:
 ---------------------------------------------------------------------
 Center     Atomic      Atomic             Coordinates (Angstroms)
 Number     Number       Type             X           Y           Z
 ---------------------------------------------------------------------
      1         12           0        5.064784    1.022931    0.305805
      2          6           0        4.187298   -2.284977   -0.178898
      3          6           0        1.836402    1.946803    0.150795
      4          6           0        6.177662    4.172074   -0.048086
      5          6           0        8.509912    0.002314    0.121143
      6          7           0        3.230201   -0.086648    0.009589
      7          6           0        3.048389   -1.392552   -0.033396
      8          6           0        1.572454   -1.805507   -0.006019
      9          6           0        0.851299   -0.392614   -0.149538
     10          6           0        2.032953    0.566394    0.085189
     11          6           0        0.038011   -0.205028   -1.444048
     12          6           0        1.266919   -2.574100    1.288633
     13          6           0        0.493629   -3.918133    1.150670
     14          6           0       -0.528682   -4.071596    0.002631
     15          8           0       -0.436083   -4.871228   -0.908808
     16          8           0       -1.690166   -3.339431    0.218268
     17          7           0        4.130254    2.806750    0.097920
     18          6           0        2.773158    3.021880    0.135901
     19          6           0        2.535143    4.427771   -0.008832
     20          6           0        3.807994    5.119808   -0.242052
     21          6           0        4.784460    3.992858   -0.154152
     22          6           0        1.072212    4.869755   -0.134839
     23          6           0        4.112219    6.601599   -0.557270
     24          8           0        5.256004    6.977417   -0.841604
     25          6           0        3.027487    7.674059   -0.404217
     26          7           0        7.037531    1.978499    0.184109
     27          6           0        7.208367    3.314833    0.062086
     28          6           0        8.724311    3.728561    0.214460
     29          6           0        9.445262    2.359082    0.415851
     30          6           0        8.227374    1.315790    0.250169
     31          6           0        9.287412    4.610454   -0.955834
     32          6           0       10.043474    2.323748    1.835952
     33          6           0       11.285873    1.381544    1.963816
     34          7           0        6.149561   -0.713075    0.034028
     35          6           0        7.524511   -0.976903   -0.031205
     36          6           0        7.773527   -2.383527   -0.214366
     37          6           0        6.476892   -2.942855   -0.219781
     38          6           0        5.543196   -1.878966   -0.100007
     39          6           0        9.079054   -2.914743   -0.234358
     40          6           0        5.711220   -4.219492   -0.317125
     41          8           0        6.098732   -5.347343   -0.646702
     42          6           0        4.224979   -3.818592   -0.046450
     43          6           0        3.405393   -4.608985   -0.987462
     44          8           0        3.151681   -4.409916   -2.174739
     45          8           0        3.114570   -5.820086   -0.413329
     46          6           0        2.385974   -6.836516   -1.152884
     47          6           0       -2.792550   -3.512779   -0.665034
     48          6           0       -4.074902   -3.109848    0.083117
     49          6           0       -5.298388   -3.668133   -0.147627
     50          6           0       -5.821715   -4.579455   -1.321557
     51          6           0       -6.248269   -3.330402    1.035716
     52          6           0       -7.386862   -2.414565    0.782298
     53          6           0       -7.607036   -1.410778    1.989901
     54          6           0       -9.121763   -1.429611    2.452664
     55          6           0       -9.135303   -1.484057    4.006572
     56          6           0       -9.935546   -0.201597    1.943657
     57          6           0      -11.168317   -0.734177    1.234585
     58          6           0      -10.906630   -0.784287   -0.285561
     59          6           0      -11.850255    0.154920   -1.097430
     60          6           0      -12.321617   -0.508104   -2.466790
     61          6           0      -11.192479    1.519430   -1.318943
     62          6           0      -12.133896    2.647047   -1.637676
     63          6           0      -12.747502    3.391824   -0.408382
     64          6           0      -12.325662    4.916541   -0.352826
     65          6           0      -12.449666    5.535564    1.107469
     66          6           0      -13.295133    5.670855   -1.291342
     67          1           0        0.774487    2.155539    0.004038
     68          1           0        6.378864    5.245387   -0.019777
     69          1           0        9.549770   -0.316019    0.220907
     70          1           0        1.398301   -2.286480   -0.968895
     71          1           0        0.059761   -0.255569    0.586768
     72          1           0        0.612908    0.542267   -1.988846
     73          1           0       -0.977928    0.176252   -1.342489
     74          1           0       -0.040216   -1.156174   -1.970691
     75          1           0        0.713577   -1.863072    1.903062
     76          1           0        2.263165   -2.700419    1.712647
     77          1           0       -0.181326   -4.037956    1.998765
     78          1           0        1.124673   -4.788558    0.972668
     79          1           0        0.653530    5.107660    0.843215
     80          1           0        0.536796    4.029900   -0.575189
     81          1           0        1.072025    5.694986   -0.847835
     82          1           0        2.073158    7.514633   -0.907096
     83          1           0        3.360585    8.627514   -0.815438
     84          1           0        2.755471    7.805081    0.643615
     85          1           0        8.616746    4.304311    1.134064
     86          1           0       10.220787    2.072229   -0.293904
     87          1           0        8.562884    4.927591   -1.705889
     88          1           0       10.114493    4.150288   -1.496705
     89          1           0        9.558488    5.573001   -0.522510
     90          1           0        9.256727    1.955507    2.494767
     91          1           0       10.240556    3.314000    2.246883
     92          1           0       12.117057    2.072253    2.100625
     93          1           0       11.475401    0.867142    1.021566
     94          1           0       11.138004    0.746933    2.836789
     95          1           0        9.203535   -3.997763   -0.248083
     96          1           0        9.555287   -2.448770    0.627967
     97          1           0        9.589487   -2.592913   -1.142111
     98          1           0        4.030481   -4.216295    0.949317
     99          1           0        1.338786   -6.627882   -1.370132
    100          1           0        2.315842   -7.764817   -0.586740
    101          1           0        2.864824   -7.040993   -2.110927
    102          1           0       -2.943734   -4.495116   -1.114054
    103          1           0       -2.521463   -2.744371   -1.389498
    104          1           0       -3.873453   -2.424179    0.905819
    105          1           0       -6.295602   -5.467689   -0.904605
    106          1           0       -5.013416   -5.053754   -1.876446
    107          1           0       -6.504479   -4.114090   -2.032122
    108          1           0       -5.594101   -3.195629    1.896712
    109          1           0       -6.732304   -4.261492    1.332343
    110          1           0       -8.237481   -3.041754    0.514811
    111          1           0       -7.132718   -1.835769   -0.105589
    112          1           0       -7.248197   -0.434563    1.666204
    113          1           0       -6.893021   -1.644516    2.780169
    114          1           0       -9.525509   -2.395247    2.147208
    115          1           0      -10.101241   -1.124046    4.361926
    116          1           0       -8.410536   -0.876991    4.549008
    117          1           0       -9.010826   -2.498257    4.385527
    118          1           0       -9.333197    0.432201    1.292676
    119          1           0      -10.265518    0.432415    2.766567
    120          1           0      -11.959171   -0.012480    1.437526
    121          1           0      -11.559072   -1.680435    1.607649
    122          1           0      -11.004088   -1.846380   -0.506777
    123          1           0       -9.942209   -0.332601   -0.520430
    124          1           0      -12.752837    0.227898   -0.491814
    125          1           0      -12.077898   -1.568139   -2.539465
    126          1           0      -11.975651    0.074931   -3.319968
    127          1           0      -13.409980   -0.459665   -2.497520
    128          1           0      -10.360467    1.418736   -2.015935
    129          1           0      -10.768600    1.779413   -0.349482
    130          1           0      -12.978778    2.307929   -2.236776
    131          1           0      -11.466570    3.329473   -2.165071
    132          1           0      -12.525858    2.841321    0.505699
    133          1           0      -13.830989    3.326027   -0.512162
    134          1           0      -11.313392    5.105722   -0.709927
    135          1           0      -12.481388    4.773925    1.887488
    136          1           0      -13.391176    6.084049    1.129046
    137          1           0      -11.564346    6.147841    1.276938
    138          1           0      -13.484148    5.034208   -2.155666
    139          1           0      -12.900173    6.667616   -1.487113
    140          1           0      -14.305022    5.809734   -0.906886
 ---------------------------------------------------------------------

 SCF Done:  E(RB-LYP) =  -3007.37548939     A.U. after   20 cycles

 Excitation energies and oscillator strengths:

 Excited State   1:      Singlet-A      1.8401 eV  673.78 nm  f=0.3251  <S**2>=0.000
     245 -> 248       -0.18559
     246 -> 247        0.68994
     246 <- 247       -0.15043
 This state for optimization and/or second-order correction.
 Total Energy, E(TD-HF/TD-DFT) =  -3007.30786554
 Copying the excited state density for this state as the 1-particle RhoCI density.

 Excited State   2:      Singlet-A      1.9616 eV  632.05 nm  f=0.0396  <S**2>=0.000
     243 -> 247       -0.29217
     244 -> 247        0.36327
     245 -> 247        0.50567
     246 -> 248        0.13880

 Excited State   3:      Singlet-A      2.0260 eV  611.95 nm  f=0.0056  <S**2>=0.000
     243 -> 247        0.36739
     244 -> 247        0.57226
     245 -> 247       -0.17723

 Excited State   4:      Singlet-A      2.1200 eV  584.83 nm  f=0.0370  <S**2>=0.000
     243 -> 247        0.52375
     244 -> 247       -0.19392
     245 -> 247        0.37310
     246 -> 248        0.18050

 Excited State   5:      Singlet-A      2.3726 eV  522.57 nm  f=0.0033  <S**2>=0.000
     241 -> 247       -0.49019
     242 -> 247        0.49773

 The electronic state is 1-A.
 Alpha  occ. eigenvalues --  -46.26677 -18.81983 -18.80673 -18.77329 -18.76068
 Alpha  occ. eigenvalues --  -18.75997 -18.75320 -14.03692 -14.02646 -14.01098
 Alpha  occ. eigenvalues --  -14.00958 -10.04460 -10.02845 -10.00808 -10.00186
 Alpha  occ. eigenvalues --   -9.97615  -9.97160  -9.96523  -9.95978  -9.95920
 Alpha  occ. eigenvalues --   -9.95736  -9.95525  -9.95449  -9.95259  -9.94667
 Alpha  occ. eigenvalues --   -9.94320  -9.94234  -9.94217  -9.94204  -9.94042
 Alpha  occ. eigenvalues --   -9.93987  -9.93940  -9.93916  -9.93732  -9.93511
 Alpha  occ. eigenvalues --   -9.93458  -9.93433  -9.93386  -9.93208  -9.92903
 Alpha  occ. eigenvalues --   -9.92629  -9.92374  -9.92327  -9.92311  -9.92299
 Alpha  occ. eigenvalues --   -9.92296  -9.92273  -9.92256  -9.92038  -9.91734
 Alpha  occ. eigenvalues --   -9.91727  -9.91536  -9.91510  -9.91407  -9.91335
 Alpha  occ. eigenvalues --   -9.91302  -9.91135  -9.91107  -9.91077  -9.91056
 Alpha  occ. eigenvalues --   -9.91009  -9.90874  -9.90824  -9.90802  -9.90778
 Alpha  occ. eigenvalues --   -9.90739  -2.91446  -1.71871  -1.71315  -1.71168
 Alpha  occ. eigenvalues --   -0.98237  -0.96373  -0.91146  -0.90685  -0.90607
 Alpha  occ. eigenvalues --   -0.87822  -0.87482  -0.86342  -0.85333  -0.84455
 Alpha  occ. eigenvalues --   -0.75254  -0.73573  -0.73260  -0.72897  -0.72490
 Alpha  occ. eigenvalues --   -0.71798  -0.71682  -0.71464  -0.71072  -0.70412
 Alpha  occ. eigenvalues --   -0.69585  -0.69179  -0.68234  -0.67551  -0.66916
 Alpha  occ. eigenvalues --   -0.66444  -0.65674  -0.65204  -0.64938  -0.64296
 Alpha  occ. eigenvalues --   -0.64035  -0.63007  -0.62329  -0.61060  -0.60832
 Alpha  occ. eigenvalues --   -0.60471  -0.59872  -0.59775  -0.59387  -0.58897
 Alpha  occ. eigenvalues --   -0.58291  -0.57773  -0.56771  -0.56170  -0.54143
 Alpha  occ. eigenvalues --   -0.53825  -0.53663  -0.52735  -0.52134  -0.51746
 Alpha  occ. eigenvalues --   -0.51559  -0.51092  -0.50905  -0.50243  -0.50117
 Alpha  occ. eigenvalues --   -0.49885  -0.49512  -0.48336  -0.47752  -0.46758
 Alpha  occ. eigenvalues --   -0.46410  -0.46184  -0.45687  -0.45232  -0.44103
 Alpha  occ. eigenvalues --   -0.43799  -0.43449  -0.43033  -0.42667  -0.42239
 Alpha  occ. eigenvalues --   -0.41761  -0.41656  -0.41458  -0.41281  -0.41086
 Alpha  occ. eigenvalues --   -0.40811  -0.40448  -0.40184  -0.39964  -0.39685
 Alpha  occ. eigenvalues --   -0.39614  -0.39422  -0.39351  -0.39149  -0.39025
 Alpha  occ. eigenvalues --   -0.38939  -0.38534  -0.38495  -0.38414  -0.37957
 Alpha  occ. eigenvalues --   -0.37859  -0.37765  -0.37610  -0.37469  -0.37343
 Alpha  occ. eigenvalues --   -0.37248  -0.37048  -0.36855  -0.36476  -0.36339
 Alpha  occ. eigenvalues --   -0.36210  -0.36039  -0.35823  -0.35787  -0.35679
 Alpha  occ. eigenvalues --   -0.35497  -0.35348  -0.35239  -0.35012  -0.34805
 Alpha  occ. eigenvalues --   -0.34554  -0.34399  -0.34359  -0.34105  -0.33919
 Alpha  occ. eigenvalues --   -0.33820  -0.33674  -0.33634  -0.33360  -0.33180
 Alpha  occ. eigenvalues --   -0.33161  -0.32921  -0.32810  -0.32607  -0.32414
 Alpha  occ. eigenvalues --   -0.32396  -0.32193  -0.31704  -0.31608  -0.31313
 Alpha  occ. eigenvalues --   -0.31225  -0.31044  -0.30919  -0.30734  -0.30641
 Alpha  occ. eigenvalues --   -0.30500  -0.30339  -0.30283  -0.30179  -0.30069
 Alpha  occ. eigenvalues --   -0.30018  -0.29212  -0.29049  -0.28971  -0.28613
 Alpha  occ. eigenvalues --   -0.28209  -0.28068  -0.27998  -0.27873  -0.27664
 Alpha  occ. eigenvalues --   -0.27564  -0.27208  -0.27069  -0.26512  -0.26365
 Alpha  occ. eigenvalues --   -0.26198  -0.26130  -0.25923  -0.25415  -0.25217
 Alpha  occ. eigenvalues --   -0.24868  -0.24636  -0.23905  -0.23585  -0.23567
 Alpha  occ. eigenvalues --   -0.23020  -0.22154  -0.22081  -0.20895  -0.20539
 Alpha  occ. eigenvalues --   -0.20410  -0.20306  -0.19158  -0.18946  -0.17407
 Alpha  occ. eigenvalues --   -0.16013
 Alpha virt. eigenvalues --   -0.11672  -0.06739  -0.06383  -0.04863  -0.03621
 Alpha virt. eigenvalues --   -0.02654  -0.02393  -0.02045  -0.01117   0.00245
 Alpha virt. eigenvalues --    0.01461   0.01938   0.02483   0.02732   0.03125

 Mulliken charges:
               1
     1  Mg   0.704990
     2  C    0.038680
     3  C   -0.043003
     4  C   -0.048183
     5  C   -0.116389
     6  N   -0.189279
     7  C   -0.105079
     8  C   -0.012104
     9  C   -0.033501
    10  C    0.009232
    11  C    0.113167
    12  C    0.180146
    13  C    0.158229
    14  C    0.044111
    15  O   -0.173929
    16  O   -0.292142
    17  N   -0.323527
    18  C    0.162274
    19  C   -0.155646
    20  C    0.000706
    21  C    0.088161
    22  C    0.162763
    23  C   -0.019989
    24  O   -0.174852
    25  C    0.098925
    26  N   -0.197070
    27  C    0.021901
    28  C    0.056855
    29  C   -0.008836
    30  C    0.069099
    31  C    0.128031
    32  C    0.057893
    33  C    0.078512
    34  N   -0.256167
    35  C    0.124669
    36  C   -0.165867
    37  C    0.072643
    38  C    0.080396
    39  C    0.185050
    40  C   -0.043286
    41  O   -0.134432
    42  C    0.048403
    43  C    0.090461
    44  O   -0.184065
    45  O   -0.276067
    46  C    0.224311
    47  C    0.323165
    48  C   -0.115707
    49  C   -0.122500
    50  C    0.129656
    51  C    0.087438
    52  C    0.096128
    53  C    0.097053
    54  C   -0.043671
    55  C    0.082386
    56  C    0.129630
    57  C    0.053400
    58  C    0.109221
    59  C   -0.098003
    60  C    0.107497
    61  C    0.080917
    62  C    0.112131
    63  C    0.080420
    64  C   -0.094076
    65  C    0.102973
    66  C    0.092382
    67  H   -0.068593
    68  H   -0.047873
    69  H   -0.068685
    70  H    0.014567
    71  H   -0.029122
    72  H   -0.005777
    73  H   -0.009115
    74  H    0.008108
    75  H   -0.021619
    76  H   -0.010314
    77  H   -0.001745
    78  H    0.011455
    79  H    0.008272
    80  H   -0.003229
    81  H   -0.005972
    82  H   -0.004355
    83  H   -0.004634
    84  H    0.014409
    85  H   -0.015438
    86  H   -0.026668
    87  H   -0.001528
    88  H   -0.005999
    89  H   -0.010887
    90  H   -0.032060
    91  H   -0.017653
    92  H   -0.008352
    93  H   -0.000309
    94  H    0.002238
    95  H    0.000244
    96  H    0.009554
    97  H   -0.002128
    98  H    0.007747
    99  H    0.014372
   100  H   -0.003480
   101  H    0.010380
   102  H    0.008710
   103  H   -0.021692
   104  H   -0.024745
   105  H   -0.008106
   106  H   -0.017739
   107  H    0.020555
   108  H   -0.028304
   109  H   -0.043638
   110  H   -0.021058
   111  H   -0.031204
   112  H   -0.035112
   113  H   -0.036736
   114  H   -0.027947
   115  H   -0.028918
   116  H   -0.016258
   117  H   -0.022239
   118  H   -0.027993
   119  H   -0.042839
   120  H   -0.042714
   121  H   -0.026283
   122  H   -0.035286
   123  H   -0.023852
   124  H   -0.042262
   125  H   -0.018160
   126  H   -0.015714
   127  H   -0.023324
   128  H   -0.027744
   129  H   -0.039915
   130  H   -0.031285
   131  H   -0.027719
   132  H   -0.035173
   133  H   -0.038089
   134  H   -0.025075
   135  H   -0.019078
   136  H   -0.014501
   137  H   -0.010775
   138  H   -0.017851
   139  H   -0.012291
   140  H   -0.020092
 Sum of Mulliken charges =  -0.00000

 Dipole moment (field-independent basis, Debye):
    X=             -3.9020    Y=              2.3047    Z=              4.5490  Tot=              6.4211
 Quadrupole moment (field-independent basis, Debye-Ang):
   XX=           -370.6048   YY=           -434.0384   ZZ=           -411.9156
   XY=             17.5089   XZ=             21.8093   YZ=             -6.2493

 Normal termination of Gaussian 16 at Wed May  4 07:52:58 2022.
