 Gaussian 16, Revision A.03,
 Gaussian 16:  ES64L-G16RevA.03 25-Dec-2016

 -----------------------------------
 #p cam-b3lyp/Def2SVP td=(nstates=5)
 -----------------------------------

 -------------------------------------------------------
 step_1451_chromophore_3 TDDFT with cam-b3lyp functional
 -------------------------------------------------------
 Symbolic Z-matrix:
 Charge =  0 Multiplicity = 1

                         Standard orientation:
 ---------------------------------------------------------------------
 Center     Atomic      Atomic             Coordinates (Angstroms)
 Number     Number       Type             X           Y           Z
 ---------------------------------------------------------------------
      1         12           0        5.064784    1.022931    0.305805
      2          6           0        4.187298   -2.284977   -0.178898
      3          6           0        1.836402    1.946803    0.150795
      4          6           0        6.177662    4.172074   -0.048086
      5          6           0        8.509912    0.002314    0.121143
      6          7           0        3.230201   -0.086648    0.009589
      7          6           0        3.048389   -1.392552   -0.033396
      8          6           0        1.572454   -1.805507   -0.006019
      9          6           0        0.851299   -0.392614   -0.149538
     10          6           0        2.032953    0.566394    0.085189
     11          6           0        0.038011   -0.205028   -1.444048
     12          6           0        1.266919   -2.574100    1.288633
     13          6           0        0.493629   -3.918133    1.150670
     14          6           0       -0.528682   -4.071596    0.002631
     15          8           0       -0.436083   -4.871228   -0.908808
     16          8           0       -1.690166   -3.339431    0.218268
     17          7           0        4.130254    2.806750    0.097920
     18          6           0        2.773158    3.021880    0.135901
     19          6           0        2.535143    4.427771   -0.008832
     20          6           0        3.807994    5.119808   -0.242052
     21          6           0        4.784460    3.992858   -0.154152
     22          6           0        1.072212    4.869755   -0.134839
     23          6           0        4.112219    6.601599   -0.557270
     24          8           0        5.256004    6.977417   -0.841604
     25          6           0        3.027487    7.674059   -0.404217
     26          7           0        7.037531    1.978499    0.184109
     27          6           0        7.208367    3.314833    0.062086
     28          6           0        8.724311    3.728561    0.214460
     29          6           0        9.445262    2.359082    0.415851
     30          6           0        8.227374    1.315790    0.250169
     31          6           0        9.287412    4.610454   -0.955834
     32          6           0       10.043474    2.323748    1.835952
     33          6           0       11.285873    1.381544    1.963816
     34          7           0        6.149561   -0.713075    0.034028
     35          6           0        7.524511   -0.976903   -0.031205
     36          6           0        7.773527   -2.383527   -0.214366
     37          6           0        6.476892   -2.942855   -0.219781
     38          6           0        5.543196   -1.878966   -0.100007
     39          6           0        9.079054   -2.914743   -0.234358
     40          6           0        5.711220   -4.219492   -0.317125
     41          8           0        6.098732   -5.347343   -0.646702
     42          6           0        4.224979   -3.818592   -0.046450
     43          6           0        3.405393   -4.608985   -0.987462
     44          8           0        3.151681   -4.409916   -2.174739
     45          8           0        3.114570   -5.820086   -0.413329
     46          6           0        2.385974   -6.836516   -1.152884
     47          6           0       -2.792550   -3.512779   -0.665034
     48          6           0       -4.074902   -3.109848    0.083117
     49          6           0       -5.298388   -3.668133   -0.147627
     50          6           0       -5.821715   -4.579455   -1.321557
     51          6           0       -6.248269   -3.330402    1.035716
     52          6           0       -7.386862   -2.414565    0.782298
     53          6           0       -7.607036   -1.410778    1.989901
     54          6           0       -9.121763   -1.429611    2.452664
     55          6           0       -9.135303   -1.484057    4.006572
     56          6           0       -9.935546   -0.201597    1.943657
     57          6           0      -11.168317   -0.734177    1.234585
     58          6           0      -10.906630   -0.784287   -0.285561
     59          6           0      -11.850255    0.154920   -1.097430
     60          6           0      -12.321617   -0.508104   -2.466790
     61          6           0      -11.192479    1.519430   -1.318943
     62          6           0      -12.133896    2.647047   -1.637676
     63          6           0      -12.747502    3.391824   -0.408382
     64          6           0      -12.325662    4.916541   -0.352826
     65          6           0      -12.449666    5.535564    1.107469
     66          6           0      -13.295133    5.670855   -1.291342
     67          1           0        0.774487    2.155539    0.004038
     68          1           0        6.378864    5.245387   -0.019777
     69          1           0        9.549770   -0.316019    0.220907
     70          1           0        1.398301   -2.286480   -0.968895
     71          1           0        0.059761   -0.255569    0.586768
     72          1           0        0.612908    0.542267   -1.988846
     73          1           0       -0.977928    0.176252   -1.342489
     74          1           0       -0.040216   -1.156174   -1.970691
     75          1           0        0.713577   -1.863072    1.903062
     76          1           0        2.263165   -2.700419    1.712647
     77          1           0       -0.181326   -4.037956    1.998765
     78          1           0        1.124673   -4.788558    0.972668
     79          1           0        0.653530    5.107660    0.843215
     80          1           0        0.536796    4.029900   -0.575189
     81          1           0        1.072025    5.694986   -0.847835
     82          1           0        2.073158    7.514633   -0.907096
     83          1           0        3.360585    8.627514   -0.815438
     84          1           0        2.755471    7.805081    0.643615
     85          1           0        8.616746    4.304311    1.134064
     86          1           0       10.220787    2.072229   -0.293904
     87          1           0        8.562884    4.927591   -1.705889
     88          1           0       10.114493    4.150288   -1.496705
     89          1           0        9.558488    5.573001   -0.522510
     90          1           0        9.256727    1.955507    2.494767
     91          1           0       10.240556    3.314000    2.246883
     92          1           0       12.117057    2.072253    2.100625
     93          1           0       11.475401    0.867142    1.021566
     94          1           0       11.138004    0.746933    2.836789
     95          1           0        9.203535   -3.997763   -0.248083
     96          1           0        9.555287   -2.448770    0.627967
     97          1           0        9.589487   -2.592913   -1.142111
     98          1           0        4.030481   -4.216295    0.949317
     99          1           0        1.338786   -6.627882   -1.370132
    100          1           0        2.315842   -7.764817   -0.586740
    101          1           0        2.864824   -7.040993   -2.110927
    102          1           0       -2.943734   -4.495116   -1.114054
    103          1           0       -2.521463   -2.744371   -1.389498
    104          1           0       -3.873453   -2.424179    0.905819
    105          1           0       -6.295602   -5.467689   -0.904605
    106          1           0       -5.013416   -5.053754   -1.876446
    107          1           0       -6.504479   -4.114090   -2.032122
    108          1           0       -5.594101   -3.195629    1.896712
    109          1           0       -6.732304   -4.261492    1.332343
    110          1           0       -8.237481   -3.041754    0.514811
    111          1           0       -7.132718   -1.835769   -0.105589
    112          1           0       -7.248197   -0.434563    1.666204
    113          1           0       -6.893021   -1.644516    2.780169
    114          1           0       -9.525509   -2.395247    2.147208
    115          1           0      -10.101241   -1.124046    4.361926
    116          1           0       -8.410536   -0.876991    4.549008
    117          1           0       -9.010826   -2.498257    4.385527
    118          1           0       -9.333197    0.432201    1.292676
    119          1           0      -10.265518    0.432415    2.766567
    120          1           0      -11.959171   -0.012480    1.437526
    121          1           0      -11.559072   -1.680435    1.607649
    122          1           0      -11.004088   -1.846380   -0.506777
    123          1           0       -9.942209   -0.332601   -0.520430
    124          1           0      -12.752837    0.227898   -0.491814
    125          1           0      -12.077898   -1.568139   -2.539465
    126          1           0      -11.975651    0.074931   -3.319968
    127          1           0      -13.409980   -0.459665   -2.497520
    128          1           0      -10.360467    1.418736   -2.015935
    129          1           0      -10.768600    1.779413   -0.349482
    130          1           0      -12.978778    2.307929   -2.236776
    131          1           0      -11.466570    3.329473   -2.165071
    132          1           0      -12.525858    2.841321    0.505699
    133          1           0      -13.830989    3.326027   -0.512162
    134          1           0      -11.313392    5.105722   -0.709927
    135          1           0      -12.481388    4.773925    1.887488
    136          1           0      -13.391176    6.084049    1.129046
    137          1           0      -11.564346    6.147841    1.276938
    138          1           0      -13.484148    5.034208   -2.155666
    139          1           0      -12.900173    6.667616   -1.487113
    140          1           0      -14.305022    5.809734   -0.906886
 ---------------------------------------------------------------------

 SCF Done:  E(RCAM-B3LYP) =  -3007.16860198     A.U. after   18 cycles

 Excitation energies and oscillator strengths:

 Excited State   1:      Singlet-A      1.7327 eV  715.54 nm  f=0.3949  <S**2>=0.000
     245 -> 248        0.18117
     246 -> 247        0.68571
     245 <- 248        0.10848
 This state for optimization and/or second-order correction.
 Total Energy, E(TD-HF/TD-DFT) =  -3007.10492505
 Copying the excited state density for this state as the 1-particle RhoCI density.

 Excited State   2:      Singlet-A      2.2555 eV  549.69 nm  f=0.1331  <S**2>=0.000
     245 -> 247        0.64496
     246 -> 248       -0.27867

 Excited State   3:      Singlet-A      3.3560 eV  369.43 nm  f=0.0013  <S**2>=0.000
     240 -> 247       -0.10302
     242 -> 247        0.50075
     244 -> 247       -0.43500

 Excited State   4:      Singlet-A      3.4697 eV  357.33 nm  f=0.0376  <S**2>=0.000
     239 -> 247        0.13571
     240 -> 247       -0.19480
     242 -> 247        0.27199
     244 -> 247        0.48405
     246 -> 248        0.27063

 Excited State   5:      Singlet-A      3.5434 eV  349.90 nm  f=0.0119  <S**2>=0.000
     239 -> 247       -0.23920
     240 -> 247        0.34958
     240 -> 249       -0.15881
     240 -> 250        0.10697
     241 -> 247       -0.30672
     242 -> 247        0.30314
     244 -> 247        0.10716
     246 -> 248        0.16592

 The electronic state is 1-A.
 Alpha  occ. eigenvalues --  -46.88174 -19.24843 -19.23702 -19.20450 -19.19587
 Alpha  occ. eigenvalues --  -19.19031 -19.18595 -14.42623 -14.41423 -14.39517
 Alpha  occ. eigenvalues --  -14.39406 -10.39888 -10.38482 -10.35922 -10.35863
 Alpha  occ. eigenvalues --  -10.31943 -10.31589 -10.30773 -10.30561 -10.30071
 Alpha  occ. eigenvalues --  -10.29890 -10.29742 -10.29694 -10.29342 -10.29291
 Alpha  occ. eigenvalues --  -10.28928 -10.28684 -10.28364 -10.28277 -10.28221
 Alpha  occ. eigenvalues --  -10.28211 -10.28177 -10.28089 -10.27956 -10.27622
 Alpha  occ. eigenvalues --  -10.27537 -10.27525 -10.27319 -10.27170 -10.26626
 Alpha  occ. eigenvalues --  -10.26429 -10.26380 -10.26361 -10.26232 -10.26120
 Alpha  occ. eigenvalues --  -10.26055 -10.26042 -10.26011 -10.25973 -10.25709
 Alpha  occ. eigenvalues --  -10.25478 -10.25302 -10.25234 -10.25109 -10.24996
 Alpha  occ. eigenvalues --  -10.24912 -10.24870 -10.24769 -10.24729 -10.24700
 Alpha  occ. eigenvalues --  -10.24620 -10.24465 -10.24443 -10.24394 -10.24393
 Alpha  occ. eigenvalues --  -10.24380  -3.16851  -1.91750  -1.91288  -1.91174
 Alpha  occ. eigenvalues --   -1.16750  -1.15039  -1.09348  -1.09330  -1.08560
 Alpha  occ. eigenvalues --   -1.05873  -1.05341  -1.04168  -1.02872  -1.01756
 Alpha  occ. eigenvalues --   -0.92605  -0.90419  -0.90131  -0.89692  -0.89331
 Alpha  occ. eigenvalues --   -0.88463  -0.88431  -0.88032  -0.87666  -0.86944
 Alpha  occ. eigenvalues --   -0.85987  -0.85536  -0.84485  -0.83787  -0.83030
 Alpha  occ. eigenvalues --   -0.82493  -0.81741  -0.81189  -0.80773  -0.80190
 Alpha  occ. eigenvalues --   -0.79837  -0.78750  -0.77908  -0.76519  -0.76190
 Alpha  occ. eigenvalues --   -0.75877  -0.75192  -0.75063  -0.74645  -0.74107
 Alpha  occ. eigenvalues --   -0.73359  -0.72816  -0.71652  -0.71057  -0.68789
 Alpha  occ. eigenvalues --   -0.68404  -0.68319  -0.67102  -0.66418  -0.65927
 Alpha  occ. eigenvalues --   -0.65679  -0.65292  -0.64961  -0.64244  -0.64136
 Alpha  occ. eigenvalues --   -0.63900  -0.63394  -0.62162  -0.61510  -0.60323
 Alpha  occ. eigenvalues --   -0.59990  -0.59761  -0.59138  -0.58737  -0.57701
 Alpha  occ. eigenvalues --   -0.57278  -0.56879  -0.56198  -0.55876  -0.55599
 Alpha  occ. eigenvalues --   -0.54844  -0.54769  -0.54493  -0.54045  -0.53958
 Alpha  occ. eigenvalues --   -0.53498  -0.53273  -0.52856  -0.52812  -0.52753
 Alpha  occ. eigenvalues --   -0.52489  -0.52140  -0.51966  -0.51847  -0.51569
 Alpha  occ. eigenvalues --   -0.51393  -0.51112  -0.50922  -0.50816  -0.50755
 Alpha  occ. eigenvalues --   -0.50195  -0.50115  -0.49949  -0.49620  -0.49506
 Alpha  occ. eigenvalues --   -0.49506  -0.49402  -0.49263  -0.48894  -0.48603
 Alpha  occ. eigenvalues --   -0.48454  -0.48445  -0.48253  -0.47930  -0.47822
 Alpha  occ. eigenvalues --   -0.47776  -0.47468  -0.47284  -0.47038  -0.46885
 Alpha  occ. eigenvalues --   -0.46449  -0.46315  -0.46186  -0.46070  -0.45792
 Alpha  occ. eigenvalues --   -0.45659  -0.45315  -0.45298  -0.45267  -0.45001
 Alpha  occ. eigenvalues --   -0.44911  -0.44552  -0.44431  -0.44279  -0.44160
 Alpha  occ. eigenvalues --   -0.43844  -0.43826  -0.43463  -0.43161  -0.43149
 Alpha  occ. eigenvalues --   -0.42650  -0.42552  -0.42343  -0.42241  -0.42035
 Alpha  occ. eigenvalues --   -0.41942  -0.41851  -0.41679  -0.41384  -0.41340
 Alpha  occ. eigenvalues --   -0.41270  -0.40565  -0.40327  -0.40135  -0.40068
 Alpha  occ. eigenvalues --   -0.39571  -0.39290  -0.38951  -0.38796  -0.38612
 Alpha  occ. eigenvalues --   -0.38436  -0.38221  -0.37879  -0.37557  -0.37084
 Alpha  occ. eigenvalues --   -0.37004  -0.36883  -0.36795  -0.36320  -0.36166
 Alpha  occ. eigenvalues --   -0.35631  -0.35263  -0.35049  -0.34201  -0.33978
 Alpha  occ. eigenvalues --   -0.33752  -0.33461  -0.32988  -0.31614  -0.31260
 Alpha  occ. eigenvalues --   -0.30921  -0.30245  -0.30031  -0.29538  -0.24189
 Alpha  occ. eigenvalues --   -0.21361
 Alpha virt. eigenvalues --   -0.08826  -0.01512   0.00192   0.02037   0.02261
 Alpha virt. eigenvalues --    0.03906   0.05209   0.05374   0.06247   0.06957
 Alpha virt. eigenvalues --    0.08127   0.08422   0.08964   0.09054   0.09296

 Mulliken charges:
               1
     1  Mg   0.837817
     2  C    0.026678
     3  C   -0.055596
     4  C   -0.071794
     5  C   -0.122338
     6  N   -0.261171
     7  C   -0.054783
     8  C   -0.075083
     9  C   -0.074830
    10  C    0.020598
    11  C    0.056066
    12  C    0.127317
    13  C    0.088431
    14  C    0.124431
    15  O   -0.214887
    16  O   -0.355492
    17  N   -0.410682
    18  C    0.162800
    19  C   -0.160893
    20  C   -0.067003
    21  C    0.118350
    22  C    0.109931
    23  C    0.051119
    24  O   -0.217270
    25  C    0.025202
    26  N   -0.270865
    27  C    0.042514
    28  C    0.001793
    29  C   -0.060545
    30  C    0.085837
    31  C    0.068630
    32  C    0.007003
    33  C    0.015144
    34  N   -0.347316
    35  C    0.131229
    36  C   -0.154017
    37  C   -0.005208
    38  C    0.111545
    39  C    0.117417
    40  C    0.066952
    41  O   -0.169749
    42  C   -0.041678
    43  C    0.180493
    44  O   -0.218287
    45  O   -0.340226
    46  C    0.184142
    47  C    0.288949
    48  C   -0.134862
    49  C   -0.147474
    50  C    0.073819
    51  C    0.027674
    52  C    0.041803
    53  C    0.045597
    54  C   -0.101753
    55  C    0.028087
    56  C    0.073997
    57  C   -0.004569
    58  C    0.058591
    59  C   -0.150148
    60  C    0.050252
    61  C    0.027031
    62  C    0.055657
    63  C    0.027246
    64  C   -0.152743
    65  C    0.045375
    66  C    0.033750
    67  H   -0.033654
    68  H   -0.008376
    69  H   -0.031263
    70  H    0.048284
    71  H    0.005936
    72  H    0.020719
    73  H    0.015247
    74  H    0.029086
    75  H    0.011766
    76  H    0.021020
    77  H    0.032937
    78  H    0.040640
    79  H    0.034155
    80  H    0.020665
    81  H    0.015647
    82  H    0.022553
    83  H    0.028227
    84  H    0.041209
    85  H    0.019356
    86  H    0.007517
    87  H    0.025292
    88  H    0.017311
    89  H    0.013078
    90  H   -0.002201
    91  H    0.011523
    92  H    0.016402
    93  H    0.018495
    94  H    0.026078
    95  H    0.031908
    96  H    0.034004
    97  H    0.027629
    98  H    0.050018
    99  H    0.037537
   100  H    0.020791
   101  H    0.035462
   102  H    0.035879
   103  H    0.006566
   104  H    0.009982
   105  H    0.016147
   106  H    0.006558
   107  H    0.043596
   108  H    0.002087
   109  H   -0.014205
   110  H    0.004307
   111  H   -0.002786
   112  H   -0.006299
   113  H   -0.007330
   114  H    0.002736
   115  H   -0.005092
   116  H    0.007122
   117  H    0.002407
   118  H   -0.001168
   119  H   -0.011439
   120  H   -0.013896
   121  H    0.002672
   122  H   -0.006395
   123  H    0.000977
   124  H   -0.010731
   125  H    0.006664
   126  H    0.007620
   127  H    0.000288
   128  H    0.001880
   129  H   -0.013872
   130  H   -0.003536
   131  H    0.000991
   132  H   -0.009475
   133  H   -0.008514
   134  H    0.004892
   135  H    0.005081
   136  H    0.008598
   137  H    0.012814
   138  H    0.005335
   139  H    0.012848
   140  H    0.003685
 Sum of Mulliken charges =  -0.00000

 Dipole moment (field-independent basis, Debye):
    X=             -3.8941    Y=              2.0874    Z=              4.8116  Tot=              6.5325
 Quadrupole moment (field-independent basis, Debye-Ang):
   XX=           -368.1258   YY=           -430.9694   ZZ=           -412.1616
   XY=             15.6228   XZ=             22.6095   YZ=             -6.6458

 Normal termination of Gaussian 16 at Wed May  4 06:53:02 2022.
