 Gaussian 16, Revision A.03,
 Gaussian 16:  ES64L-G16RevA.03 25-Dec-2016

 ---------------------------------
 #p PBE1PBE/Def2SVP td=(nstates=5)
 ---------------------------------

 -----------------------------------------------------
 step_1451_chromophore_3 TDDFT with PBE1PBE functional
 -----------------------------------------------------
 Symbolic Z-matrix:
 Charge =  0 Multiplicity = 1

                         Standard orientation:
 ---------------------------------------------------------------------
 Center     Atomic      Atomic             Coordinates (Angstroms)
 Number     Number       Type             X           Y           Z
 ---------------------------------------------------------------------
      1         12           0        5.064784    1.022931    0.305805
      2          6           0        4.187298   -2.284977   -0.178898
      3          6           0        1.836402    1.946803    0.150795
      4          6           0        6.177662    4.172074   -0.048086
      5          6           0        8.509912    0.002314    0.121143
      6          7           0        3.230201   -0.086648    0.009589
      7          6           0        3.048389   -1.392552   -0.033396
      8          6           0        1.572454   -1.805507   -0.006019
      9          6           0        0.851299   -0.392614   -0.149538
     10          6           0        2.032953    0.566394    0.085189
     11          6           0        0.038011   -0.205028   -1.444048
     12          6           0        1.266919   -2.574100    1.288633
     13          6           0        0.493629   -3.918133    1.150670
     14          6           0       -0.528682   -4.071596    0.002631
     15          8           0       -0.436083   -4.871228   -0.908808
     16          8           0       -1.690166   -3.339431    0.218268
     17          7           0        4.130254    2.806750    0.097920
     18          6           0        2.773158    3.021880    0.135901
     19          6           0        2.535143    4.427771   -0.008832
     20          6           0        3.807994    5.119808   -0.242052
     21          6           0        4.784460    3.992858   -0.154152
     22          6           0        1.072212    4.869755   -0.134839
     23          6           0        4.112219    6.601599   -0.557270
     24          8           0        5.256004    6.977417   -0.841604
     25          6           0        3.027487    7.674059   -0.404217
     26          7           0        7.037531    1.978499    0.184109
     27          6           0        7.208367    3.314833    0.062086
     28          6           0        8.724311    3.728561    0.214460
     29          6           0        9.445262    2.359082    0.415851
     30          6           0        8.227374    1.315790    0.250169
     31          6           0        9.287412    4.610454   -0.955834
     32          6           0       10.043474    2.323748    1.835952
     33          6           0       11.285873    1.381544    1.963816
     34          7           0        6.149561   -0.713075    0.034028
     35          6           0        7.524511   -0.976903   -0.031205
     36          6           0        7.773527   -2.383527   -0.214366
     37          6           0        6.476892   -2.942855   -0.219781
     38          6           0        5.543196   -1.878966   -0.100007
     39          6           0        9.079054   -2.914743   -0.234358
     40          6           0        5.711220   -4.219492   -0.317125
     41          8           0        6.098732   -5.347343   -0.646702
     42          6           0        4.224979   -3.818592   -0.046450
     43          6           0        3.405393   -4.608985   -0.987462
     44          8           0        3.151681   -4.409916   -2.174739
     45          8           0        3.114570   -5.820086   -0.413329
     46          6           0        2.385974   -6.836516   -1.152884
     47          6           0       -2.792550   -3.512779   -0.665034
     48          6           0       -4.074902   -3.109848    0.083117
     49          6           0       -5.298388   -3.668133   -0.147627
     50          6           0       -5.821715   -4.579455   -1.321557
     51          6           0       -6.248269   -3.330402    1.035716
     52          6           0       -7.386862   -2.414565    0.782298
     53          6           0       -7.607036   -1.410778    1.989901
     54          6           0       -9.121763   -1.429611    2.452664
     55          6           0       -9.135303   -1.484057    4.006572
     56          6           0       -9.935546   -0.201597    1.943657
     57          6           0      -11.168317   -0.734177    1.234585
     58          6           0      -10.906630   -0.784287   -0.285561
     59          6           0      -11.850255    0.154920   -1.097430
     60          6           0      -12.321617   -0.508104   -2.466790
     61          6           0      -11.192479    1.519430   -1.318943
     62          6           0      -12.133896    2.647047   -1.637676
     63          6           0      -12.747502    3.391824   -0.408382
     64          6           0      -12.325662    4.916541   -0.352826
     65          6           0      -12.449666    5.535564    1.107469
     66          6           0      -13.295133    5.670855   -1.291342
     67          1           0        0.774487    2.155539    0.004038
     68          1           0        6.378864    5.245387   -0.019777
     69          1           0        9.549770   -0.316019    0.220907
     70          1           0        1.398301   -2.286480   -0.968895
     71          1           0        0.059761   -0.255569    0.586768
     72          1           0        0.612908    0.542267   -1.988846
     73          1           0       -0.977928    0.176252   -1.342489
     74          1           0       -0.040216   -1.156174   -1.970691
     75          1           0        0.713577   -1.863072    1.903062
     76          1           0        2.263165   -2.700419    1.712647
     77          1           0       -0.181326   -4.037956    1.998765
     78          1           0        1.124673   -4.788558    0.972668
     79          1           0        0.653530    5.107660    0.843215
     80          1           0        0.536796    4.029900   -0.575189
     81          1           0        1.072025    5.694986   -0.847835
     82          1           0        2.073158    7.514633   -0.907096
     83          1           0        3.360585    8.627514   -0.815438
     84          1           0        2.755471    7.805081    0.643615
     85          1           0        8.616746    4.304311    1.134064
     86          1           0       10.220787    2.072229   -0.293904
     87          1           0        8.562884    4.927591   -1.705889
     88          1           0       10.114493    4.150288   -1.496705
     89          1           0        9.558488    5.573001   -0.522510
     90          1           0        9.256727    1.955507    2.494767
     91          1           0       10.240556    3.314000    2.246883
     92          1           0       12.117057    2.072253    2.100625
     93          1           0       11.475401    0.867142    1.021566
     94          1           0       11.138004    0.746933    2.836789
     95          1           0        9.203535   -3.997763   -0.248083
     96          1           0        9.555287   -2.448770    0.627967
     97          1           0        9.589487   -2.592913   -1.142111
     98          1           0        4.030481   -4.216295    0.949317
     99          1           0        1.338786   -6.627882   -1.370132
    100          1           0        2.315842   -7.764817   -0.586740
    101          1           0        2.864824   -7.040993   -2.110927
    102          1           0       -2.943734   -4.495116   -1.114054
    103          1           0       -2.521463   -2.744371   -1.389498
    104          1           0       -3.873453   -2.424179    0.905819
    105          1           0       -6.295602   -5.467689   -0.904605
    106          1           0       -5.013416   -5.053754   -1.876446
    107          1           0       -6.504479   -4.114090   -2.032122
    108          1           0       -5.594101   -3.195629    1.896712
    109          1           0       -6.732304   -4.261492    1.332343
    110          1           0       -8.237481   -3.041754    0.514811
    111          1           0       -7.132718   -1.835769   -0.105589
    112          1           0       -7.248197   -0.434563    1.666204
    113          1           0       -6.893021   -1.644516    2.780169
    114          1           0       -9.525509   -2.395247    2.147208
    115          1           0      -10.101241   -1.124046    4.361926
    116          1           0       -8.410536   -0.876991    4.549008
    117          1           0       -9.010826   -2.498257    4.385527
    118          1           0       -9.333197    0.432201    1.292676
    119          1           0      -10.265518    0.432415    2.766567
    120          1           0      -11.959171   -0.012480    1.437526
    121          1           0      -11.559072   -1.680435    1.607649
    122          1           0      -11.004088   -1.846380   -0.506777
    123          1           0       -9.942209   -0.332601   -0.520430
    124          1           0      -12.752837    0.227898   -0.491814
    125          1           0      -12.077898   -1.568139   -2.539465
    126          1           0      -11.975651    0.074931   -3.319968
    127          1           0      -13.409980   -0.459665   -2.497520
    128          1           0      -10.360467    1.418736   -2.015935
    129          1           0      -10.768600    1.779413   -0.349482
    130          1           0      -12.978778    2.307929   -2.236776
    131          1           0      -11.466570    3.329473   -2.165071
    132          1           0      -12.525858    2.841321    0.505699
    133          1           0      -13.830989    3.326027   -0.512162
    134          1           0      -11.313392    5.105722   -0.709927
    135          1           0      -12.481388    4.773925    1.887488
    136          1           0      -13.391176    6.084049    1.129046
    137          1           0      -11.564346    6.147841    1.276938
    138          1           0      -13.484148    5.034208   -2.155666
    139          1           0      -12.900173    6.667616   -1.487113
    140          1           0      -14.305022    5.809734   -0.906886
 ---------------------------------------------------------------------

 SCF Done:  E(RPBE1PBE) =  -3005.35583185     A.U. after   15 cycles

 Excitation energies and oscillator strengths:

 Excited State   1:      Singlet-A      1.8857 eV  657.49 nm  f=0.3861  <S**2>=0.000
     245 -> 248        0.17665
     246 -> 247        0.69270
     246 <- 247       -0.10767
 This state for optimization and/or second-order correction.
 Total Energy, E(TD-HF/TD-DFT) =  -3005.28653253
 Copying the excited state density for this state as the 1-particle RhoCI density.

 Excited State   2:      Singlet-A      2.2582 eV  549.04 nm  f=0.1226  <S**2>=0.000
     245 -> 247        0.65482
     246 -> 248       -0.25460

 Excited State   3:      Singlet-A      2.9723 eV  417.13 nm  f=0.0004  <S**2>=0.000
     240 -> 247        0.13097
     241 -> 247       -0.18313
     242 -> 247       -0.43827
     244 -> 247        0.47601

 Excited State   4:      Singlet-A      3.0856 eV  401.81 nm  f=0.0027  <S**2>=0.000
     240 -> 247       -0.24296
     241 -> 247        0.18041
     242 -> 247        0.35470
     244 -> 247        0.50200
     246 -> 248        0.10485

 Excited State   5:      Singlet-A      3.1963 eV  387.90 nm  f=0.0012  <S**2>=0.000
     239 -> 247        0.12434
     240 -> 247        0.17950
     240 -> 249        0.13106
     241 -> 247        0.60551
     242 -> 247       -0.20202

 The electronic state is 1-A.
 Alpha  occ. eigenvalues --  -46.91589 -19.25513 -19.24273 -19.20649 -19.19640
 Alpha  occ. eigenvalues --  -19.19426 -19.18701 -14.42088 -14.40965 -14.39188
 Alpha  occ. eigenvalues --  -14.39083 -10.36893 -10.35382 -10.33228 -10.32881
 Alpha  occ. eigenvalues --  -10.29534 -10.28970 -10.28647 -10.28179 -10.27976
 Alpha  occ. eigenvalues --  -10.27547 -10.27381 -10.27315 -10.26928 -10.26761
 Alpha  occ. eigenvalues --  -10.26468 -10.26434 -10.26149 -10.25987 -10.25824
 Alpha  occ. eigenvalues --  -10.25823 -10.25805 -10.25802 -10.25569 -10.25559
 Alpha  occ. eigenvalues --  -10.25507 -10.25348 -10.25011 -10.24563 -10.24191
 Alpha  occ. eigenvalues --  -10.24082 -10.23968 -10.23950 -10.23798 -10.23651
 Alpha  occ. eigenvalues --  -10.23622 -10.23547 -10.23481 -10.23392 -10.23187
 Alpha  occ. eigenvalues --  -10.23133 -10.22847 -10.22826 -10.22695 -10.22628
 Alpha  occ. eigenvalues --  -10.22573 -10.22454 -10.22311 -10.22282 -10.22273
 Alpha  occ. eigenvalues --  -10.22028 -10.22010 -10.21969 -10.21866 -10.21803
 Alpha  occ. eigenvalues --  -10.21786  -3.13842  -1.86682  -1.86197  -1.86089
 Alpha  occ. eigenvalues --   -1.11529  -1.09708  -1.04233  -1.03898  -1.03388
 Alpha  occ. eigenvalues --   -1.00584  -0.99922  -0.98721  -0.97544  -0.96558
 Alpha  occ. eigenvalues --   -0.86819  -0.84524  -0.84288  -0.83836  -0.83589
 Alpha  occ. eigenvalues --   -0.82674  -0.82582  -0.82375  -0.81980  -0.81059
 Alpha  occ. eigenvalues --   -0.80345  -0.79839  -0.78728  -0.78069  -0.77280
 Alpha  occ. eigenvalues --   -0.76698  -0.75978  -0.75472  -0.75020  -0.74476
 Alpha  occ. eigenvalues --   -0.74004  -0.72974  -0.72290  -0.70822  -0.70420
 Alpha  occ. eigenvalues --   -0.70163  -0.69383  -0.69287  -0.68773  -0.68279
 Alpha  occ. eigenvalues --   -0.67688  -0.67222  -0.66098  -0.65379  -0.63108
 Alpha  occ. eigenvalues --   -0.62785  -0.62589  -0.61609  -0.60726  -0.60395
 Alpha  occ. eigenvalues --   -0.60059  -0.59546  -0.59474  -0.58788  -0.58315
 Alpha  occ. eigenvalues --   -0.58038  -0.57796  -0.56353  -0.56016  -0.54778
 Alpha  occ. eigenvalues --   -0.54534  -0.54272  -0.53759  -0.53332  -0.52082
 Alpha  occ. eigenvalues --   -0.51767  -0.51311  -0.50737  -0.50393  -0.50003
 Alpha  occ. eigenvalues --   -0.49511  -0.49263  -0.48840  -0.48542  -0.48465
 Alpha  occ. eigenvalues --   -0.48023  -0.47791  -0.47524  -0.47346  -0.47251
 Alpha  occ. eigenvalues --   -0.46991  -0.46659  -0.46453  -0.46334  -0.46067
 Alpha  occ. eigenvalues --   -0.45921  -0.45645  -0.45509  -0.45396  -0.45252
 Alpha  occ. eigenvalues --   -0.44810  -0.44755  -0.44601  -0.44202  -0.44141
 Alpha  occ. eigenvalues --   -0.44109  -0.43982  -0.43820  -0.43490  -0.43257
 Alpha  occ. eigenvalues --   -0.43018  -0.43005  -0.42843  -0.42563  -0.42460
 Alpha  occ. eigenvalues --   -0.42398  -0.42126  -0.41923  -0.41685  -0.41520
 Alpha  occ. eigenvalues --   -0.41098  -0.41067  -0.40848  -0.40692  -0.40525
 Alpha  occ. eigenvalues --   -0.40368  -0.40035  -0.39985  -0.39886  -0.39746
 Alpha  occ. eigenvalues --   -0.39627  -0.39267  -0.39171  -0.38997  -0.38897
 Alpha  occ. eigenvalues --   -0.38633  -0.38547  -0.38171  -0.38011  -0.37900
 Alpha  occ. eigenvalues --   -0.37431  -0.37336  -0.37236  -0.37032  -0.36873
 Alpha  occ. eigenvalues --   -0.36803  -0.36630  -0.36587  -0.36305  -0.36108
 Alpha  occ. eigenvalues --   -0.35986  -0.35376  -0.35048  -0.34982  -0.34834
 Alpha  occ. eigenvalues --   -0.34425  -0.34243  -0.33686  -0.33665  -0.33613
 Alpha  occ. eigenvalues --   -0.33267  -0.33180  -0.32708  -0.32575  -0.32075
 Alpha  occ. eigenvalues --   -0.31850  -0.31734  -0.31644  -0.31400  -0.31058
 Alpha  occ. eigenvalues --   -0.30559  -0.30122  -0.29971  -0.29080  -0.28956
 Alpha  occ. eigenvalues --   -0.28934  -0.28914  -0.27766  -0.27003  -0.26160
 Alpha  occ. eigenvalues --   -0.26070  -0.25632  -0.25312  -0.25302  -0.21127
 Alpha  occ. eigenvalues --   -0.18981
 Alpha virt. eigenvalues --   -0.11288  -0.05051  -0.04079  -0.02326  -0.00572
 Alpha virt. eigenvalues --   -0.00442   0.00693   0.00886   0.01815   0.03220
 Alpha virt. eigenvalues --    0.04304   0.04831   0.05378   0.05718   0.06071

 Mulliken charges:
               1
     1  Mg   0.987542
     2  C    0.048147
     3  C   -0.060542
     4  C   -0.070774
     5  C   -0.100991
     6  N   -0.369165
     7  C    0.015443
     8  C   -0.152312
     9  C   -0.138277
    10  C    0.054907
    11  C   -0.001869
    12  C    0.076936
    13  C    0.006265
    14  C    0.193208
    15  O   -0.250054
    16  O   -0.386851
    17  N   -0.525751
    18  C    0.194357
    19  C   -0.187492
    20  C   -0.106440
    21  C    0.156786
    22  C    0.047058
    23  C    0.091965
    24  O   -0.251534
    25  C   -0.042384
    26  N   -0.375357
    27  C    0.077571
    28  C   -0.074663
    29  C   -0.137296
    30  C    0.115631
    31  C    0.012586
    32  C   -0.043226
    33  C   -0.059285
    34  N   -0.477277
    35  C    0.147441
    36  C   -0.178098
    37  C   -0.046867
    38  C    0.143872
    39  C    0.058988
    40  C    0.168473
    41  O   -0.214456
    42  C   -0.161721
    43  C    0.274600
    44  O   -0.256511
    45  O   -0.373425
    46  C    0.128231
    47  C    0.249270
    48  C   -0.150432
    49  C   -0.185572
    50  C    0.012012
    51  C   -0.035290
    52  C   -0.021224
    53  C   -0.001488
    54  C   -0.189385
    55  C   -0.030703
    56  C    0.019530
    57  C   -0.070732
    58  C    0.004976
    59  C   -0.230064
    60  C   -0.007173
    61  C   -0.038586
    62  C   -0.004175
    63  C   -0.028831
    64  C   -0.245519
    65  C   -0.013579
    66  C   -0.027959
    67  H   -0.001559
    68  H    0.024989
    69  H    0.000416
    70  H    0.086736
    71  H    0.042273
    72  H    0.049436
    73  H    0.041764
    74  H    0.056609
    75  H    0.042671
    76  H    0.056274
    77  H    0.065424
    78  H    0.075695
    79  H    0.063213
    80  H    0.048769
    81  H    0.045949
    82  H    0.047956
    83  H    0.055529
    84  H    0.068097
    85  H    0.055649
    86  H    0.043140
    87  H    0.051985
    88  H    0.044728
    89  H    0.040408
    90  H    0.031377
    91  H    0.042705
    92  H    0.045066
    93  H    0.043991
    94  H    0.053611
    95  H    0.059599
    96  H    0.059832
    97  H    0.055699
    98  H    0.086638
    99  H    0.061320
   100  H    0.043255
   101  H    0.057527
   102  H    0.061429
   103  H    0.037223
   104  H    0.038593
   105  H    0.042909
   106  H    0.033323
   107  H    0.069451
   108  H    0.032148
   109  H    0.021162
   110  H    0.034727
   111  H    0.031406
   112  H    0.025335
   113  H    0.024080
   114  H    0.039650
   115  H    0.023396
   116  H    0.034329
   117  H    0.030794
   118  H    0.028945
   119  H    0.020646
   120  H    0.019459
   121  H    0.034428
   122  H    0.025064
   123  H    0.035358
   124  H    0.027979
   125  H    0.033680
   126  H    0.034720
   127  H    0.027733
   128  H    0.033421
   129  H    0.024577
   130  H    0.029086
   131  H    0.033394
   132  H    0.021962
   133  H    0.024553
   134  H    0.041046
   135  H    0.032114
   136  H    0.035466
   137  H    0.040246
   138  H    0.034606
   139  H    0.041191
   140  H    0.031128
 Sum of Mulliken charges =  -0.00000

 Dipole moment (field-independent basis, Debye):
    X=             -4.0597    Y=              2.4641    Z=              4.8599  Tot=              6.7949
 Quadrupole moment (field-independent basis, Debye-Ang):
   XX=           -363.5810   YY=           -427.3014   ZZ=           -409.7653
   XY=             17.9742   XZ=             22.8108   YZ=             -6.4776

 Normal termination of Gaussian 16 at Wed May  4 07:14:28 2022.
