 Gaussian 16, Revision A.03,
 Gaussian 16:  ES64L-G16RevA.03 25-Dec-2016

 --------------------------------
 #p wB97XD/Def2SVP td=(nstates=5)
 --------------------------------

 ----------------------------------------------------
 step_1451_chromophore_3 TDDFT with wB97XD functional
 ----------------------------------------------------
 Symbolic Z-matrix:
 Charge =  0 Multiplicity = 1

                         Standard orientation:
 ---------------------------------------------------------------------
 Center     Atomic      Atomic             Coordinates (Angstroms)
 Number     Number       Type             X           Y           Z
 ---------------------------------------------------------------------
      1         12           0        5.064784    1.022931    0.305805
      2          6           0        4.187298   -2.284977   -0.178898
      3          6           0        1.836402    1.946803    0.150795
      4          6           0        6.177662    4.172074   -0.048086
      5          6           0        8.509912    0.002314    0.121143
      6          7           0        3.230201   -0.086648    0.009589
      7          6           0        3.048389   -1.392552   -0.033396
      8          6           0        1.572454   -1.805507   -0.006019
      9          6           0        0.851299   -0.392614   -0.149538
     10          6           0        2.032953    0.566394    0.085189
     11          6           0        0.038011   -0.205028   -1.444048
     12          6           0        1.266919   -2.574100    1.288633
     13          6           0        0.493629   -3.918133    1.150670
     14          6           0       -0.528682   -4.071596    0.002631
     15          8           0       -0.436083   -4.871228   -0.908808
     16          8           0       -1.690166   -3.339431    0.218268
     17          7           0        4.130254    2.806750    0.097920
     18          6           0        2.773158    3.021880    0.135901
     19          6           0        2.535143    4.427771   -0.008832
     20          6           0        3.807994    5.119808   -0.242052
     21          6           0        4.784460    3.992858   -0.154152
     22          6           0        1.072212    4.869755   -0.134839
     23          6           0        4.112219    6.601599   -0.557270
     24          8           0        5.256004    6.977417   -0.841604
     25          6           0        3.027487    7.674059   -0.404217
     26          7           0        7.037531    1.978499    0.184109
     27          6           0        7.208367    3.314833    0.062086
     28          6           0        8.724311    3.728561    0.214460
     29          6           0        9.445262    2.359082    0.415851
     30          6           0        8.227374    1.315790    0.250169
     31          6           0        9.287412    4.610454   -0.955834
     32          6           0       10.043474    2.323748    1.835952
     33          6           0       11.285873    1.381544    1.963816
     34          7           0        6.149561   -0.713075    0.034028
     35          6           0        7.524511   -0.976903   -0.031205
     36          6           0        7.773527   -2.383527   -0.214366
     37          6           0        6.476892   -2.942855   -0.219781
     38          6           0        5.543196   -1.878966   -0.100007
     39          6           0        9.079054   -2.914743   -0.234358
     40          6           0        5.711220   -4.219492   -0.317125
     41          8           0        6.098732   -5.347343   -0.646702
     42          6           0        4.224979   -3.818592   -0.046450
     43          6           0        3.405393   -4.608985   -0.987462
     44          8           0        3.151681   -4.409916   -2.174739
     45          8           0        3.114570   -5.820086   -0.413329
     46          6           0        2.385974   -6.836516   -1.152884
     47          6           0       -2.792550   -3.512779   -0.665034
     48          6           0       -4.074902   -3.109848    0.083117
     49          6           0       -5.298388   -3.668133   -0.147627
     50          6           0       -5.821715   -4.579455   -1.321557
     51          6           0       -6.248269   -3.330402    1.035716
     52          6           0       -7.386862   -2.414565    0.782298
     53          6           0       -7.607036   -1.410778    1.989901
     54          6           0       -9.121763   -1.429611    2.452664
     55          6           0       -9.135303   -1.484057    4.006572
     56          6           0       -9.935546   -0.201597    1.943657
     57          6           0      -11.168317   -0.734177    1.234585
     58          6           0      -10.906630   -0.784287   -0.285561
     59          6           0      -11.850255    0.154920   -1.097430
     60          6           0      -12.321617   -0.508104   -2.466790
     61          6           0      -11.192479    1.519430   -1.318943
     62          6           0      -12.133896    2.647047   -1.637676
     63          6           0      -12.747502    3.391824   -0.408382
     64          6           0      -12.325662    4.916541   -0.352826
     65          6           0      -12.449666    5.535564    1.107469
     66          6           0      -13.295133    5.670855   -1.291342
     67          1           0        0.774487    2.155539    0.004038
     68          1           0        6.378864    5.245387   -0.019777
     69          1           0        9.549770   -0.316019    0.220907
     70          1           0        1.398301   -2.286480   -0.968895
     71          1           0        0.059761   -0.255569    0.586768
     72          1           0        0.612908    0.542267   -1.988846
     73          1           0       -0.977928    0.176252   -1.342489
     74          1           0       -0.040216   -1.156174   -1.970691
     75          1           0        0.713577   -1.863072    1.903062
     76          1           0        2.263165   -2.700419    1.712647
     77          1           0       -0.181326   -4.037956    1.998765
     78          1           0        1.124673   -4.788558    0.972668
     79          1           0        0.653530    5.107660    0.843215
     80          1           0        0.536796    4.029900   -0.575189
     81          1           0        1.072025    5.694986   -0.847835
     82          1           0        2.073158    7.514633   -0.907096
     83          1           0        3.360585    8.627514   -0.815438
     84          1           0        2.755471    7.805081    0.643615
     85          1           0        8.616746    4.304311    1.134064
     86          1           0       10.220787    2.072229   -0.293904
     87          1           0        8.562884    4.927591   -1.705889
     88          1           0       10.114493    4.150288   -1.496705
     89          1           0        9.558488    5.573001   -0.522510
     90          1           0        9.256727    1.955507    2.494767
     91          1           0       10.240556    3.314000    2.246883
     92          1           0       12.117057    2.072253    2.100625
     93          1           0       11.475401    0.867142    1.021566
     94          1           0       11.138004    0.746933    2.836789
     95          1           0        9.203535   -3.997763   -0.248083
     96          1           0        9.555287   -2.448770    0.627967
     97          1           0        9.589487   -2.592913   -1.142111
     98          1           0        4.030481   -4.216295    0.949317
     99          1           0        1.338786   -6.627882   -1.370132
    100          1           0        2.315842   -7.764817   -0.586740
    101          1           0        2.864824   -7.040993   -2.110927
    102          1           0       -2.943734   -4.495116   -1.114054
    103          1           0       -2.521463   -2.744371   -1.389498
    104          1           0       -3.873453   -2.424179    0.905819
    105          1           0       -6.295602   -5.467689   -0.904605
    106          1           0       -5.013416   -5.053754   -1.876446
    107          1           0       -6.504479   -4.114090   -2.032122
    108          1           0       -5.594101   -3.195629    1.896712
    109          1           0       -6.732304   -4.261492    1.332343
    110          1           0       -8.237481   -3.041754    0.514811
    111          1           0       -7.132718   -1.835769   -0.105589
    112          1           0       -7.248197   -0.434563    1.666204
    113          1           0       -6.893021   -1.644516    2.780169
    114          1           0       -9.525509   -2.395247    2.147208
    115          1           0      -10.101241   -1.124046    4.361926
    116          1           0       -8.410536   -0.876991    4.549008
    117          1           0       -9.010826   -2.498257    4.385527
    118          1           0       -9.333197    0.432201    1.292676
    119          1           0      -10.265518    0.432415    2.766567
    120          1           0      -11.959171   -0.012480    1.437526
    121          1           0      -11.559072   -1.680435    1.607649
    122          1           0      -11.004088   -1.846380   -0.506777
    123          1           0       -9.942209   -0.332601   -0.520430
    124          1           0      -12.752837    0.227898   -0.491814
    125          1           0      -12.077898   -1.568139   -2.539465
    126          1           0      -11.975651    0.074931   -3.319968
    127          1           0      -13.409980   -0.459665   -2.497520
    128          1           0      -10.360467    1.418736   -2.015935
    129          1           0      -10.768600    1.779413   -0.349482
    130          1           0      -12.978778    2.307929   -2.236776
    131          1           0      -11.466570    3.329473   -2.165071
    132          1           0      -12.525858    2.841321    0.505699
    133          1           0      -13.830989    3.326027   -0.512162
    134          1           0      -11.313392    5.105722   -0.709927
    135          1           0      -12.481388    4.773925    1.887488
    136          1           0      -13.391176    6.084049    1.129046
    137          1           0      -11.564346    6.147841    1.276938
    138          1           0      -13.484148    5.034208   -2.155666
    139          1           0      -12.900173    6.667616   -1.487113
    140          1           0      -14.305022    5.809734   -0.906886
 ---------------------------------------------------------------------

 SCF Done:  E(RwB97XD) =  -3007.86625543     A.U. after   19 cycles

 Excitation energies and oscillator strengths:

 Excited State   1:      Singlet-A      1.6800 eV  738.00 nm  f=0.3938  <S**2>=0.000
     245 -> 248        0.18582
     246 -> 247        0.68364
     245 <- 248        0.11704
 This state for optimization and/or second-order correction.
 Total Energy, E(TD-HF/TD-DFT) =  -3007.80451648
 Copying the excited state density for this state as the 1-particle RhoCI density.

 Excited State   2:      Singlet-A      2.2008 eV  563.36 nm  f=0.1299  <S**2>=0.000
     245 -> 247        0.64305
     246 -> 248       -0.28073

 Excited State   3:      Singlet-A      3.3682 eV  368.11 nm  f=0.0022  <S**2>=0.000
     242 -> 247        0.54947
     242 -> 249       -0.11023
     244 -> 247       -0.36701

 Excited State   4:      Singlet-A      3.5036 eV  353.88 nm  f=0.0648  <S**2>=0.000
     239 -> 247        0.13636
     240 -> 247        0.21211
     242 -> 247        0.19064
     244 -> 247        0.49321
     246 -> 248        0.30013

 Excited State   5:      Singlet-A      3.5589 eV  348.38 nm  f=0.0316  <S**2>=0.000
     239 -> 247        0.19445
     240 -> 247        0.42551
     240 -> 249       -0.19605
     240 -> 250       -0.12432
     241 -> 247        0.23020
     242 -> 247       -0.22881
     244 -> 247       -0.14287
     246 -> 248       -0.22077

 The electronic state is 1-A.
 Alpha  occ. eigenvalues --  -46.94530 -19.30081 -19.28956 -19.25358 -19.24711
 Alpha  occ. eigenvalues --  -19.24021 -19.23562 -14.47199 -14.46026 -14.44158
 Alpha  occ. eigenvalues --  -14.43984 -10.43707 -10.42364 -10.39960 -10.39874
 Alpha  occ. eigenvalues --  -10.36005 -10.35457 -10.34763 -10.34613 -10.34057
 Alpha  occ. eigenvalues --  -10.33997 -10.33660 -10.33523 -10.33358 -10.33306
 Alpha  occ. eigenvalues --  -10.33028 -10.32872 -10.32349 -10.32306 -10.32300
 Alpha  occ. eigenvalues --  -10.32297 -10.32268 -10.32139 -10.31992 -10.31660
 Alpha  occ. eigenvalues --  -10.31605 -10.31588 -10.31357 -10.31017 -10.30509
 Alpha  occ. eigenvalues --  -10.30471 -10.30337 -10.30318 -10.30152 -10.30066
 Alpha  occ. eigenvalues --  -10.30060 -10.30028 -10.29978 -10.29802 -10.29553
 Alpha  occ. eigenvalues --  -10.29462 -10.29185 -10.29139 -10.29038 -10.28936
 Alpha  occ. eigenvalues --  -10.28860 -10.28822 -10.28681 -10.28644 -10.28633
 Alpha  occ. eigenvalues --  -10.28432 -10.28353 -10.28313 -10.28288 -10.28233
 Alpha  occ. eigenvalues --  -10.28207  -3.20624  -1.94217  -1.93731  -1.93621
 Alpha  occ. eigenvalues --   -1.18920  -1.17236  -1.11631  -1.11524  -1.10749
 Alpha  occ. eigenvalues --   -1.08089  -1.07356  -1.06243  -1.04873  -1.03760
 Alpha  occ. eigenvalues --   -0.94623  -0.92192  -0.91964  -0.91503  -0.91294
 Alpha  occ. eigenvalues --   -0.90362  -0.90241  -0.89928  -0.89570  -0.88721
 Alpha  occ. eigenvalues --   -0.87878  -0.87423  -0.86352  -0.85718  -0.84900
 Alpha  occ. eigenvalues --   -0.84335  -0.83674  -0.83110  -0.82655  -0.82130
 Alpha  occ. eigenvalues --   -0.81680  -0.80673  -0.79830  -0.78445  -0.78078
 Alpha  occ. eigenvalues --   -0.77812  -0.76984  -0.76981  -0.76452  -0.75937
 Alpha  occ. eigenvalues --   -0.75283  -0.74797  -0.73618  -0.72999  -0.70749
 Alpha  occ. eigenvalues --   -0.70337  -0.70225  -0.69069  -0.68313  -0.67885
 Alpha  occ. eigenvalues --   -0.67598  -0.67131  -0.66952  -0.66258  -0.65962
 Alpha  occ. eigenvalues --   -0.65707  -0.65328  -0.63986  -0.63535  -0.62293
 Alpha  occ. eigenvalues --   -0.61970  -0.61723  -0.61127  -0.60745  -0.59677
 Alpha  occ. eigenvalues --   -0.59258  -0.58789  -0.58145  -0.57843  -0.57536
 Alpha  occ. eigenvalues --   -0.56824  -0.56698  -0.56330  -0.55939  -0.55900
 Alpha  occ. eigenvalues --   -0.55393  -0.55199  -0.54826  -0.54749  -0.54636
 Alpha  occ. eigenvalues --   -0.54415  -0.54054  -0.53893  -0.53765  -0.53451
 Alpha  occ. eigenvalues --   -0.53274  -0.53119  -0.52818  -0.52701  -0.52619
 Alpha  occ. eigenvalues --   -0.52124  -0.52040  -0.51871  -0.51529  -0.51422
 Alpha  occ. eigenvalues --   -0.51387  -0.51301  -0.51188  -0.50801  -0.50526
 Alpha  occ. eigenvalues --   -0.50385  -0.50314  -0.50136  -0.49818  -0.49716
 Alpha  occ. eigenvalues --   -0.49680  -0.49422  -0.49176  -0.48985  -0.48797
 Alpha  occ. eigenvalues --   -0.48348  -0.48253  -0.48124  -0.47926  -0.47702
 Alpha  occ. eigenvalues --   -0.47562  -0.47226  -0.47159  -0.47142  -0.46912
 Alpha  occ. eigenvalues --   -0.46803  -0.46443  -0.46354  -0.46187  -0.46096
 Alpha  occ. eigenvalues --   -0.45751  -0.45695  -0.45414  -0.45107  -0.45050
 Alpha  occ. eigenvalues --   -0.44628  -0.44412  -0.44250  -0.44167  -0.43942
 Alpha  occ. eigenvalues --   -0.43857  -0.43714  -0.43613  -0.43363  -0.43202
 Alpha  occ. eigenvalues --   -0.43108  -0.42465  -0.42288  -0.42043  -0.41924
 Alpha  occ. eigenvalues --   -0.41435  -0.41203  -0.40774  -0.40667  -0.40558
 Alpha  occ. eigenvalues --   -0.40292  -0.40139  -0.39727  -0.39461  -0.39093
 Alpha  occ. eigenvalues --   -0.38918  -0.38806  -0.38634  -0.38274  -0.38079
 Alpha  occ. eigenvalues --   -0.37481  -0.37246  -0.36938  -0.36109  -0.35811
 Alpha  occ. eigenvalues --   -0.35736  -0.35673  -0.34992  -0.33741  -0.33260
 Alpha  occ. eigenvalues --   -0.32988  -0.32445  -0.32047  -0.31676  -0.26117
 Alpha  occ. eigenvalues --   -0.23181
 Alpha virt. eigenvalues --   -0.07181   0.00411   0.02250   0.04140   0.05369
 Alpha virt. eigenvalues --    0.06165   0.07425   0.07504   0.08608   0.09672
 Alpha virt. eigenvalues --    0.10763   0.11676   0.12151   0.12501   0.12795

 Mulliken charges:
               1
     1  Mg   0.976426
     2  C    0.026358
     3  C   -0.068626
     4  C   -0.082177
     5  C   -0.122708
     6  N   -0.333386
     7  C   -0.006975
     8  C   -0.128226
     9  C   -0.116625
    10  C    0.039861
    11  C    0.009522
    12  C    0.087369
    13  C    0.032004
    14  C    0.176947
    15  O   -0.245564
    16  O   -0.384521
    17  N   -0.493387
    18  C    0.179111
    19  C   -0.179845
    20  C   -0.104265
    21  C    0.143392
    22  C    0.065119
    23  C    0.089421
    24  O   -0.247876
    25  C   -0.032395
    26  N   -0.341822
    27  C    0.063682
    28  C   -0.048955
    29  C   -0.108351
    30  C    0.107183
    31  C    0.022098
    32  C   -0.034603
    33  C   -0.042112
    34  N   -0.438723
    35  C    0.143975
    36  C   -0.164899
    37  C   -0.048279
    38  C    0.138544
    39  C    0.067227
    40  C    0.147725
    41  O   -0.203748
    42  C   -0.115352
    43  C    0.245698
    44  O   -0.247001
    45  O   -0.369853
    46  C    0.143503
    47  C    0.260887
    48  C   -0.155134
    49  C   -0.178825
    50  C    0.027155
    51  C   -0.013768
    52  C   -0.004995
    53  C    0.009806
    54  C   -0.160067
    55  C   -0.017795
    56  C    0.036087
    57  C   -0.052094
    58  C    0.022730
    59  C   -0.202970
    60  C    0.002829
    61  C   -0.012795
    62  C    0.007638
    63  C   -0.011180
    64  C   -0.216318
    65  C   -0.001921
    66  C   -0.015381
    67  H   -0.009450
    68  H    0.018274
    69  H   -0.008885
    70  H    0.072280
    71  H    0.032363
    72  H    0.042117
    73  H    0.037031
    74  H    0.049676
    75  H    0.037194
    76  H    0.045245
    77  H    0.060877
    78  H    0.063241
    79  H    0.058154
    80  H    0.041594
    81  H    0.036224
    82  H    0.042800
    83  H    0.053271
    84  H    0.063400
    85  H    0.044961
    86  H    0.031974
    87  H    0.046732
    88  H    0.038969
    89  H    0.034783
    90  H    0.022077
    91  H    0.035648
    92  H    0.039745
    93  H    0.036465
    94  H    0.048786
    95  H    0.058247
    96  H    0.054326
    97  H    0.051799
    98  H    0.078890
    99  H    0.055708
   100  H    0.040181
   101  H    0.054066
   102  H    0.055111
   103  H    0.032592
   104  H    0.035910
   105  H    0.037127
   106  H    0.027518
   107  H    0.065183
   108  H    0.022844
   109  H    0.011699
   110  H    0.026109
   111  H    0.021699
   112  H    0.018273
   113  H    0.014500
   114  H    0.025115
   115  H    0.015893
   116  H    0.028316
   117  H    0.025296
   118  H    0.017807
   119  H    0.013477
   120  H    0.009033
   121  H    0.027121
   122  H    0.017565
   123  H    0.019443
   124  H    0.013520
   125  H    0.028475
   126  H    0.028517
   127  H    0.021892
   128  H    0.026256
   129  H    0.006785
   130  H    0.020720
   131  H    0.024557
   132  H    0.010776
   133  H    0.015645
   134  H    0.030865
   135  H    0.026511
   136  H    0.028701
   137  H    0.035099
   138  H    0.026561
   139  H    0.036165
   140  H    0.023782
 Sum of Mulliken charges =  -0.00000

 Dipole moment (field-independent basis, Debye):
    X=             -3.9202    Y=              2.0088    Z=              4.9055  Tot=              6.5930
 Quadrupole moment (field-independent basis, Debye-Ang):
   XX=           -362.3337   YY=           -426.6674   ZZ=           -409.3535
   XY=             15.0596   XZ=             23.0087   YZ=             -6.5522

 Normal termination of Gaussian 16 at Wed May  4 07:40:23 2022.
