 Gaussian 16, Revision A.03,
 Gaussian 16:  ES64L-G16RevA.03 25-Dec-2016

 --------------------
 #p ZINDO=(nstates=5)
 --------------------

 -----------------------------
 step_1451_chromophore_3 ZINDO
 -----------------------------
 Symbolic Z-matrix:
 Charge =  0 Multiplicity = 1

                         Standard orientation:
 ---------------------------------------------------------------------
 Center     Atomic      Atomic             Coordinates (Angstroms)
 Number     Number       Type             X           Y           Z
 ---------------------------------------------------------------------
      1         12           0        5.064784    1.022931    0.305805
      2          6           0        4.187298   -2.284977   -0.178898
      3          6           0        1.836402    1.946803    0.150795
      4          6           0        6.177662    4.172074   -0.048086
      5          6           0        8.509912    0.002314    0.121143
      6          7           0        3.230201   -0.086648    0.009589
      7          6           0        3.048389   -1.392552   -0.033396
      8          6           0        1.572454   -1.805507   -0.006019
      9          6           0        0.851299   -0.392614   -0.149538
     10          6           0        2.032953    0.566394    0.085189
     11          6           0        0.038011   -0.205028   -1.444048
     12          6           0        1.266919   -2.574100    1.288633
     13          6           0        0.493629   -3.918133    1.150670
     14          6           0       -0.528682   -4.071596    0.002631
     15          8           0       -0.436083   -4.871228   -0.908808
     16          8           0       -1.690166   -3.339431    0.218268
     17          7           0        4.130254    2.806750    0.097920
     18          6           0        2.773158    3.021880    0.135901
     19          6           0        2.535143    4.427771   -0.008832
     20          6           0        3.807994    5.119808   -0.242052
     21          6           0        4.784460    3.992858   -0.154152
     22          6           0        1.072212    4.869755   -0.134839
     23          6           0        4.112219    6.601599   -0.557270
     24          8           0        5.256004    6.977417   -0.841604
     25          6           0        3.027487    7.674059   -0.404217
     26          7           0        7.037531    1.978499    0.184109
     27          6           0        7.208367    3.314833    0.062086
     28          6           0        8.724311    3.728561    0.214460
     29          6           0        9.445262    2.359082    0.415851
     30          6           0        8.227374    1.315790    0.250169
     31          6           0        9.287412    4.610454   -0.955834
     32          6           0       10.043474    2.323748    1.835952
     33          6           0       11.285873    1.381544    1.963816
     34          7           0        6.149561   -0.713075    0.034028
     35          6           0        7.524511   -0.976903   -0.031205
     36          6           0        7.773527   -2.383527   -0.214366
     37          6           0        6.476892   -2.942855   -0.219781
     38          6           0        5.543196   -1.878966   -0.100007
     39          6           0        9.079054   -2.914743   -0.234358
     40          6           0        5.711220   -4.219492   -0.317125
     41          8           0        6.098732   -5.347343   -0.646702
     42          6           0        4.224979   -3.818592   -0.046450
     43          6           0        3.405393   -4.608985   -0.987462
     44          8           0        3.151681   -4.409916   -2.174739
     45          8           0        3.114570   -5.820086   -0.413329
     46          6           0        2.385974   -6.836516   -1.152884
     47          6           0       -2.792550   -3.512779   -0.665034
     48          6           0       -4.074902   -3.109848    0.083117
     49          6           0       -5.298388   -3.668133   -0.147627
     50          6           0       -5.821715   -4.579455   -1.321557
     51          6           0       -6.248269   -3.330402    1.035716
     52          6           0       -7.386862   -2.414565    0.782298
     53          6           0       -7.607036   -1.410778    1.989901
     54          6           0       -9.121763   -1.429611    2.452664
     55          6           0       -9.135303   -1.484057    4.006572
     56          6           0       -9.935546   -0.201597    1.943657
     57          6           0      -11.168317   -0.734177    1.234585
     58          6           0      -10.906630   -0.784287   -0.285561
     59          6           0      -11.850255    0.154920   -1.097430
     60          6           0      -12.321617   -0.508104   -2.466790
     61          6           0      -11.192479    1.519430   -1.318943
     62          6           0      -12.133896    2.647047   -1.637676
     63          6           0      -12.747502    3.391824   -0.408382
     64          6           0      -12.325662    4.916541   -0.352826
     65          6           0      -12.449666    5.535564    1.107469
     66          6           0      -13.295133    5.670855   -1.291342
     67          1           0        0.774487    2.155539    0.004038
     68          1           0        6.378864    5.245387   -0.019777
     69          1           0        9.549770   -0.316019    0.220907
     70          1           0        1.398301   -2.286480   -0.968895
     71          1           0        0.059761   -0.255569    0.586768
     72          1           0        0.612908    0.542267   -1.988846
     73          1           0       -0.977928    0.176252   -1.342489
     74          1           0       -0.040216   -1.156174   -1.970691
     75          1           0        0.713577   -1.863072    1.903062
     76          1           0        2.263165   -2.700419    1.712647
     77          1           0       -0.181326   -4.037956    1.998765
     78          1           0        1.124673   -4.788558    0.972668
     79          1           0        0.653530    5.107660    0.843215
     80          1           0        0.536796    4.029900   -0.575189
     81          1           0        1.072025    5.694986   -0.847835
     82          1           0        2.073158    7.514633   -0.907096
     83          1           0        3.360585    8.627514   -0.815438
     84          1           0        2.755471    7.805081    0.643615
     85          1           0        8.616746    4.304311    1.134064
     86          1           0       10.220787    2.072229   -0.293904
     87          1           0        8.562884    4.927591   -1.705889
     88          1           0       10.114493    4.150288   -1.496705
     89          1           0        9.558488    5.573001   -0.522510
     90          1           0        9.256727    1.955507    2.494767
     91          1           0       10.240556    3.314000    2.246883
     92          1           0       12.117057    2.072253    2.100625
     93          1           0       11.475401    0.867142    1.021566
     94          1           0       11.138004    0.746933    2.836789
     95          1           0        9.203535   -3.997763   -0.248083
     96          1           0        9.555287   -2.448770    0.627967
     97          1           0        9.589487   -2.592913   -1.142111
     98          1           0        4.030481   -4.216295    0.949317
     99          1           0        1.338786   -6.627882   -1.370132
    100          1           0        2.315842   -7.764817   -0.586740
    101          1           0        2.864824   -7.040993   -2.110927
    102          1           0       -2.943734   -4.495116   -1.114054
    103          1           0       -2.521463   -2.744371   -1.389498
    104          1           0       -3.873453   -2.424179    0.905819
    105          1           0       -6.295602   -5.467689   -0.904605
    106          1           0       -5.013416   -5.053754   -1.876446
    107          1           0       -6.504479   -4.114090   -2.032122
    108          1           0       -5.594101   -3.195629    1.896712
    109          1           0       -6.732304   -4.261492    1.332343
    110          1           0       -8.237481   -3.041754    0.514811
    111          1           0       -7.132718   -1.835769   -0.105589
    112          1           0       -7.248197   -0.434563    1.666204
    113          1           0       -6.893021   -1.644516    2.780169
    114          1           0       -9.525509   -2.395247    2.147208
    115          1           0      -10.101241   -1.124046    4.361926
    116          1           0       -8.410536   -0.876991    4.549008
    117          1           0       -9.010826   -2.498257    4.385527
    118          1           0       -9.333197    0.432201    1.292676
    119          1           0      -10.265518    0.432415    2.766567
    120          1           0      -11.959171   -0.012480    1.437526
    121          1           0      -11.559072   -1.680435    1.607649
    122          1           0      -11.004088   -1.846380   -0.506777
    123          1           0       -9.942209   -0.332601   -0.520430
    124          1           0      -12.752837    0.227898   -0.491814
    125          1           0      -12.077898   -1.568139   -2.539465
    126          1           0      -11.975651    0.074931   -3.319968
    127          1           0      -13.409980   -0.459665   -2.497520
    128          1           0      -10.360467    1.418736   -2.015935
    129          1           0      -10.768600    1.779413   -0.349482
    130          1           0      -12.978778    2.307929   -2.236776
    131          1           0      -11.466570    3.329473   -2.165071
    132          1           0      -12.525858    2.841321    0.505699
    133          1           0      -13.830989    3.326027   -0.512162
    134          1           0      -11.313392    5.105722   -0.709927
    135          1           0      -12.481388    4.773925    1.887488
    136          1           0      -13.391176    6.084049    1.129046
    137          1           0      -11.564346    6.147841    1.276938
    138          1           0      -13.484148    5.034208   -2.155666
    139          1           0      -12.900173    6.667616   -1.487113
    140          1           0      -14.305022    5.809734   -0.906886
 ---------------------------------------------------------------------

 SCF Done:  E(RZINDO/S) =  -474.227791622     A.U. after   20 cycles

 Excitation energies and oscillator strengths:

 Excited State   1:      Singlet-A      1.2973 eV  955.70 nm  f=0.6025  <S**2>=0.000
     175 ->178         0.17890
     176 ->177         0.66697
 This state for optimization and/or second-order correction.
 Total Energy, E(CIS/TDA) =  -474.180116452
 Copying the excited state density for this state as the 1-particle RhoCI density.

 Excited State   2:      Singlet-A      1.9583 eV  633.13 nm  f=0.0740  <S**2>=0.000
     175 ->177         0.56500
     176 ->178        -0.39087

 Excited State   3:      Singlet-A      2.9615 eV  418.65 nm  f=0.0201  <S**2>=0.000
     167 ->179         0.12559
     168 ->177         0.34837
     168 ->178        -0.14546
     168 ->179        -0.39318
     168 ->180         0.20672
     168 ->186        -0.18145
     168 ->195         0.10003

 Excited State   4:      Singlet-A      3.0543 eV  405.94 nm  f=0.8981  <S**2>=0.000
     169 ->180        -0.10198
     171 ->177         0.11043
     175 ->177         0.32270
     176 ->178         0.51570
     176 ->179         0.16538

 Excited State   5:      Singlet-A      3.0741 eV  403.32 nm  f=0.0715  <S**2>=0.000
     169 ->177         0.14100
     169 ->179         0.18252
     169 ->180         0.24946
     169 ->186         0.10697
     169 ->187         0.11960
     170 ->177         0.18004
     170 ->179         0.20539
     170 ->180         0.32125
     170 ->183        -0.10701
     170 ->186         0.13247
     170 ->187         0.12931
     176 ->178         0.14445
     176 ->179         0.15411

 The electronic state is 1-A.
 Alpha  occ. eigenvalues --   -1.85578  -1.80994  -1.79105  -1.73505  -1.72480
 Alpha  occ. eigenvalues --   -1.69863  -1.66562  -1.60025  -1.57504  -1.56195
 Alpha  occ. eigenvalues --   -1.54614  -1.50690  -1.48292  -1.48076  -1.47203
 Alpha  occ. eigenvalues --   -1.45147  -1.42977  -1.39883  -1.39516  -1.38053
 Alpha  occ. eigenvalues --   -1.37614  -1.35762  -1.32284  -1.30843  -1.28580
 Alpha  occ. eigenvalues --   -1.27287  -1.25200  -1.21426  -1.20330  -1.18316
 Alpha  occ. eigenvalues --   -1.18228  -1.16359  -1.15068  -1.14266  -1.12241
 Alpha  occ. eigenvalues --   -1.11917  -1.10237  -1.09633  -1.05024  -1.03782
 Alpha  occ. eigenvalues --   -1.03103  -1.01417  -0.98959  -0.98243  -0.97427
 Alpha  occ. eigenvalues --   -0.97268  -0.94154  -0.93747  -0.92643  -0.91835
 Alpha  occ. eigenvalues --   -0.91219  -0.89830  -0.89576  -0.88815  -0.86357
 Alpha  occ. eigenvalues --   -0.86252  -0.84595  -0.83678  -0.81841  -0.80117
 Alpha  occ. eigenvalues --   -0.79159  -0.78928  -0.77711  -0.76562  -0.76462
 Alpha  occ. eigenvalues --   -0.75513  -0.75016  -0.74472  -0.74318  -0.72960
 Alpha  occ. eigenvalues --   -0.72108  -0.71764  -0.71222  -0.71003  -0.70747
 Alpha  occ. eigenvalues --   -0.69893  -0.69223  -0.68784  -0.67995  -0.67414
 Alpha  occ. eigenvalues --   -0.67138  -0.66649  -0.66488  -0.66459  -0.65389
 Alpha  occ. eigenvalues --   -0.64999  -0.64525  -0.64226  -0.63729  -0.63645
 Alpha  occ. eigenvalues --   -0.63229  -0.62848  -0.62472  -0.62124  -0.61766
 Alpha  occ. eigenvalues --   -0.61288  -0.61003  -0.60861  -0.60463  -0.59844
 Alpha  occ. eigenvalues --   -0.59768  -0.59419  -0.59099  -0.58633  -0.58212
 Alpha  occ. eigenvalues --   -0.57670  -0.57598  -0.57463  -0.57135  -0.56907
 Alpha  occ. eigenvalues --   -0.56565  -0.56207  -0.55687  -0.55377  -0.55086
 Alpha  occ. eigenvalues --   -0.54710  -0.54670  -0.53898  -0.53008  -0.52809
 Alpha  occ. eigenvalues --   -0.52527  -0.52460  -0.52202  -0.52117  -0.51784
 Alpha  occ. eigenvalues --   -0.51247  -0.50744  -0.50614  -0.50228  -0.49937
 Alpha  occ. eigenvalues --   -0.49673  -0.49567  -0.49391  -0.49046  -0.48647
 Alpha  occ. eigenvalues --   -0.48336  -0.48317  -0.47953  -0.47682  -0.47571
 Alpha  occ. eigenvalues --   -0.47479  -0.47063  -0.46776  -0.46612  -0.46577
 Alpha  occ. eigenvalues --   -0.46238  -0.46038  -0.45555  -0.45502  -0.45276
 Alpha  occ. eigenvalues --   -0.45137  -0.44839  -0.44508  -0.44078  -0.43962
 Alpha  occ. eigenvalues --   -0.42918  -0.42900  -0.42601  -0.42247  -0.41970
 Alpha  occ. eigenvalues --   -0.41568  -0.41373  -0.40904  -0.39237  -0.38752
 Alpha  occ. eigenvalues --   -0.37954  -0.36916  -0.35971  -0.35066  -0.34713
 Alpha  occ. eigenvalues --   -0.33754  -0.32519  -0.32088  -0.31687  -0.26720
 Alpha  occ. eigenvalues --   -0.22015
 Alpha virt. eigenvalues --   -0.08599  -0.01767  -0.00441   0.01177   0.01879
 Alpha virt. eigenvalues --    0.02113   0.02789   0.03114   0.04247   0.04804
 Alpha virt. eigenvalues --    0.06436   0.06618   0.07458   0.07771   0.07971

 Mulliken charges:
               1
     1  Mg   0.423644
     2  C   -0.085802
     3  C   -0.064449
     4  C   -0.051751
     5  C   -0.068021
     6  N   -0.259588
     7  C    0.166867
     8  C   -0.000054
     9  C   -0.006002
    10  C    0.089257
    11  C   -0.053266
    12  C   -0.013868
    13  C    0.004437
    14  C    0.457718
    15  O   -0.505526
    16  O   -0.282567
    17  N   -0.313472
    18  C    0.076687
    19  C   -0.019101
    20  C   -0.073521
    21  C    0.122452
    22  C   -0.051446
    23  C    0.332882
    24  O   -0.526219
    25  C   -0.030216
    26  N   -0.276883
    27  C    0.114851
    28  C   -0.000248
    29  C   -0.004346
    30  C    0.146018
    31  C   -0.054570
    32  C   -0.034844
    33  C   -0.064334
    34  N   -0.329565
    35  C    0.113267
    36  C    0.066097
    37  C   -0.059769
    38  C    0.143223
    39  C   -0.026214
    40  C    0.336743
    41  O   -0.503088
    42  C    0.063889
    43  C    0.486697
    44  O   -0.520539
    45  O   -0.275101
    46  C    0.076112
    47  C    0.099507
    48  C   -0.089492
    49  C   -0.019876
    50  C   -0.038659
    51  C   -0.026586
    52  C   -0.028473
    53  C   -0.042002
    54  C   -0.010398
    55  C   -0.060841
    56  C   -0.026136
    57  C   -0.037292
    58  C   -0.043938
    59  C   -0.017620
    60  C   -0.066473
    61  C   -0.024902
    62  C   -0.036373
    63  C   -0.034894
    64  C   -0.016686
    65  C   -0.065172
    66  C   -0.057864
    67  H    0.024275
    68  H    0.040588
    69  H    0.033573
    70  H    0.054618
    71  H    0.022974
    72  H    0.024569
    73  H    0.021060
    74  H    0.027154
    75  H    0.030343
    76  H    0.028224
    77  H    0.041145
    78  H    0.051021
    79  H    0.033508
    80  H    0.027252
    81  H    0.024814
    82  H    0.030445
    83  H    0.032742
    84  H    0.036622
    85  H    0.039525
    86  H    0.036186
    87  H    0.028811
    88  H    0.023419
    89  H    0.019191
    90  H    0.013963
    91  H    0.024941
    92  H    0.017945
    93  H    0.025601
    94  H    0.027474
    95  H    0.034148
    96  H    0.033678
    97  H    0.035171
    98  H    0.058100
    99  H    0.047683
   100  H    0.026526
   101  H    0.046571
   102  H    0.060910
   103  H    0.040107
   104  H    0.041056
   105  H    0.023495
   106  H    0.022991
   107  H    0.038756
   108  H    0.026533
   109  H    0.007299
   110  H    0.025578
   111  H    0.013680
   112  H    0.018161
   113  H    0.020925
   114  H    0.030471
   115  H    0.008544
   116  H    0.019790
   117  H    0.012844
   118  H    0.024418
   119  H    0.015602
   120  H    0.007769
   121  H    0.024151
   122  H    0.021755
   123  H    0.025080
   124  H    0.019979
   125  H    0.022945
   126  H    0.022024
   127  H    0.011559
   128  H    0.021681
   129  H    0.009090
   130  H    0.022921
   131  H    0.016877
   132  H    0.018364
   133  H    0.016283
   134  H    0.027683
   135  H    0.018193
   136  H    0.024656
   137  H    0.020427
   138  H    0.016631
   139  H    0.017924
   140  H    0.016684
 Sum of Mulliken charges =  -0.00000

 Dipole moment (field-independent basis, Debye):
    X=             -3.8840    Y=              0.7891    Z=              7.6617  Tot=              8.6262
 N-N= 4.303034830043D+03 E-N= 0.000000000000D+00  KE=-9.280492950711D+03
 Leave Link  601 at Wed May  4 07:53:04 2022, MaxMem=  6710886400 cpu:               0.8 elap:               0.0
 (Enter /sw/apps/gaussian-16.0/g16/l9999.exe)
 1\1\GINC-BP1-COMPUTE057\SP\RZINDO CIS\STO-3G\C55H74Mg1N4O6\OF15641\04-
 May-2022\0\\#p ZINDO=(nstates=5)\\step_1451_chromophore_3 ZINDO\\0,1\M
 g,0,2.042,7.531,26.417\C,0,2.429,9.424,29.283\C,0,2.088,4.7,28.229\C,0
 ,2.499,5.903,23.515\C,0,2.342,10.574,24.521\N,0,2.245,7.145,28.537\C,0
 ,2.256,8.003,29.539\C,0,2.163,7.336,30.916\C,0,2.305,5.798,30.527\C,0,
 2.135,5.864,28.998\C,0,3.57,5.104,31.066\C,0,0.843,7.725,31.599\C,0,0.
 925,8.219,33.073\C,0,2.029,7.644,33.988\O,0,2.928,8.294,34.486\O,0,1.7

 Normal termination of Gaussian 16 at Wed May  4 07:53:05 2022.
