 Gaussian 16, Revision A.03,
 Gaussian 16:  ES64L-G16RevA.03 25-Dec-2016

 ------------------------------
 #p blyp/Def2SVP td=(nstates=5)
 ------------------------------

 ---------------------------------------------------
 step_1251_chromophore_27 TDDFT with blyp functional
 ---------------------------------------------------
 Symbolic Z-matrix:
 Charge =  0 Multiplicity = 1

                         Standard orientation:
 ---------------------------------------------------------------------
 Center     Atomic      Atomic             Coordinates (Angstroms)
 Number     Number       Type             X           Y           Z
 ---------------------------------------------------------------------
      1         12           0       -4.505417    0.854016    0.008100
      2          6           0       -3.758457   -2.656855    0.262237
      3          6           0       -1.236802    1.478089    0.122236
      4          6           0       -5.286379    4.113395   -0.040209
      5          6           0       -7.841068    0.110712    0.378434
      6          7           0       -2.732712   -0.450698    0.429207
      7          6           0       -2.635263   -1.827142    0.256184
      8          6           0       -1.153422   -2.283412    0.286251
      9          6           0       -0.446070   -0.890982    0.239861
     10          6           0       -1.480282    0.108775    0.342117
     11          6           0        0.597096   -0.733792    1.403584
     12          6           0       -0.687271   -3.154223   -0.968674
     13          6           0        0.278607   -4.239014   -0.692677
     14          6           0        1.395568   -4.411089   -1.740383
     15          8           0        1.220262   -4.942835   -2.866021
     16          8           0        2.614149   -3.987848   -1.240453
     17          7           0       -3.416195    2.632131    0.182619
     18          6           0       -2.100604    2.654537    0.065270
     19          6           0       -1.582266    4.014360   -0.020989
     20          6           0       -2.770969    4.822091   -0.150635
     21          6           0       -3.923586    3.860344   -0.062050
     22          6           0       -0.115510    4.396621   -0.068855
     23          6           0       -2.951666    6.296695   -0.330554
     24          8           0       -4.002086    6.901525   -0.157673
     25          6           0       -1.731242    7.155644   -0.533453
     26          7           0       -6.300300    1.945158    0.399696
     27          6           0       -6.377155    3.308716    0.246016
     28          6           0       -7.820294    3.790478    0.110265
     29          6           0       -8.732533    2.502072    0.210599
     30          6           0       -7.630910    1.478600    0.444906
     31          6           0       -8.322868    4.792752    1.224125
     32          6           0       -9.604011    2.214177   -1.075111
     33          6           0      -11.064673    1.964781   -0.797117
     34          7           0       -5.642137   -0.891532    0.204316
     35          6           0       -6.976300   -0.981209    0.324421
     36          6           0       -7.328824   -2.421273    0.416706
     37          6           0       -6.101826   -3.084581    0.270161
     38          6           0       -5.092218   -2.159105    0.197913
     39          6           0       -8.650790   -3.058362    0.699105
     40          6           0       -5.412300   -4.446503    0.298891
     41          8           0       -5.904063   -5.568954    0.454079
     42          6           0       -3.870840   -4.154442    0.282777
     43          6           0       -3.212750   -4.702809    1.448439
     44          8           0       -3.352660   -4.352977    2.652127
     45          8           0       -2.372955   -5.756912    1.014990
     46          6           0       -1.627545   -6.463236    2.039030
     47          6           0        3.831575   -4.228374   -2.070812
     48          6           0        4.412351   -2.894130   -2.258718
     49          6           0        5.598694   -2.511315   -1.789372
     50          6           0        6.460719   -3.333827   -0.881221
     51          6           0        5.983457   -1.026344   -1.992065
     52          6           0        6.310023   -0.729999   -3.490745
     53          6           0        7.628705    0.015271   -3.722875
     54          6           0        7.340096    1.510661   -3.930306
     55          6           0        6.999833    1.753827   -5.462299
     56          6           0        8.597599    2.269783   -3.430319
     57          6           0        8.568648    2.683719   -1.911980
     58          6           0        9.873765    2.197156   -1.180543
     59          6           0        9.514254    1.472436    0.126430
     60          6           0       10.255974    0.125600    0.203110
     61          6           0        9.766438    2.351762    1.379098
     62          6           0        9.232220    1.762287    2.755903
     63          6           0       10.349346    1.023092    3.666108
     64          6           0       10.264125    1.232937    5.264774
     65          6           0       11.573614    0.765229    6.024748
     66          6           0        8.987744    0.702378    5.839638
     67          1           0       -0.182081    1.748513    0.040705
     68          1           0       -5.618730    5.128947   -0.266463
     69          1           0       -8.831442   -0.346791    0.400082
     70          1           0       -0.898326   -2.661905    1.275298
     71          1           0        0.030498   -0.733344   -0.727347
     72          1           0        1.172802    0.157712    1.155414
     73          1           0        1.184078   -1.642460    1.541402
     74          1           0        0.116505   -0.675641    2.379756
     75          1           0       -0.292776   -2.604610   -1.823188
     76          1           0       -1.569572   -3.598395   -1.429627
     77          1           0       -0.311011   -5.154858   -0.751382
     78          1           0        0.782443   -4.172300    0.271518
     79          1           0        0.471046    3.602786    0.392671
     80          1           0        0.077365    5.279331    0.540908
     81          1           0        0.224398    4.484718   -1.101427
     82          1           0       -1.988416    8.199132   -0.714519
     83          1           0       -1.334238    6.742000   -1.461005
     84          1           0       -1.008573    6.950257    0.255662
     85          1           0       -8.029431    4.300254   -0.829736
     86          1           0       -9.299111    2.599051    1.136725
     87          1           0       -7.558011    4.989943    1.975351
     88          1           0       -9.239108    4.518142    1.745910
     89          1           0       -8.474393    5.773608    0.774460
     90          1           0       -9.202108    1.316685   -1.545227
     91          1           0       -9.564645    3.095825   -1.714427
     92          1           0      -11.347493    2.136933    0.241491
     93          1           0      -11.165188    1.008124   -1.308990
     94          1           0      -11.692350    2.636223   -1.383199
     95          1           0       -8.548843   -4.078693    1.069192
     96          1           0       -9.196337   -3.039724   -0.243994
     97          1           0       -9.173574   -2.469833    1.452055
     98          1           0       -3.376409   -4.564604   -0.597384
     99          1           0       -1.502630   -7.514586    1.776652
    100          1           0       -2.070631   -6.370111    3.030570
    101          1           0       -0.620415   -6.049844    2.081175
    102          1           0        3.711661   -4.704471   -3.045013
    103          1           0        4.439549   -4.993556   -1.589203
    104          1           0        3.768648   -2.201224   -2.800073
    105          1           0        6.882541   -2.635017   -0.159059
    106          1           0        7.194233   -3.740214   -1.578059
    107          1           0        5.923278   -4.155440   -0.408329
    108          1           0        6.685137   -0.759066   -1.201462
    109          1           0        5.079141   -0.434916   -1.854441
    110          1           0        5.433030   -0.305363   -3.977560
    111          1           0        6.490267   -1.718246   -3.914765
    112          1           0        7.983989   -0.361343   -4.682273
    113          1           0        8.320340   -0.104837   -2.889686
    114          1           0        6.455783    1.774390   -3.349029
    115          1           0        7.633174    2.564880   -5.822116
    116          1           0        5.978083    2.112126   -5.334829
    117          1           0        7.105720    0.846194   -6.055745
    118          1           0        8.648617    3.189874   -4.012474
    119          1           0        9.562238    1.828148   -3.683274
    120          1           0        7.626062    2.478438   -1.403058
    121          1           0        8.610594    3.772822   -1.923649
    122          1           0       10.427173    3.093870   -0.900264
    123          1           0       10.487821    1.533301   -1.787708
    124          1           0        8.481363    1.130226    0.185573
    125          1           0        9.735661   -0.702498   -0.277595
    126          1           0       10.299655   -0.095634    1.269327
    127          1           0       11.244020    0.266256   -0.235841
    128          1           0        9.247182    3.300245    1.240269
    129          1           0       10.810889    2.661237    1.392728
    130          1           0        8.468725    1.005278    2.575578
    131          1           0        8.823995    2.594739    3.329148
    132          1           0       11.309482    1.386101    3.301077
    133          1           0       10.351085   -0.046533    3.456300
    134          1           0       10.319590    2.316233    5.367181
    135          1           0       11.354604    0.082655    6.844631
    136          1           0       12.217094    1.582947    6.349519
    137          1           0       12.181381    0.147783    5.363948
    138          1           0        8.336655    1.576360    5.860364
    139          1           0        9.093586    0.244002    6.822933
    140          1           0        8.635352    0.028404    5.059135
 ---------------------------------------------------------------------

 SCF Done:  E(RB-LYP) =  -3007.35245576     A.U. after   21 cycles

 Excitation energies and oscillator strengths:

 Excited State   1:      Singlet-A      1.7813 eV  696.04 nm  f=0.2018  <S**2>=0.000
     244 -> 247       -0.38511
     245 -> 247       -0.11065
     245 -> 248       -0.13111
     246 -> 247        0.57175
     246 <- 247       -0.12414
 This state for optimization and/or second-order correction.
 Total Energy, E(TD-HF/TD-DFT) =  -3007.28699539
 Copying the excited state density for this state as the 1-particle RhoCI density.

 Excited State   2:      Singlet-A      1.8145 eV  683.30 nm  f=0.1165  <S**2>=0.000
     244 -> 247        0.55239
     245 -> 247        0.17966
     246 -> 247        0.39108

 Excited State   3:      Singlet-A      2.0144 eV  615.47 nm  f=0.0725  <S**2>=0.000
     244 -> 247       -0.20794
     245 -> 247        0.61593
     246 -> 248        0.20434
     246 -> 249        0.13203

 Excited State   4:      Singlet-A      2.1732 eV  570.50 nm  f=0.0021  <S**2>=0.000
     243 -> 247        0.69701

 Excited State   5:      Singlet-A      2.2745 eV  545.10 nm  f=0.0005  <S**2>=0.000
     242 -> 247        0.70693

 The electronic state is 1-A.
 Alpha  occ. eigenvalues --  -46.27556 -18.82567 -18.82501 -18.77309 -18.76717
 Alpha  occ. eigenvalues --  -18.76682 -18.75210 -14.03220 -14.03203 -14.01309
 Alpha  occ. eigenvalues --  -14.00452 -10.04518 -10.04256 -10.00960  -9.99440
 Alpha  occ. eigenvalues --   -9.97678  -9.97445  -9.96757  -9.96403  -9.96234
 Alpha  occ. eigenvalues --   -9.96185  -9.95989  -9.95809  -9.95162  -9.94730
 Alpha  occ. eigenvalues --   -9.94432  -9.94419  -9.94206  -9.93914  -9.93904
 Alpha  occ. eigenvalues --   -9.93808  -9.93767  -9.93616  -9.93521  -9.93475
 Alpha  occ. eigenvalues --   -9.93219  -9.93190  -9.92975  -9.92825  -9.92817
 Alpha  occ. eigenvalues --   -9.92793  -9.92792  -9.92416  -9.92273  -9.92268
 Alpha  occ. eigenvalues --   -9.92209  -9.92196  -9.91962  -9.91920  -9.91808
 Alpha  occ. eigenvalues --   -9.91801  -9.91743  -9.91697  -9.91691  -9.91689
 Alpha  occ. eigenvalues --   -9.91623  -9.91587  -9.91398  -9.91293  -9.91208
 Alpha  occ. eigenvalues --   -9.91160  -9.91102  -9.91100  -9.90938  -9.90831
 Alpha  occ. eigenvalues --   -9.90734  -2.92120  -1.72524  -1.72012  -1.71834
 Alpha  occ. eigenvalues --   -0.96502  -0.96475  -0.91278  -0.91274  -0.88808
 Alpha  occ. eigenvalues --   -0.88473  -0.86982  -0.86080  -0.85356  -0.84577
 Alpha  occ. eigenvalues --   -0.76180  -0.74255  -0.73210  -0.72944  -0.72519
 Alpha  occ. eigenvalues --   -0.72040  -0.71629  -0.71028  -0.70766  -0.70548
 Alpha  occ. eigenvalues --   -0.69469  -0.69418  -0.68295  -0.68008  -0.67562
 Alpha  occ. eigenvalues --   -0.66640  -0.66026  -0.65504  -0.65254  -0.64395
 Alpha  occ. eigenvalues --   -0.64116  -0.62581  -0.62181  -0.61993  -0.60991
 Alpha  occ. eigenvalues --   -0.60802  -0.60372  -0.59935  -0.59913  -0.58900
 Alpha  occ. eigenvalues --   -0.58180  -0.57531  -0.57025  -0.55658  -0.54273
 Alpha  occ. eigenvalues --   -0.54145  -0.53985  -0.53138  -0.52623  -0.51752
 Alpha  occ. eigenvalues --   -0.51619  -0.51475  -0.50839  -0.50202  -0.50037
 Alpha  occ. eigenvalues --   -0.49661  -0.48927  -0.48608  -0.48445  -0.46893
 Alpha  occ. eigenvalues --   -0.46604  -0.46013  -0.45795  -0.45200  -0.44921
 Alpha  occ. eigenvalues --   -0.44191  -0.43757  -0.43338  -0.42666  -0.42343
 Alpha  occ. eigenvalues --   -0.41946  -0.41651  -0.41380  -0.41139  -0.41005
 Alpha  occ. eigenvalues --   -0.40756  -0.40585  -0.40525  -0.40434  -0.40241
 Alpha  occ. eigenvalues --   -0.40132  -0.39821  -0.39729  -0.39668  -0.39217
 Alpha  occ. eigenvalues --   -0.38976  -0.38891  -0.38711  -0.38548  -0.38498
 Alpha  occ. eigenvalues --   -0.38391  -0.38203  -0.37940  -0.37839  -0.37670
 Alpha  occ. eigenvalues --   -0.37005  -0.36919  -0.36887  -0.36735  -0.36349
 Alpha  occ. eigenvalues --   -0.36256  -0.36089  -0.35940  -0.35801  -0.35674
 Alpha  occ. eigenvalues --   -0.35464  -0.35376  -0.35072  -0.34889  -0.34702
 Alpha  occ. eigenvalues --   -0.34629  -0.34510  -0.34271  -0.34128  -0.33850
 Alpha  occ. eigenvalues --   -0.33811  -0.33786  -0.33501  -0.33241  -0.33116
 Alpha  occ. eigenvalues --   -0.33053  -0.32955  -0.32745  -0.32481  -0.32355
 Alpha  occ. eigenvalues --   -0.32235  -0.31995  -0.31876  -0.31746  -0.31716
 Alpha  occ. eigenvalues --   -0.31634  -0.31412  -0.31135  -0.30990  -0.30780
 Alpha  occ. eigenvalues --   -0.30612  -0.30585  -0.30232  -0.30086  -0.30002
 Alpha  occ. eigenvalues --   -0.29794  -0.29731  -0.29451  -0.29397  -0.29270
 Alpha  occ. eigenvalues --   -0.29014  -0.28946  -0.28920  -0.27830  -0.27625
 Alpha  occ. eigenvalues --   -0.27576  -0.27249  -0.27069  -0.26901  -0.26665
 Alpha  occ. eigenvalues --   -0.26427  -0.26147  -0.26019  -0.25816  -0.25296
 Alpha  occ. eigenvalues --   -0.25150  -0.24911  -0.24330  -0.23762  -0.23631
 Alpha  occ. eigenvalues --   -0.23366  -0.22426  -0.22012  -0.21724  -0.21169
 Alpha  occ. eigenvalues --   -0.20312  -0.19959  -0.19472  -0.18184  -0.17200
 Alpha  occ. eigenvalues --   -0.15812
 Alpha virt. eigenvalues --   -0.11602  -0.06875  -0.06399  -0.05172  -0.04047
 Alpha virt. eigenvalues --   -0.03648  -0.03413  -0.02102  -0.01669  -0.00155
 Alpha virt. eigenvalues --    0.00763   0.01354   0.02002   0.02543   0.02750

 Mulliken charges:
               1
     1  Mg   0.678519
     2  C    0.014531
     3  C   -0.075469
     4  C   -0.062759
     5  C   -0.062600
     6  N   -0.223917
     7  C   -0.118727
     8  C    0.069385
     9  C   -0.015538
    10  C    0.061592
    11  C    0.121845
    12  C    0.123515
    13  C    0.156754
    14  C    0.055171
    15  O   -0.224988
    16  O   -0.278471
    17  N   -0.239603
    18  C    0.108300
    19  C   -0.155936
    20  C    0.039447
    21  C    0.110471
    22  C    0.175614
    23  C   -0.101489
    24  O   -0.167563
    25  C    0.145731
    26  N   -0.250081
    27  C    0.086819
    28  C   -0.042467
    29  C    0.086289
    30  C    0.033414
    31  C    0.098935
    32  C    0.088815
    33  C    0.076772
    34  N   -0.246342
    35  C    0.058362
    36  C   -0.196301
    37  C    0.059458
    38  C    0.071142
    39  C    0.178182
    40  C   -0.001163
    41  O   -0.131252
    42  C    0.132459
    43  C    0.122364
    44  O   -0.204749
    45  O   -0.291416
    46  C    0.212948
    47  C    0.314769
    48  C   -0.063331
    49  C   -0.192857
    50  C    0.164975
    51  C    0.134337
    52  C    0.053328
    53  C    0.123587
    54  C   -0.125547
    55  C    0.122899
    56  C    0.109560
    57  C    0.073633
    58  C    0.141236
    59  C   -0.099712
    60  C    0.095250
    61  C    0.083165
    62  C    0.073571
    63  C    0.028130
    64  C   -0.106174
    65  C    0.093713
    66  C    0.149464
    67  H   -0.079977
    68  H   -0.047709
    69  H   -0.077914
    70  H   -0.007390
    71  H   -0.020948
    72  H   -0.002866
    73  H   -0.009300
    74  H   -0.007084
    75  H   -0.018486
    76  H   -0.026397
    77  H    0.006842
    78  H   -0.007243
    79  H   -0.012128
    80  H    0.000127
    81  H    0.014959
    82  H   -0.003742
    83  H   -0.013952
    84  H    0.011073
    85  H   -0.012159
    86  H   -0.024098
    87  H   -0.004470
    88  H   -0.006394
    89  H   -0.009391
    90  H   -0.007427
    91  H   -0.016010
    92  H    0.002485
    93  H   -0.005914
    94  H   -0.020921
    95  H    0.012645
    96  H    0.002996
    97  H   -0.000464
    98  H    0.004410
    99  H    0.016450
   100  H    0.025976
   101  H   -0.000887
   102  H    0.000601
   103  H   -0.020803
   104  H   -0.046266
   105  H   -0.000800
   106  H    0.004672
   107  H    0.001664
   108  H   -0.028370
   109  H   -0.027408
   110  H   -0.022914
   111  H   -0.030589
   112  H   -0.035247
   113  H   -0.022306
   114  H   -0.035210
   115  H   -0.015518
   116  H   -0.012585
   117  H   -0.004103
   118  H   -0.057605
   119  H   -0.035963
   120  H   -0.022567
   121  H   -0.038677
   122  H   -0.035101
   123  H   -0.023155
   124  H   -0.037834
   125  H   -0.012897
   126  H   -0.036407
   127  H   -0.016469
   128  H   -0.042586
   129  H   -0.030610
   130  H   -0.021522
   131  H   -0.026563
   132  H   -0.031213
   133  H   -0.005692
   134  H   -0.037732
   135  H   -0.024105
   136  H   -0.007215
   137  H   -0.027520
   138  H   -0.013010
   139  H   -0.005932
   140  H   -0.019134
 Sum of Mulliken charges =  -0.00000

 Dipole moment (field-independent basis, Debye):
    X=              4.0576    Y=              2.8124    Z=             -1.4063  Tot=              5.1334
 Quadrupole moment (field-independent basis, Debye-Ang):
   XX=           -374.6801   YY=           -440.1896   ZZ=           -415.6223
   XY=            -19.5340   XZ=             12.3975   YZ=             -8.8656

 Normal termination of Gaussian 16 at Wed May  4 03:03:09 2022.
