 Gaussian 16, Revision A.03,
 Gaussian 16:  ES64L-G16RevA.03 25-Dec-2016

 -----------------------------------
 #p cam-b3lyp/Def2SVP td=(nstates=5)
 -----------------------------------

 --------------------------------------------------------
 step_1251_chromophore_27 TDDFT with cam-b3lyp functional
 --------------------------------------------------------
 Symbolic Z-matrix:
 Charge =  0 Multiplicity = 1

                         Standard orientation:
 ---------------------------------------------------------------------
 Center     Atomic      Atomic             Coordinates (Angstroms)
 Number     Number       Type             X           Y           Z
 ---------------------------------------------------------------------
      1         12           0       -4.505417    0.854016    0.008100
      2          6           0       -3.758457   -2.656855    0.262237
      3          6           0       -1.236802    1.478089    0.122236
      4          6           0       -5.286379    4.113395   -0.040209
      5          6           0       -7.841068    0.110712    0.378434
      6          7           0       -2.732712   -0.450698    0.429207
      7          6           0       -2.635263   -1.827142    0.256184
      8          6           0       -1.153422   -2.283412    0.286251
      9          6           0       -0.446070   -0.890982    0.239861
     10          6           0       -1.480282    0.108775    0.342117
     11          6           0        0.597096   -0.733792    1.403584
     12          6           0       -0.687271   -3.154223   -0.968674
     13          6           0        0.278607   -4.239014   -0.692677
     14          6           0        1.395568   -4.411089   -1.740383
     15          8           0        1.220262   -4.942835   -2.866021
     16          8           0        2.614149   -3.987848   -1.240453
     17          7           0       -3.416195    2.632131    0.182619
     18          6           0       -2.100604    2.654537    0.065270
     19          6           0       -1.582266    4.014360   -0.020989
     20          6           0       -2.770969    4.822091   -0.150635
     21          6           0       -3.923586    3.860344   -0.062050
     22          6           0       -0.115510    4.396621   -0.068855
     23          6           0       -2.951666    6.296695   -0.330554
     24          8           0       -4.002086    6.901525   -0.157673
     25          6           0       -1.731242    7.155644   -0.533453
     26          7           0       -6.300300    1.945158    0.399696
     27          6           0       -6.377155    3.308716    0.246016
     28          6           0       -7.820294    3.790478    0.110265
     29          6           0       -8.732533    2.502072    0.210599
     30          6           0       -7.630910    1.478600    0.444906
     31          6           0       -8.322868    4.792752    1.224125
     32          6           0       -9.604011    2.214177   -1.075111
     33          6           0      -11.064673    1.964781   -0.797117
     34          7           0       -5.642137   -0.891532    0.204316
     35          6           0       -6.976300   -0.981209    0.324421
     36          6           0       -7.328824   -2.421273    0.416706
     37          6           0       -6.101826   -3.084581    0.270161
     38          6           0       -5.092218   -2.159105    0.197913
     39          6           0       -8.650790   -3.058362    0.699105
     40          6           0       -5.412300   -4.446503    0.298891
     41          8           0       -5.904063   -5.568954    0.454079
     42          6           0       -3.870840   -4.154442    0.282777
     43          6           0       -3.212750   -4.702809    1.448439
     44          8           0       -3.352660   -4.352977    2.652127
     45          8           0       -2.372955   -5.756912    1.014990
     46          6           0       -1.627545   -6.463236    2.039030
     47          6           0        3.831575   -4.228374   -2.070812
     48          6           0        4.412351   -2.894130   -2.258718
     49          6           0        5.598694   -2.511315   -1.789372
     50          6           0        6.460719   -3.333827   -0.881221
     51          6           0        5.983457   -1.026344   -1.992065
     52          6           0        6.310023   -0.729999   -3.490745
     53          6           0        7.628705    0.015271   -3.722875
     54          6           0        7.340096    1.510661   -3.930306
     55          6           0        6.999833    1.753827   -5.462299
     56          6           0        8.597599    2.269783   -3.430319
     57          6           0        8.568648    2.683719   -1.911980
     58          6           0        9.873765    2.197156   -1.180543
     59          6           0        9.514254    1.472436    0.126430
     60          6           0       10.255974    0.125600    0.203110
     61          6           0        9.766438    2.351762    1.379098
     62          6           0        9.232220    1.762287    2.755903
     63          6           0       10.349346    1.023092    3.666108
     64          6           0       10.264125    1.232937    5.264774
     65          6           0       11.573614    0.765229    6.024748
     66          6           0        8.987744    0.702378    5.839638
     67          1           0       -0.182081    1.748513    0.040705
     68          1           0       -5.618730    5.128947   -0.266463
     69          1           0       -8.831442   -0.346791    0.400082
     70          1           0       -0.898326   -2.661905    1.275298
     71          1           0        0.030498   -0.733344   -0.727347
     72          1           0        1.172802    0.157712    1.155414
     73          1           0        1.184078   -1.642460    1.541402
     74          1           0        0.116505   -0.675641    2.379756
     75          1           0       -0.292776   -2.604610   -1.823188
     76          1           0       -1.569572   -3.598395   -1.429627
     77          1           0       -0.311011   -5.154858   -0.751382
     78          1           0        0.782443   -4.172300    0.271518
     79          1           0        0.471046    3.602786    0.392671
     80          1           0        0.077365    5.279331    0.540908
     81          1           0        0.224398    4.484718   -1.101427
     82          1           0       -1.988416    8.199132   -0.714519
     83          1           0       -1.334238    6.742000   -1.461005
     84          1           0       -1.008573    6.950257    0.255662
     85          1           0       -8.029431    4.300254   -0.829736
     86          1           0       -9.299111    2.599051    1.136725
     87          1           0       -7.558011    4.989943    1.975351
     88          1           0       -9.239108    4.518142    1.745910
     89          1           0       -8.474393    5.773608    0.774460
     90          1           0       -9.202108    1.316685   -1.545227
     91          1           0       -9.564645    3.095825   -1.714427
     92          1           0      -11.347493    2.136933    0.241491
     93          1           0      -11.165188    1.008124   -1.308990
     94          1           0      -11.692350    2.636223   -1.383199
     95          1           0       -8.548843   -4.078693    1.069192
     96          1           0       -9.196337   -3.039724   -0.243994
     97          1           0       -9.173574   -2.469833    1.452055
     98          1           0       -3.376409   -4.564604   -0.597384
     99          1           0       -1.502630   -7.514586    1.776652
    100          1           0       -2.070631   -6.370111    3.030570
    101          1           0       -0.620415   -6.049844    2.081175
    102          1           0        3.711661   -4.704471   -3.045013
    103          1           0        4.439549   -4.993556   -1.589203
    104          1           0        3.768648   -2.201224   -2.800073
    105          1           0        6.882541   -2.635017   -0.159059
    106          1           0        7.194233   -3.740214   -1.578059
    107          1           0        5.923278   -4.155440   -0.408329
    108          1           0        6.685137   -0.759066   -1.201462
    109          1           0        5.079141   -0.434916   -1.854441
    110          1           0        5.433030   -0.305363   -3.977560
    111          1           0        6.490267   -1.718246   -3.914765
    112          1           0        7.983989   -0.361343   -4.682273
    113          1           0        8.320340   -0.104837   -2.889686
    114          1           0        6.455783    1.774390   -3.349029
    115          1           0        7.633174    2.564880   -5.822116
    116          1           0        5.978083    2.112126   -5.334829
    117          1           0        7.105720    0.846194   -6.055745
    118          1           0        8.648617    3.189874   -4.012474
    119          1           0        9.562238    1.828148   -3.683274
    120          1           0        7.626062    2.478438   -1.403058
    121          1           0        8.610594    3.772822   -1.923649
    122          1           0       10.427173    3.093870   -0.900264
    123          1           0       10.487821    1.533301   -1.787708
    124          1           0        8.481363    1.130226    0.185573
    125          1           0        9.735661   -0.702498   -0.277595
    126          1           0       10.299655   -0.095634    1.269327
    127          1           0       11.244020    0.266256   -0.235841
    128          1           0        9.247182    3.300245    1.240269
    129          1           0       10.810889    2.661237    1.392728
    130          1           0        8.468725    1.005278    2.575578
    131          1           0        8.823995    2.594739    3.329148
    132          1           0       11.309482    1.386101    3.301077
    133          1           0       10.351085   -0.046533    3.456300
    134          1           0       10.319590    2.316233    5.367181
    135          1           0       11.354604    0.082655    6.844631
    136          1           0       12.217094    1.582947    6.349519
    137          1           0       12.181381    0.147783    5.363948
    138          1           0        8.336655    1.576360    5.860364
    139          1           0        9.093586    0.244002    6.822933
    140          1           0        8.635352    0.028404    5.059135
 ---------------------------------------------------------------------

 SCF Done:  E(RCAM-B3LYP) =  -3007.13765195     A.U. after   19 cycles

 Excitation energies and oscillator strengths:

 Excited State   1:      Singlet-A      1.6870 eV  734.93 nm  f=0.3774  <S**2>=0.000
     245 -> 248        0.17613
     246 -> 247        0.68673
     245 <- 248        0.10749
 This state for optimization and/or second-order correction.
 Total Energy, E(TD-HF/TD-DFT) =  -3007.07565530
 Copying the excited state density for this state as the 1-particle RhoCI density.

 Excited State   2:      Singlet-A      2.2085 eV  561.40 nm  f=0.1164  <S**2>=0.000
     245 -> 247        0.64394
     246 -> 248       -0.28039

 Excited State   3:      Singlet-A      3.3792 eV  366.90 nm  f=0.0009  <S**2>=0.000
     242 -> 247       -0.12327
     244 -> 247        0.67653

 Excited State   4:      Singlet-A      3.4705 eV  357.25 nm  f=0.0475  <S**2>=0.000
     241 -> 247        0.20209
     241 -> 248        0.10010
     241 -> 249        0.13152
     241 -> 251       -0.15637
     242 -> 247        0.50137
     242 -> 248        0.11153
     242 -> 249        0.17348
     242 -> 251       -0.17721
     246 -> 248        0.22731

 Excited State   5:      Singlet-A      3.5787 eV  346.45 nm  f=0.5482  <S**2>=0.000
     241 -> 247       -0.30644
     245 -> 247        0.23822
     246 -> 248        0.55168

 The electronic state is 1-A.
 Alpha  occ. eigenvalues --  -46.89124 -19.25488 -19.25449 -19.20485 -19.19908
 Alpha  occ. eigenvalues --  -19.19634 -19.18574 -14.42235 -14.41998 -14.39857
 Alpha  occ. eigenvalues --  -14.38724 -10.40207 -10.39659 -10.36346 -10.34741
 Alpha  occ. eigenvalues --  -10.31800 -10.31423 -10.31201 -10.30740 -10.30701
 Alpha  occ. eigenvalues --  -10.30690 -10.30512 -10.30310 -10.29276 -10.29165
 Alpha  occ. eigenvalues --  -10.28826 -10.28736 -10.28332 -10.27980 -10.27863
 Alpha  occ. eigenvalues --  -10.27833 -10.27826 -10.27801 -10.27726 -10.27559
 Alpha  occ. eigenvalues --  -10.27424 -10.27172 -10.27075 -10.26975 -10.26559
 Alpha  occ. eigenvalues --  -10.26450 -10.26447 -10.26241 -10.26238 -10.26058
 Alpha  occ. eigenvalues --  -10.26049 -10.25843 -10.25761 -10.25758 -10.25737
 Alpha  occ. eigenvalues --  -10.25646 -10.25610 -10.25565 -10.25457 -10.25400
 Alpha  occ. eigenvalues --  -10.25351 -10.25279 -10.25130 -10.25111 -10.25088
 Alpha  occ. eigenvalues --  -10.24946 -10.24884 -10.24772 -10.24584 -10.24401
 Alpha  occ. eigenvalues --  -10.24400  -3.17587  -1.92468  -1.92044  -1.91890
 Alpha  occ. eigenvalues --   -1.14974  -1.14866  -1.09826  -1.09634  -1.06768
 Alpha  occ. eigenvalues --   -1.06303  -1.04770  -1.03653  -1.02941  -1.02102
 Alpha  occ. eigenvalues --   -0.93317  -0.91192  -0.90020  -0.89758  -0.89221
 Alpha  occ. eigenvalues --   -0.88765  -0.88313  -0.87600  -0.87378  -0.87349
 Alpha  occ. eigenvalues --   -0.85872  -0.85811  -0.84550  -0.84206  -0.83715
 Alpha  occ. eigenvalues --   -0.82701  -0.82225  -0.81519  -0.81105  -0.80297
 Alpha  occ. eigenvalues --   -0.79941  -0.78410  -0.77765  -0.77474  -0.76374
 Alpha  occ. eigenvalues --   -0.76188  -0.75771  -0.75298  -0.75210  -0.74156
 Alpha  occ. eigenvalues --   -0.73213  -0.72474  -0.71935  -0.70488  -0.68887
 Alpha  occ. eigenvalues --   -0.68714  -0.68640  -0.67669  -0.67073  -0.65876
 Alpha  occ. eigenvalues --   -0.65816  -0.65743  -0.64753  -0.64211  -0.63865
 Alpha  occ. eigenvalues --   -0.63599  -0.62873  -0.62531  -0.62143  -0.60448
 Alpha  occ. eigenvalues --   -0.60318  -0.59585  -0.59168  -0.58834  -0.58401
 Alpha  occ. eigenvalues --   -0.57534  -0.57166  -0.56531  -0.55710  -0.55485
 Alpha  occ. eigenvalues --   -0.55031  -0.54586  -0.54422  -0.54101  -0.53978
 Alpha  occ. eigenvalues --   -0.53536  -0.53366  -0.53127  -0.53081  -0.52974
 Alpha  occ. eigenvalues --   -0.52810  -0.52717  -0.52364  -0.52225  -0.51673
 Alpha  occ. eigenvalues --   -0.51550  -0.51463  -0.51223  -0.51156  -0.51098
 Alpha  occ. eigenvalues --   -0.50797  -0.50598  -0.50279  -0.50066  -0.49974
 Alpha  occ. eigenvalues --   -0.49693  -0.49524  -0.49341  -0.48983  -0.48938
 Alpha  occ. eigenvalues --   -0.48811  -0.48413  -0.48074  -0.47973  -0.47626
 Alpha  occ. eigenvalues --   -0.47606  -0.47345  -0.47055  -0.46920  -0.46699
 Alpha  occ. eigenvalues --   -0.46551  -0.46383  -0.46047  -0.46024  -0.45809
 Alpha  occ. eigenvalues --   -0.45588  -0.45470  -0.45398  -0.45023  -0.44841
 Alpha  occ. eigenvalues --   -0.44760  -0.44635  -0.44387  -0.44348  -0.43908
 Alpha  occ. eigenvalues --   -0.43760  -0.43655  -0.43568  -0.43315  -0.43122
 Alpha  occ. eigenvalues --   -0.43086  -0.42986  -0.42692  -0.42477  -0.42330
 Alpha  occ. eigenvalues --   -0.42129  -0.41990  -0.41840  -0.41802  -0.41578
 Alpha  occ. eigenvalues --   -0.41151  -0.40959  -0.40620  -0.40565  -0.40424
 Alpha  occ. eigenvalues --   -0.40078  -0.40006  -0.39981  -0.38737  -0.38548
 Alpha  occ. eigenvalues --   -0.38455  -0.38427  -0.37948  -0.37820  -0.37481
 Alpha  occ. eigenvalues --   -0.37349  -0.37118  -0.36770  -0.36645  -0.36392
 Alpha  occ. eigenvalues --   -0.36117  -0.35941  -0.34850  -0.34762  -0.34670
 Alpha  occ. eigenvalues --   -0.33850  -0.33665  -0.33107  -0.31446  -0.31403
 Alpha  occ. eigenvalues --   -0.30874  -0.30370  -0.29779  -0.29361  -0.23922
 Alpha  occ. eigenvalues --   -0.21121
 Alpha virt. eigenvalues --   -0.08700  -0.01601   0.00143   0.01615   0.01720
 Alpha virt. eigenvalues --    0.03615   0.04182   0.05199   0.05493   0.06998
 Alpha virt. eigenvalues --    0.07388   0.07974   0.08054   0.08673   0.09075

 Mulliken charges:
               1
     1  Mg   0.809868
     2  C   -0.018302
     3  C   -0.090881
     4  C   -0.077861
     5  C   -0.073823
     6  N   -0.292967
     7  C   -0.065821
     8  C    0.009595
     9  C   -0.077590
    10  C    0.089071
    11  C    0.068714
    12  C    0.069261
    13  C    0.089100
    14  C    0.141017
    15  O   -0.267736
    16  O   -0.344332
    17  N   -0.326767
    18  C    0.119130
    19  C   -0.159906
    20  C   -0.026758
    21  C    0.129378
    22  C    0.119685
    23  C   -0.021879
    24  O   -0.206657
    25  C    0.065637
    26  N   -0.317465
    27  C    0.103195
    28  C   -0.097528
    29  C    0.029785
    30  C    0.055847
    31  C    0.045100
    32  C    0.032682
    33  C    0.011784
    34  N   -0.335845
    35  C    0.067225
    36  C   -0.194104
    37  C   -0.017868
    38  C    0.104244
    39  C    0.121832
    40  C    0.100694
    41  O   -0.169359
    42  C    0.047023
    43  C    0.216298
    44  O   -0.241209
    45  O   -0.356026
    46  C    0.174770
    47  C    0.271342
    48  C   -0.080910
    49  C   -0.212535
    50  C    0.101376
    51  C    0.081129
    52  C   -0.000954
    53  C    0.072914
    54  C   -0.176366
    55  C    0.065236
    56  C    0.053925
    57  C    0.019188
    58  C    0.080673
    59  C   -0.152107
    60  C    0.046985
    61  C    0.034263
    62  C    0.016293
    63  C   -0.023260
    64  C   -0.157467
    65  C    0.034550
    66  C    0.083844
    67  H   -0.047016
    68  H   -0.006776
    69  H   -0.042028
    70  H    0.025714
    71  H    0.014105
    72  H    0.019668
    73  H    0.015064
    74  H    0.019029
    75  H    0.013620
    76  H    0.004342
    77  H    0.039565
    78  H    0.023905
    79  H    0.015728
    80  H    0.026677
    81  H    0.042497
    82  H    0.031897
    83  H    0.013432
    84  H    0.035742
    85  H    0.021704
    86  H    0.010811
    87  H    0.021526
    88  H    0.017218
    89  H    0.014698
    90  H    0.022382
    91  H    0.011653
    92  H    0.025132
    93  H    0.017425
    94  H    0.004255
    95  H    0.040269
    96  H    0.027855
    97  H    0.023274
    98  H    0.048736
    99  H    0.039147
   100  H    0.052432
   101  H    0.017848
   102  H    0.035135
   103  H    0.009120
   104  H   -0.012157
   105  H    0.021790
   106  H    0.028505
   107  H    0.026454
   108  H   -0.003672
   109  H    0.003540
   110  H    0.003695
   111  H    0.000777
   112  H   -0.006025
   113  H    0.001348
   114  H   -0.005376
   115  H    0.008868
   116  H    0.010227
   117  H    0.018380
   118  H   -0.026380
   119  H   -0.006952
   120  H    0.003636
   121  H   -0.008199
   122  H   -0.004547
   123  H    0.004561
   124  H   -0.009732
   125  H    0.008739
   126  H   -0.015133
   127  H    0.006686
   128  H   -0.012565
   129  H   -0.003097
   130  H    0.005028
   131  H    0.002497
   132  H   -0.003249
   133  H    0.017672
   134  H   -0.006249
   135  H    0.000268
   136  H    0.016653
   137  H   -0.003210
   138  H    0.010448
   139  H    0.018744
   140  H    0.003874
 Sum of Mulliken charges =  -0.00000

 Dipole moment (field-independent basis, Debye):
    X=              4.6137    Y=              3.4010    Z=             -1.5454  Tot=              5.9365
 Quadrupole moment (field-independent basis, Debye-Ang):
   XX=           -374.7434   YY=           -436.2006   ZZ=           -416.4033
   XY=            -21.2751   XZ=             13.2649   YZ=            -10.1528

 Normal termination of Gaussian 16 at Wed May  4 02:05:53 2022.
