 Gaussian 16, Revision A.03,
 Gaussian 16:  ES64L-G16RevA.03 25-Dec-2016

 ---------------------------------
 #p PBE1PBE/Def2SVP td=(nstates=5)
 ---------------------------------

 ------------------------------------------------------
 step_1251_chromophore_27 TDDFT with PBE1PBE functional
 ------------------------------------------------------
 Symbolic Z-matrix:
 Charge =  0 Multiplicity = 1

                         Standard orientation:
 ---------------------------------------------------------------------
 Center     Atomic      Atomic             Coordinates (Angstroms)
 Number     Number       Type             X           Y           Z
 ---------------------------------------------------------------------
      1         12           0       -4.505417    0.854016    0.008100
      2          6           0       -3.758457   -2.656855    0.262237
      3          6           0       -1.236802    1.478089    0.122236
      4          6           0       -5.286379    4.113395   -0.040209
      5          6           0       -7.841068    0.110712    0.378434
      6          7           0       -2.732712   -0.450698    0.429207
      7          6           0       -2.635263   -1.827142    0.256184
      8          6           0       -1.153422   -2.283412    0.286251
      9          6           0       -0.446070   -0.890982    0.239861
     10          6           0       -1.480282    0.108775    0.342117
     11          6           0        0.597096   -0.733792    1.403584
     12          6           0       -0.687271   -3.154223   -0.968674
     13          6           0        0.278607   -4.239014   -0.692677
     14          6           0        1.395568   -4.411089   -1.740383
     15          8           0        1.220262   -4.942835   -2.866021
     16          8           0        2.614149   -3.987848   -1.240453
     17          7           0       -3.416195    2.632131    0.182619
     18          6           0       -2.100604    2.654537    0.065270
     19          6           0       -1.582266    4.014360   -0.020989
     20          6           0       -2.770969    4.822091   -0.150635
     21          6           0       -3.923586    3.860344   -0.062050
     22          6           0       -0.115510    4.396621   -0.068855
     23          6           0       -2.951666    6.296695   -0.330554
     24          8           0       -4.002086    6.901525   -0.157673
     25          6           0       -1.731242    7.155644   -0.533453
     26          7           0       -6.300300    1.945158    0.399696
     27          6           0       -6.377155    3.308716    0.246016
     28          6           0       -7.820294    3.790478    0.110265
     29          6           0       -8.732533    2.502072    0.210599
     30          6           0       -7.630910    1.478600    0.444906
     31          6           0       -8.322868    4.792752    1.224125
     32          6           0       -9.604011    2.214177   -1.075111
     33          6           0      -11.064673    1.964781   -0.797117
     34          7           0       -5.642137   -0.891532    0.204316
     35          6           0       -6.976300   -0.981209    0.324421
     36          6           0       -7.328824   -2.421273    0.416706
     37          6           0       -6.101826   -3.084581    0.270161
     38          6           0       -5.092218   -2.159105    0.197913
     39          6           0       -8.650790   -3.058362    0.699105
     40          6           0       -5.412300   -4.446503    0.298891
     41          8           0       -5.904063   -5.568954    0.454079
     42          6           0       -3.870840   -4.154442    0.282777
     43          6           0       -3.212750   -4.702809    1.448439
     44          8           0       -3.352660   -4.352977    2.652127
     45          8           0       -2.372955   -5.756912    1.014990
     46          6           0       -1.627545   -6.463236    2.039030
     47          6           0        3.831575   -4.228374   -2.070812
     48          6           0        4.412351   -2.894130   -2.258718
     49          6           0        5.598694   -2.511315   -1.789372
     50          6           0        6.460719   -3.333827   -0.881221
     51          6           0        5.983457   -1.026344   -1.992065
     52          6           0        6.310023   -0.729999   -3.490745
     53          6           0        7.628705    0.015271   -3.722875
     54          6           0        7.340096    1.510661   -3.930306
     55          6           0        6.999833    1.753827   -5.462299
     56          6           0        8.597599    2.269783   -3.430319
     57          6           0        8.568648    2.683719   -1.911980
     58          6           0        9.873765    2.197156   -1.180543
     59          6           0        9.514254    1.472436    0.126430
     60          6           0       10.255974    0.125600    0.203110
     61          6           0        9.766438    2.351762    1.379098
     62          6           0        9.232220    1.762287    2.755903
     63          6           0       10.349346    1.023092    3.666108
     64          6           0       10.264125    1.232937    5.264774
     65          6           0       11.573614    0.765229    6.024748
     66          6           0        8.987744    0.702378    5.839638
     67          1           0       -0.182081    1.748513    0.040705
     68          1           0       -5.618730    5.128947   -0.266463
     69          1           0       -8.831442   -0.346791    0.400082
     70          1           0       -0.898326   -2.661905    1.275298
     71          1           0        0.030498   -0.733344   -0.727347
     72          1           0        1.172802    0.157712    1.155414
     73          1           0        1.184078   -1.642460    1.541402
     74          1           0        0.116505   -0.675641    2.379756
     75          1           0       -0.292776   -2.604610   -1.823188
     76          1           0       -1.569572   -3.598395   -1.429627
     77          1           0       -0.311011   -5.154858   -0.751382
     78          1           0        0.782443   -4.172300    0.271518
     79          1           0        0.471046    3.602786    0.392671
     80          1           0        0.077365    5.279331    0.540908
     81          1           0        0.224398    4.484718   -1.101427
     82          1           0       -1.988416    8.199132   -0.714519
     83          1           0       -1.334238    6.742000   -1.461005
     84          1           0       -1.008573    6.950257    0.255662
     85          1           0       -8.029431    4.300254   -0.829736
     86          1           0       -9.299111    2.599051    1.136725
     87          1           0       -7.558011    4.989943    1.975351
     88          1           0       -9.239108    4.518142    1.745910
     89          1           0       -8.474393    5.773608    0.774460
     90          1           0       -9.202108    1.316685   -1.545227
     91          1           0       -9.564645    3.095825   -1.714427
     92          1           0      -11.347493    2.136933    0.241491
     93          1           0      -11.165188    1.008124   -1.308990
     94          1           0      -11.692350    2.636223   -1.383199
     95          1           0       -8.548843   -4.078693    1.069192
     96          1           0       -9.196337   -3.039724   -0.243994
     97          1           0       -9.173574   -2.469833    1.452055
     98          1           0       -3.376409   -4.564604   -0.597384
     99          1           0       -1.502630   -7.514586    1.776652
    100          1           0       -2.070631   -6.370111    3.030570
    101          1           0       -0.620415   -6.049844    2.081175
    102          1           0        3.711661   -4.704471   -3.045013
    103          1           0        4.439549   -4.993556   -1.589203
    104          1           0        3.768648   -2.201224   -2.800073
    105          1           0        6.882541   -2.635017   -0.159059
    106          1           0        7.194233   -3.740214   -1.578059
    107          1           0        5.923278   -4.155440   -0.408329
    108          1           0        6.685137   -0.759066   -1.201462
    109          1           0        5.079141   -0.434916   -1.854441
    110          1           0        5.433030   -0.305363   -3.977560
    111          1           0        6.490267   -1.718246   -3.914765
    112          1           0        7.983989   -0.361343   -4.682273
    113          1           0        8.320340   -0.104837   -2.889686
    114          1           0        6.455783    1.774390   -3.349029
    115          1           0        7.633174    2.564880   -5.822116
    116          1           0        5.978083    2.112126   -5.334829
    117          1           0        7.105720    0.846194   -6.055745
    118          1           0        8.648617    3.189874   -4.012474
    119          1           0        9.562238    1.828148   -3.683274
    120          1           0        7.626062    2.478438   -1.403058
    121          1           0        8.610594    3.772822   -1.923649
    122          1           0       10.427173    3.093870   -0.900264
    123          1           0       10.487821    1.533301   -1.787708
    124          1           0        8.481363    1.130226    0.185573
    125          1           0        9.735661   -0.702498   -0.277595
    126          1           0       10.299655   -0.095634    1.269327
    127          1           0       11.244020    0.266256   -0.235841
    128          1           0        9.247182    3.300245    1.240269
    129          1           0       10.810889    2.661237    1.392728
    130          1           0        8.468725    1.005278    2.575578
    131          1           0        8.823995    2.594739    3.329148
    132          1           0       11.309482    1.386101    3.301077
    133          1           0       10.351085   -0.046533    3.456300
    134          1           0       10.319590    2.316233    5.367181
    135          1           0       11.354604    0.082655    6.844631
    136          1           0       12.217094    1.582947    6.349519
    137          1           0       12.181381    0.147783    5.363948
    138          1           0        8.336655    1.576360    5.860364
    139          1           0        9.093586    0.244002    6.822933
    140          1           0        8.635352    0.028404    5.059135
 ---------------------------------------------------------------------

 SCF Done:  E(RPBE1PBE) =  -3005.32686034     A.U. after   15 cycles

 Excitation energies and oscillator strengths:

 Excited State   1:      Singlet-A      1.8400 eV  673.82 nm  f=0.3682  <S**2>=0.000
     245 -> 248       -0.16650
     246 -> 247        0.69424
     246 <- 247       -0.10946
 This state for optimization and/or second-order correction.
 Total Energy, E(TD-HF/TD-DFT) =  -3005.25924045
 Copying the excited state density for this state as the 1-particle RhoCI density.

 Excited State   2:      Singlet-A      2.2196 eV  558.58 nm  f=0.1107  <S**2>=0.000
     245 -> 247        0.65389
     246 -> 248        0.25299

 Excited State   3:      Singlet-A      2.9357 eV  422.33 nm  f=0.0001  <S**2>=0.000
     242 -> 247        0.67204
     242 -> 248        0.10102
     242 -> 249       -0.10601
     242 -> 250       -0.12151

 Excited State   4:      Singlet-A      3.0234 eV  410.09 nm  f=0.0056  <S**2>=0.000
     243 -> 247        0.54206
     244 -> 247        0.43045

 Excited State   5:      Singlet-A      3.2607 eV  380.24 nm  f=0.0054  <S**2>=0.000
     240 -> 247        0.58661
     240 -> 249        0.18407
     241 -> 247        0.30201

 The electronic state is 1-A.
 Alpha  occ. eigenvalues --  -46.92523 -19.26207 -19.26157 -19.20725 -19.20200
 Alpha  occ. eigenvalues --  -19.19988 -19.18682 -14.41716 -14.41589 -14.39400
 Alpha  occ. eigenvalues --  -14.38459 -10.37217 -10.36763 -10.33608 -10.31762
 Alpha  occ. eigenvalues --  -10.29206 -10.29026 -10.28651 -10.28547 -10.28361
 Alpha  occ. eigenvalues --  -10.28353 -10.28066 -10.27908 -10.27020 -10.26824
 Alpha  occ. eigenvalues --  -10.26679 -10.26389 -10.26146 -10.25864 -10.25703
 Alpha  occ. eigenvalues --  -10.25696 -10.25573 -10.25425 -10.25204 -10.25189
 Alpha  occ. eigenvalues --  -10.25186 -10.24790 -10.24666 -10.24653 -10.24125
 Alpha  occ. eigenvalues --  -10.24044 -10.23861 -10.23844 -10.23821 -10.23734
 Alpha  occ. eigenvalues --  -10.23628 -10.23455 -10.23387 -10.23274 -10.23255
 Alpha  occ. eigenvalues --  -10.23157 -10.23144 -10.23107 -10.22967 -10.22950
 Alpha  occ. eigenvalues --  -10.22935 -10.22928 -10.22739 -10.22717 -10.22650
 Alpha  occ. eigenvalues --  -10.22479 -10.22372 -10.22331 -10.21986 -10.21796
 Alpha  occ. eigenvalues --  -10.21755  -3.14569  -1.87390  -1.86945  -1.86794
 Alpha  occ. eigenvalues --   -1.09720  -1.09708  -1.04453  -1.04436  -1.01559
 Alpha  occ. eigenvalues --   -1.01193  -0.99378  -0.98370  -0.97579  -0.96739
 Alpha  occ. eigenvalues --   -0.87729  -0.85346  -0.84211  -0.83899  -0.83510
 Alpha  occ. eigenvalues --   -0.82884  -0.82593  -0.81934  -0.81536  -0.81467
 Alpha  occ. eigenvalues --   -0.80227  -0.80167  -0.78811  -0.78470  -0.77991
 Alpha  occ. eigenvalues --   -0.76905  -0.76410  -0.75781  -0.75328  -0.74616
 Alpha  occ. eigenvalues --   -0.74091  -0.72648  -0.72055  -0.71831  -0.70707
 Alpha  occ. eigenvalues --   -0.70379  -0.69857  -0.69561  -0.69398  -0.68342
 Alpha  occ. eigenvalues --   -0.67562  -0.66954  -0.66357  -0.64804  -0.63300
 Alpha  occ. eigenvalues --   -0.63084  -0.62908  -0.62097  -0.61286  -0.60373
 Alpha  occ. eigenvalues --   -0.60220  -0.59926  -0.59336  -0.58779  -0.58339
 Alpha  occ. eigenvalues --   -0.57839  -0.57049  -0.56743  -0.56707  -0.54813
 Alpha  occ. eigenvalues --   -0.54786  -0.54118  -0.53819  -0.53323  -0.52949
 Alpha  occ. eigenvalues --   -0.52179  -0.51598  -0.51112  -0.50194  -0.50092
 Alpha  occ. eigenvalues --   -0.49559  -0.49157  -0.48953  -0.48643  -0.48424
 Alpha  occ. eigenvalues --   -0.48060  -0.47900  -0.47679  -0.47507  -0.47480
 Alpha  occ. eigenvalues --   -0.47313  -0.47164  -0.46963  -0.46729  -0.46239
 Alpha  occ. eigenvalues --   -0.46111  -0.46055  -0.45853  -0.45742  -0.45674
 Alpha  occ. eigenvalues --   -0.45287  -0.45190  -0.44819  -0.44667  -0.44512
 Alpha  occ. eigenvalues --   -0.44291  -0.44097  -0.43940  -0.43630  -0.43536
 Alpha  occ. eigenvalues --   -0.43338  -0.42994  -0.42659  -0.42640  -0.42296
 Alpha  occ. eigenvalues --   -0.42223  -0.41956  -0.41734  -0.41590  -0.41392
 Alpha  occ. eigenvalues --   -0.41274  -0.41063  -0.40795  -0.40595  -0.40574
 Alpha  occ. eigenvalues --   -0.40328  -0.40146  -0.40121  -0.39755  -0.39676
 Alpha  occ. eigenvalues --   -0.39449  -0.39340  -0.39124  -0.39086  -0.38593
 Alpha  occ. eigenvalues --   -0.38468  -0.38415  -0.38380  -0.38061  -0.37992
 Alpha  occ. eigenvalues --   -0.37874  -0.37795  -0.37542  -0.37326  -0.37131
 Alpha  occ. eigenvalues --   -0.36917  -0.36798  -0.36714  -0.36592  -0.36425
 Alpha  occ. eigenvalues --   -0.36039  -0.35738  -0.35505  -0.35384  -0.35290
 Alpha  occ. eigenvalues --   -0.34949  -0.34892  -0.34754  -0.33541  -0.33383
 Alpha  occ. eigenvalues --   -0.33319  -0.33205  -0.32843  -0.32765  -0.32494
 Alpha  occ. eigenvalues --   -0.32297  -0.32169  -0.31822  -0.31644  -0.31333
 Alpha  occ. eigenvalues --   -0.31064  -0.30756  -0.29872  -0.29802  -0.29522
 Alpha  occ. eigenvalues --   -0.28774  -0.28739  -0.28531  -0.27050  -0.26430
 Alpha  occ. eigenvalues --   -0.26229  -0.25190  -0.25091  -0.25078  -0.20871
 Alpha  occ. eigenvalues --   -0.18745
 Alpha virt. eigenvalues --   -0.11176  -0.05134  -0.04084  -0.02672  -0.01357
 Alpha virt. eigenvalues --   -0.00953  -0.00402   0.00868   0.01088   0.02852
 Alpha virt. eigenvalues --    0.03854   0.04084   0.04686   0.05299   0.05705

 Mulliken charges:
               1
     1  Mg   0.954417
     2  C   -0.035059
     3  C   -0.076311
     4  C   -0.073166
     5  C   -0.078139
     6  N   -0.392945
     7  C    0.015392
     8  C   -0.068916
     9  C   -0.159008
    10  C    0.132424
    11  C    0.010310
    12  C    0.022876
    13  C    0.010523
    14  C    0.209255
    15  O   -0.299092
    16  O   -0.371195
    17  N   -0.443978
    18  C    0.140080
    19  C   -0.180554
    20  C   -0.075244
    21  C    0.157173
    22  C    0.057700
    23  C    0.030719
    24  O   -0.243951
    25  C   -0.011460
    26  N   -0.416532
    27  C    0.139274
    28  C   -0.174486
    29  C   -0.044907
    30  C    0.102116
    31  C   -0.007366
    32  C   -0.029510
    33  C   -0.058770
    34  N   -0.464602
    35  C    0.098878
    36  C   -0.223265
    37  C   -0.058934
    38  C    0.153896
    39  C    0.064540
    40  C    0.198866
    41  O   -0.213978
    42  C   -0.070421
    43  C    0.310194
    44  O   -0.275912
    45  O   -0.388274
    46  C    0.120678
    47  C    0.225485
    48  C   -0.092377
    49  C   -0.252204
    50  C    0.032706
    51  C    0.020273
    52  C   -0.063360
    53  C    0.012266
    54  C   -0.259799
    55  C    0.006497
    56  C   -0.002535
    57  C   -0.038717
    58  C    0.023463
    59  C   -0.239583
    60  C   -0.018254
    61  C   -0.017867
    62  C   -0.048275
    63  C   -0.081816
    64  C   -0.243524
    65  C   -0.025228
    66  C    0.018883
    67  H   -0.013222
    68  H    0.024942
    69  H   -0.007082
    70  H    0.062202
    71  H    0.050497
    72  H    0.047425
    73  H    0.044026
    74  H    0.046838
    75  H    0.044768
    76  H    0.037839
    77  H    0.074295
    78  H    0.055188
    79  H    0.041959
    80  H    0.054120
    81  H    0.069576
    82  H    0.058755
    83  H    0.042067
    84  H    0.062666
    85  H    0.057331
    86  H    0.048201
    87  H    0.049334
    88  H    0.042787
    89  H    0.041878
    90  H    0.055568
    91  H    0.044420
    92  H    0.051268
    93  H    0.044200
    94  H    0.033199
    95  H    0.068003
    96  H    0.057009
    97  H    0.050635
    98  H    0.086545
    99  H    0.061027
   100  H    0.073141
   101  H    0.040745
   102  H    0.062103
   103  H    0.035007
   104  H    0.017504
   105  H    0.048490
   106  H    0.057839
   107  H    0.053076
   108  H    0.029537
   109  H    0.037509
   110  H    0.034412
   111  H    0.035827
   112  H    0.027628
   113  H    0.038555
   114  H    0.032582
   115  H    0.036234
   116  H    0.037493
   117  H    0.044100
   118  H    0.007565
   119  H    0.024406
   120  H    0.032924
   121  H    0.025794
   122  H    0.028532
   123  H    0.034623
   124  H    0.030581
   125  H    0.037035
   126  H    0.019992
   127  H    0.034415
   128  H    0.022005
   129  H    0.028311
   130  H    0.036803
   131  H    0.035128
   132  H    0.029951
   133  H    0.048428
   134  H    0.032757
   135  H    0.027424
   136  H    0.043402
   137  H    0.024410
   138  H    0.038091
   139  H    0.045292
   140  H    0.032712
 Sum of Mulliken charges =  -0.00000

 Dipole moment (field-independent basis, Debye):
    X=              4.4567    Y=              3.2373    Z=             -1.5489  Tot=              5.7220
 Quadrupole moment (field-independent basis, Debye-Ang):
   XX=           -367.5791   YY=           -434.0948   ZZ=           -413.9952
   XY=            -21.0791   XZ=             13.3224   YZ=            -10.3079

 Normal termination of Gaussian 16 at Wed May  4 02:23:18 2022.
