 Gaussian 16, Revision A.03,
 Gaussian 16:  ES64L-G16RevA.03 25-Dec-2016

 --------------------------------
 #p wB97XD/Def2SVP td=(nstates=5)
 --------------------------------

 -----------------------------------------------------
 step_1251_chromophore_27 TDDFT with wB97XD functional
 -----------------------------------------------------
 Symbolic Z-matrix:
 Charge =  0 Multiplicity = 1

                         Standard orientation:
 ---------------------------------------------------------------------
 Center     Atomic      Atomic             Coordinates (Angstroms)
 Number     Number       Type             X           Y           Z
 ---------------------------------------------------------------------
      1         12           0       -4.505417    0.854016    0.008100
      2          6           0       -3.758457   -2.656855    0.262237
      3          6           0       -1.236802    1.478089    0.122236
      4          6           0       -5.286379    4.113395   -0.040209
      5          6           0       -7.841068    0.110712    0.378434
      6          7           0       -2.732712   -0.450698    0.429207
      7          6           0       -2.635263   -1.827142    0.256184
      8          6           0       -1.153422   -2.283412    0.286251
      9          6           0       -0.446070   -0.890982    0.239861
     10          6           0       -1.480282    0.108775    0.342117
     11          6           0        0.597096   -0.733792    1.403584
     12          6           0       -0.687271   -3.154223   -0.968674
     13          6           0        0.278607   -4.239014   -0.692677
     14          6           0        1.395568   -4.411089   -1.740383
     15          8           0        1.220262   -4.942835   -2.866021
     16          8           0        2.614149   -3.987848   -1.240453
     17          7           0       -3.416195    2.632131    0.182619
     18          6           0       -2.100604    2.654537    0.065270
     19          6           0       -1.582266    4.014360   -0.020989
     20          6           0       -2.770969    4.822091   -0.150635
     21          6           0       -3.923586    3.860344   -0.062050
     22          6           0       -0.115510    4.396621   -0.068855
     23          6           0       -2.951666    6.296695   -0.330554
     24          8           0       -4.002086    6.901525   -0.157673
     25          6           0       -1.731242    7.155644   -0.533453
     26          7           0       -6.300300    1.945158    0.399696
     27          6           0       -6.377155    3.308716    0.246016
     28          6           0       -7.820294    3.790478    0.110265
     29          6           0       -8.732533    2.502072    0.210599
     30          6           0       -7.630910    1.478600    0.444906
     31          6           0       -8.322868    4.792752    1.224125
     32          6           0       -9.604011    2.214177   -1.075111
     33          6           0      -11.064673    1.964781   -0.797117
     34          7           0       -5.642137   -0.891532    0.204316
     35          6           0       -6.976300   -0.981209    0.324421
     36          6           0       -7.328824   -2.421273    0.416706
     37          6           0       -6.101826   -3.084581    0.270161
     38          6           0       -5.092218   -2.159105    0.197913
     39          6           0       -8.650790   -3.058362    0.699105
     40          6           0       -5.412300   -4.446503    0.298891
     41          8           0       -5.904063   -5.568954    0.454079
     42          6           0       -3.870840   -4.154442    0.282777
     43          6           0       -3.212750   -4.702809    1.448439
     44          8           0       -3.352660   -4.352977    2.652127
     45          8           0       -2.372955   -5.756912    1.014990
     46          6           0       -1.627545   -6.463236    2.039030
     47          6           0        3.831575   -4.228374   -2.070812
     48          6           0        4.412351   -2.894130   -2.258718
     49          6           0        5.598694   -2.511315   -1.789372
     50          6           0        6.460719   -3.333827   -0.881221
     51          6           0        5.983457   -1.026344   -1.992065
     52          6           0        6.310023   -0.729999   -3.490745
     53          6           0        7.628705    0.015271   -3.722875
     54          6           0        7.340096    1.510661   -3.930306
     55          6           0        6.999833    1.753827   -5.462299
     56          6           0        8.597599    2.269783   -3.430319
     57          6           0        8.568648    2.683719   -1.911980
     58          6           0        9.873765    2.197156   -1.180543
     59          6           0        9.514254    1.472436    0.126430
     60          6           0       10.255974    0.125600    0.203110
     61          6           0        9.766438    2.351762    1.379098
     62          6           0        9.232220    1.762287    2.755903
     63          6           0       10.349346    1.023092    3.666108
     64          6           0       10.264125    1.232937    5.264774
     65          6           0       11.573614    0.765229    6.024748
     66          6           0        8.987744    0.702378    5.839638
     67          1           0       -0.182081    1.748513    0.040705
     68          1           0       -5.618730    5.128947   -0.266463
     69          1           0       -8.831442   -0.346791    0.400082
     70          1           0       -0.898326   -2.661905    1.275298
     71          1           0        0.030498   -0.733344   -0.727347
     72          1           0        1.172802    0.157712    1.155414
     73          1           0        1.184078   -1.642460    1.541402
     74          1           0        0.116505   -0.675641    2.379756
     75          1           0       -0.292776   -2.604610   -1.823188
     76          1           0       -1.569572   -3.598395   -1.429627
     77          1           0       -0.311011   -5.154858   -0.751382
     78          1           0        0.782443   -4.172300    0.271518
     79          1           0        0.471046    3.602786    0.392671
     80          1           0        0.077365    5.279331    0.540908
     81          1           0        0.224398    4.484718   -1.101427
     82          1           0       -1.988416    8.199132   -0.714519
     83          1           0       -1.334238    6.742000   -1.461005
     84          1           0       -1.008573    6.950257    0.255662
     85          1           0       -8.029431    4.300254   -0.829736
     86          1           0       -9.299111    2.599051    1.136725
     87          1           0       -7.558011    4.989943    1.975351
     88          1           0       -9.239108    4.518142    1.745910
     89          1           0       -8.474393    5.773608    0.774460
     90          1           0       -9.202108    1.316685   -1.545227
     91          1           0       -9.564645    3.095825   -1.714427
     92          1           0      -11.347493    2.136933    0.241491
     93          1           0      -11.165188    1.008124   -1.308990
     94          1           0      -11.692350    2.636223   -1.383199
     95          1           0       -8.548843   -4.078693    1.069192
     96          1           0       -9.196337   -3.039724   -0.243994
     97          1           0       -9.173574   -2.469833    1.452055
     98          1           0       -3.376409   -4.564604   -0.597384
     99          1           0       -1.502630   -7.514586    1.776652
    100          1           0       -2.070631   -6.370111    3.030570
    101          1           0       -0.620415   -6.049844    2.081175
    102          1           0        3.711661   -4.704471   -3.045013
    103          1           0        4.439549   -4.993556   -1.589203
    104          1           0        3.768648   -2.201224   -2.800073
    105          1           0        6.882541   -2.635017   -0.159059
    106          1           0        7.194233   -3.740214   -1.578059
    107          1           0        5.923278   -4.155440   -0.408329
    108          1           0        6.685137   -0.759066   -1.201462
    109          1           0        5.079141   -0.434916   -1.854441
    110          1           0        5.433030   -0.305363   -3.977560
    111          1           0        6.490267   -1.718246   -3.914765
    112          1           0        7.983989   -0.361343   -4.682273
    113          1           0        8.320340   -0.104837   -2.889686
    114          1           0        6.455783    1.774390   -3.349029
    115          1           0        7.633174    2.564880   -5.822116
    116          1           0        5.978083    2.112126   -5.334829
    117          1           0        7.105720    0.846194   -6.055745
    118          1           0        8.648617    3.189874   -4.012474
    119          1           0        9.562238    1.828148   -3.683274
    120          1           0        7.626062    2.478438   -1.403058
    121          1           0        8.610594    3.772822   -1.923649
    122          1           0       10.427173    3.093870   -0.900264
    123          1           0       10.487821    1.533301   -1.787708
    124          1           0        8.481363    1.130226    0.185573
    125          1           0        9.735661   -0.702498   -0.277595
    126          1           0       10.299655   -0.095634    1.269327
    127          1           0       11.244020    0.266256   -0.235841
    128          1           0        9.247182    3.300245    1.240269
    129          1           0       10.810889    2.661237    1.392728
    130          1           0        8.468725    1.005278    2.575578
    131          1           0        8.823995    2.594739    3.329148
    132          1           0       11.309482    1.386101    3.301077
    133          1           0       10.351085   -0.046533    3.456300
    134          1           0       10.319590    2.316233    5.367181
    135          1           0       11.354604    0.082655    6.844631
    136          1           0       12.217094    1.582947    6.349519
    137          1           0       12.181381    0.147783    5.363948
    138          1           0        8.336655    1.576360    5.860364
    139          1           0        9.093586    0.244002    6.822933
    140          1           0        8.635352    0.028404    5.059135
 ---------------------------------------------------------------------

 SCF Done:  E(RwB97XD) =  -3007.83588049     A.U. after   20 cycles

 Excitation energies and oscillator strengths:

 Excited State   1:      Singlet-A      1.6308 eV  760.28 nm  f=0.3757  <S**2>=0.000
     245 -> 248        0.18182
     246 -> 247        0.68442
     245 <- 248        0.11683
 This state for optimization and/or second-order correction.
 Total Energy, E(TD-HF/TD-DFT) =  -3007.77595065
 Copying the excited state density for this state as the 1-particle RhoCI density.

 Excited State   2:      Singlet-A      2.1540 eV  575.61 nm  f=0.1141  <S**2>=0.000
     245 -> 247        0.64221
     246 -> 248       -0.28239

 Excited State   3:      Singlet-A      3.4124 eV  363.34 nm  f=0.0001  <S**2>=0.000
     242 -> 247       -0.12138
     244 -> 247        0.66434

 Excited State   4:      Singlet-A      3.4832 eV  355.95 nm  f=0.0505  <S**2>=0.000
     241 -> 250        0.11349
     242 -> 247        0.51703
     242 -> 248        0.13854
     242 -> 249       -0.22219
     242 -> 250       -0.21713
     246 -> 248        0.22804

 Excited State   5:      Singlet-A      3.5959 eV  344.80 nm  f=0.5388  <S**2>=0.000
     241 -> 247        0.31925
     242 -> 250        0.10223
     245 -> 247        0.23324
     246 -> 248        0.54040
     245 <- 247       -0.10365

 The electronic state is 1-A.
 Alpha  occ. eigenvalues --  -46.95480 -19.30723 -19.30708 -19.25432 -19.24951
 Alpha  occ. eigenvalues --  -19.24633 -19.23622 -14.46879 -14.46589 -14.44438
 Alpha  occ. eigenvalues --  -14.43295 -10.44059 -10.43524 -10.40381 -10.38718
 Alpha  occ. eigenvalues --  -10.35700 -10.35229 -10.35147 -10.34770 -10.34736
 Alpha  occ. eigenvalues --  -10.34689 -10.34580 -10.34374 -10.33474 -10.33136
 Alpha  occ. eigenvalues --  -10.32909 -10.32756 -10.32314 -10.32075 -10.31977
 Alpha  occ. eigenvalues --  -10.31921 -10.31863 -10.31828 -10.31804 -10.31542
 Alpha  occ. eigenvalues --  -10.31444 -10.31157 -10.31088 -10.30968 -10.30443
 Alpha  occ. eigenvalues --  -10.30379 -10.30283 -10.30256 -10.30195 -10.30019
 Alpha  occ. eigenvalues --  -10.29996 -10.29898 -10.29731 -10.29636 -10.29619
 Alpha  occ. eigenvalues --  -10.29613 -10.29516 -10.29479 -10.29439 -10.29343
 Alpha  occ. eigenvalues --  -10.29296 -10.29116 -10.29087 -10.29082 -10.29024
 Alpha  occ. eigenvalues --  -10.28838 -10.28799 -10.28708 -10.28405 -10.28241
 Alpha  occ. eigenvalues --  -10.28197  -3.21390  -1.94958  -1.94514  -1.94362
 Alpha  occ. eigenvalues --   -1.17128  -1.17076  -1.12059  -1.11864  -1.08947
 Alpha  occ. eigenvalues --   -1.08527  -1.06824  -1.05655  -1.04941  -1.04125
 Alpha  occ. eigenvalues --   -0.95281  -0.93011  -0.91844  -0.91561  -0.91112
 Alpha  occ. eigenvalues --   -0.90556  -0.90231  -0.89516  -0.89310  -0.89148
 Alpha  occ. eigenvalues --   -0.87805  -0.87729  -0.86437  -0.86090  -0.85599
 Alpha  occ. eigenvalues --   -0.84574  -0.84147  -0.83453  -0.82984  -0.82260
 Alpha  occ. eigenvalues --   -0.81771  -0.80388  -0.79671  -0.79406  -0.78297
 Alpha  occ. eigenvalues --   -0.78050  -0.77561  -0.77149  -0.77112  -0.76013
 Alpha  occ. eigenvalues --   -0.75145  -0.74451  -0.73899  -0.72416  -0.70853
 Alpha  occ. eigenvalues --   -0.70651  -0.70554  -0.69666  -0.68945  -0.67833
 Alpha  occ. eigenvalues --   -0.67745  -0.67594  -0.66746  -0.66224  -0.65811
 Alpha  occ. eigenvalues --   -0.65488  -0.64711  -0.64365  -0.64130  -0.62333
 Alpha  occ. eigenvalues --   -0.62321  -0.61547  -0.61139  -0.60793  -0.60386
 Alpha  occ. eigenvalues --   -0.59533  -0.59077  -0.58513  -0.57647  -0.57435
 Alpha  occ. eigenvalues --   -0.56987  -0.56539  -0.56323  -0.56021  -0.55879
 Alpha  occ. eigenvalues --   -0.55425  -0.55288  -0.55061  -0.54939  -0.54883
 Alpha  occ. eigenvalues --   -0.54710  -0.54677  -0.54288  -0.54120  -0.53579
 Alpha  occ. eigenvalues --   -0.53466  -0.53389  -0.53162  -0.53067  -0.53008
 Alpha  occ. eigenvalues --   -0.52660  -0.52540  -0.52229  -0.51998  -0.51855
 Alpha  occ. eigenvalues --   -0.51635  -0.51454  -0.51294  -0.50915  -0.50868
 Alpha  occ. eigenvalues --   -0.50756  -0.50381  -0.49942  -0.49893  -0.49556
 Alpha  occ. eigenvalues --   -0.49498  -0.49232  -0.48980  -0.48825  -0.48615
 Alpha  occ. eigenvalues --   -0.48477  -0.48290  -0.47976  -0.47863  -0.47727
 Alpha  occ. eigenvalues --   -0.47494  -0.47361  -0.47297  -0.46945  -0.46756
 Alpha  occ. eigenvalues --   -0.46620  -0.46559  -0.46328  -0.46269  -0.45791
 Alpha  occ. eigenvalues --   -0.45626  -0.45545  -0.45503  -0.45219  -0.45081
 Alpha  occ. eigenvalues --   -0.44993  -0.44897  -0.44586  -0.44416  -0.44267
 Alpha  occ. eigenvalues --   -0.44060  -0.43983  -0.43760  -0.43700  -0.43592
 Alpha  occ. eigenvalues --   -0.43035  -0.42822  -0.42514  -0.42419  -0.42314
 Alpha  occ. eigenvalues --   -0.41969  -0.41889  -0.41839  -0.40595  -0.40398
 Alpha  occ. eigenvalues --   -0.40356  -0.40274  -0.39851  -0.39739  -0.39425
 Alpha  occ. eigenvalues --   -0.39223  -0.39161  -0.38764  -0.38635  -0.38387
 Alpha  occ. eigenvalues --   -0.38024  -0.37787  -0.36715  -0.36672  -0.36655
 Alpha  occ. eigenvalues --   -0.35750  -0.35552  -0.35373  -0.33636  -0.33412
 Alpha  occ. eigenvalues --   -0.32996  -0.32415  -0.31799  -0.31524  -0.25845
 Alpha  occ. eigenvalues --   -0.22932
 Alpha virt. eigenvalues --   -0.07043   0.00323   0.02236   0.03815   0.04672
 Alpha virt. eigenvalues --    0.05762   0.06415   0.07604   0.07782   0.09567
 Alpha virt. eigenvalues --    0.10642   0.10783   0.10993   0.11885   0.12458

 Mulliken charges:
               1
     1  Mg   0.946696
     2  C   -0.035570
     3  C   -0.096746
     4  C   -0.086872
     5  C   -0.085130
     6  N   -0.361603
     7  C   -0.017984
     8  C   -0.043193
     9  C   -0.130980
    10  C    0.120237
    11  C    0.020941
    12  C    0.032538
    13  C    0.029389
    14  C    0.198601
    15  O   -0.296998
    16  O   -0.371635
    17  N   -0.410304
    18  C    0.133495
    19  C   -0.173925
    20  C   -0.069313
    21  C    0.149405
    22  C    0.071192
    23  C    0.026342
    24  O   -0.237620
    25  C    0.003655
    26  N   -0.385923
    27  C    0.124146
    28  C   -0.150399
    29  C   -0.018471
    30  C    0.083652
    31  C    0.001996
    32  C   -0.011511
    33  C   -0.045045
    34  N   -0.425873
    35  C    0.085575
    36  C   -0.213171
    37  C   -0.057089
    38  C    0.136738
    39  C    0.074268
    40  C    0.177549
    41  O   -0.204879
    42  C   -0.027399
    43  C    0.283419
    44  O   -0.269907
    45  O   -0.385935
    46  C    0.135883
    47  C    0.236990
    48  C   -0.102193
    49  C   -0.236709
    50  C    0.049023
    51  C    0.036411
    52  C   -0.045745
    53  C    0.034406
    54  C   -0.231571
    55  C    0.017710
    56  C    0.015812
    57  C   -0.026700
    58  C    0.039149
    59  C   -0.207619
    60  C    0.001671
    61  C   -0.002952
    62  C   -0.031370
    63  C   -0.064925
    64  C   -0.216469
    65  C   -0.013354
    66  C    0.032029
    67  H   -0.024843
    68  H    0.020727
    69  H   -0.015654
    70  H    0.050685
    71  H    0.040215
    72  H    0.041633
    73  H    0.037897
    74  H    0.041402
    75  H    0.037795
    76  H    0.028546
    77  H    0.066180
    78  H    0.048388
    79  H    0.038144
    80  H    0.049255
    81  H    0.066215
    82  H    0.058569
    83  H    0.034995
    84  H    0.055825
    85  H    0.047338
    86  H    0.034783
    87  H    0.043399
    88  H    0.037515
    89  H    0.036442
    90  H    0.045544
    91  H    0.035857
    92  H    0.045889
    93  H    0.038709
    94  H    0.027317
    95  H    0.064939
    96  H    0.051188
    97  H    0.044609
    98  H    0.078223
    99  H    0.057516
   100  H    0.069450
   101  H    0.035388
   102  H    0.058566
   103  H    0.030998
   104  H    0.015001
   105  H    0.043233
   106  H    0.051191
   107  H    0.047258
   108  H    0.018584
   109  H    0.028920
   110  H    0.026700
   111  H    0.025036
   112  H    0.017780
   113  H    0.022672
   114  H    0.018448
   115  H    0.030407
   116  H    0.031760
   117  H    0.038537
   118  H   -0.001754
   119  H    0.015143
   120  H    0.023971
   121  H    0.018515
   122  H    0.020625
   123  H    0.024151
   124  H    0.013307
   125  H    0.031658
   126  H    0.005564
   127  H    0.027478
   128  H    0.012915
   129  H    0.018777
   130  H    0.027430
   131  H    0.027475
   132  H    0.019621
   133  H    0.038005
   134  H    0.021102
   135  H    0.021297
   136  H    0.038647
   137  H    0.017706
   138  H    0.032113
   139  H    0.040593
   140  H    0.024656
 Sum of Mulliken charges =  -0.00000

 Dipole moment (field-independent basis, Debye):
    X=              4.7249    Y=              3.5389    Z=             -1.5881  Tot=              6.1132
 Quadrupole moment (field-independent basis, Debye-Ang):
   XX=           -369.8068   YY=           -432.0166   ZZ=           -413.6835
   XY=            -21.7335   XZ=             13.6413   YZ=            -10.6905

 Normal termination of Gaussian 16 at Wed May  4 02:50:01 2022.
