 Gaussian 16, Revision A.03,
 Gaussian 16:  ES64L-G16RevA.03 25-Dec-2016

 --------------------
 #p ZINDO=(nstates=5)
 --------------------

 ------------------------------
 step_1251_chromophore_27 ZINDO
 ------------------------------
 Symbolic Z-matrix:
 Charge =  0 Multiplicity = 1

                         Standard orientation:
 ---------------------------------------------------------------------
 Center     Atomic      Atomic             Coordinates (Angstroms)
 Number     Number       Type             X           Y           Z
 ---------------------------------------------------------------------
      1         12           0       -4.505417    0.854016    0.008100
      2          6           0       -3.758457   -2.656855    0.262237
      3          6           0       -1.236802    1.478089    0.122236
      4          6           0       -5.286379    4.113395   -0.040209
      5          6           0       -7.841068    0.110712    0.378434
      6          7           0       -2.732712   -0.450698    0.429207
      7          6           0       -2.635263   -1.827142    0.256184
      8          6           0       -1.153422   -2.283412    0.286251
      9          6           0       -0.446070   -0.890982    0.239861
     10          6           0       -1.480282    0.108775    0.342117
     11          6           0        0.597096   -0.733792    1.403584
     12          6           0       -0.687271   -3.154223   -0.968674
     13          6           0        0.278607   -4.239014   -0.692677
     14          6           0        1.395568   -4.411089   -1.740383
     15          8           0        1.220262   -4.942835   -2.866021
     16          8           0        2.614149   -3.987848   -1.240453
     17          7           0       -3.416195    2.632131    0.182619
     18          6           0       -2.100604    2.654537    0.065270
     19          6           0       -1.582266    4.014360   -0.020989
     20          6           0       -2.770969    4.822091   -0.150635
     21          6           0       -3.923586    3.860344   -0.062050
     22          6           0       -0.115510    4.396621   -0.068855
     23          6           0       -2.951666    6.296695   -0.330554
     24          8           0       -4.002086    6.901525   -0.157673
     25          6           0       -1.731242    7.155644   -0.533453
     26          7           0       -6.300300    1.945158    0.399696
     27          6           0       -6.377155    3.308716    0.246016
     28          6           0       -7.820294    3.790478    0.110265
     29          6           0       -8.732533    2.502072    0.210599
     30          6           0       -7.630910    1.478600    0.444906
     31          6           0       -8.322868    4.792752    1.224125
     32          6           0       -9.604011    2.214177   -1.075111
     33          6           0      -11.064673    1.964781   -0.797117
     34          7           0       -5.642137   -0.891532    0.204316
     35          6           0       -6.976300   -0.981209    0.324421
     36          6           0       -7.328824   -2.421273    0.416706
     37          6           0       -6.101826   -3.084581    0.270161
     38          6           0       -5.092218   -2.159105    0.197913
     39          6           0       -8.650790   -3.058362    0.699105
     40          6           0       -5.412300   -4.446503    0.298891
     41          8           0       -5.904063   -5.568954    0.454079
     42          6           0       -3.870840   -4.154442    0.282777
     43          6           0       -3.212750   -4.702809    1.448439
     44          8           0       -3.352660   -4.352977    2.652127
     45          8           0       -2.372955   -5.756912    1.014990
     46          6           0       -1.627545   -6.463236    2.039030
     47          6           0        3.831575   -4.228374   -2.070812
     48          6           0        4.412351   -2.894130   -2.258718
     49          6           0        5.598694   -2.511315   -1.789372
     50          6           0        6.460719   -3.333827   -0.881221
     51          6           0        5.983457   -1.026344   -1.992065
     52          6           0        6.310023   -0.729999   -3.490745
     53          6           0        7.628705    0.015271   -3.722875
     54          6           0        7.340096    1.510661   -3.930306
     55          6           0        6.999833    1.753827   -5.462299
     56          6           0        8.597599    2.269783   -3.430319
     57          6           0        8.568648    2.683719   -1.911980
     58          6           0        9.873765    2.197156   -1.180543
     59          6           0        9.514254    1.472436    0.126430
     60          6           0       10.255974    0.125600    0.203110
     61          6           0        9.766438    2.351762    1.379098
     62          6           0        9.232220    1.762287    2.755903
     63          6           0       10.349346    1.023092    3.666108
     64          6           0       10.264125    1.232937    5.264774
     65          6           0       11.573614    0.765229    6.024748
     66          6           0        8.987744    0.702378    5.839638
     67          1           0       -0.182081    1.748513    0.040705
     68          1           0       -5.618730    5.128947   -0.266463
     69          1           0       -8.831442   -0.346791    0.400082
     70          1           0       -0.898326   -2.661905    1.275298
     71          1           0        0.030498   -0.733344   -0.727347
     72          1           0        1.172802    0.157712    1.155414
     73          1           0        1.184078   -1.642460    1.541402
     74          1           0        0.116505   -0.675641    2.379756
     75          1           0       -0.292776   -2.604610   -1.823188
     76          1           0       -1.569572   -3.598395   -1.429627
     77          1           0       -0.311011   -5.154858   -0.751382
     78          1           0        0.782443   -4.172300    0.271518
     79          1           0        0.471046    3.602786    0.392671
     80          1           0        0.077365    5.279331    0.540908
     81          1           0        0.224398    4.484718   -1.101427
     82          1           0       -1.988416    8.199132   -0.714519
     83          1           0       -1.334238    6.742000   -1.461005
     84          1           0       -1.008573    6.950257    0.255662
     85          1           0       -8.029431    4.300254   -0.829736
     86          1           0       -9.299111    2.599051    1.136725
     87          1           0       -7.558011    4.989943    1.975351
     88          1           0       -9.239108    4.518142    1.745910
     89          1           0       -8.474393    5.773608    0.774460
     90          1           0       -9.202108    1.316685   -1.545227
     91          1           0       -9.564645    3.095825   -1.714427
     92          1           0      -11.347493    2.136933    0.241491
     93          1           0      -11.165188    1.008124   -1.308990
     94          1           0      -11.692350    2.636223   -1.383199
     95          1           0       -8.548843   -4.078693    1.069192
     96          1           0       -9.196337   -3.039724   -0.243994
     97          1           0       -9.173574   -2.469833    1.452055
     98          1           0       -3.376409   -4.564604   -0.597384
     99          1           0       -1.502630   -7.514586    1.776652
    100          1           0       -2.070631   -6.370111    3.030570
    101          1           0       -0.620415   -6.049844    2.081175
    102          1           0        3.711661   -4.704471   -3.045013
    103          1           0        4.439549   -4.993556   -1.589203
    104          1           0        3.768648   -2.201224   -2.800073
    105          1           0        6.882541   -2.635017   -0.159059
    106          1           0        7.194233   -3.740214   -1.578059
    107          1           0        5.923278   -4.155440   -0.408329
    108          1           0        6.685137   -0.759066   -1.201462
    109          1           0        5.079141   -0.434916   -1.854441
    110          1           0        5.433030   -0.305363   -3.977560
    111          1           0        6.490267   -1.718246   -3.914765
    112          1           0        7.983989   -0.361343   -4.682273
    113          1           0        8.320340   -0.104837   -2.889686
    114          1           0        6.455783    1.774390   -3.349029
    115          1           0        7.633174    2.564880   -5.822116
    116          1           0        5.978083    2.112126   -5.334829
    117          1           0        7.105720    0.846194   -6.055745
    118          1           0        8.648617    3.189874   -4.012474
    119          1           0        9.562238    1.828148   -3.683274
    120          1           0        7.626062    2.478438   -1.403058
    121          1           0        8.610594    3.772822   -1.923649
    122          1           0       10.427173    3.093870   -0.900264
    123          1           0       10.487821    1.533301   -1.787708
    124          1           0        8.481363    1.130226    0.185573
    125          1           0        9.735661   -0.702498   -0.277595
    126          1           0       10.299655   -0.095634    1.269327
    127          1           0       11.244020    0.266256   -0.235841
    128          1           0        9.247182    3.300245    1.240269
    129          1           0       10.810889    2.661237    1.392728
    130          1           0        8.468725    1.005278    2.575578
    131          1           0        8.823995    2.594739    3.329148
    132          1           0       11.309482    1.386101    3.301077
    133          1           0       10.351085   -0.046533    3.456300
    134          1           0       10.319590    2.316233    5.367181
    135          1           0       11.354604    0.082655    6.844631
    136          1           0       12.217094    1.582947    6.349519
    137          1           0       12.181381    0.147783    5.363948
    138          1           0        8.336655    1.576360    5.860364
    139          1           0        9.093586    0.244002    6.822933
    140          1           0        8.635352    0.028404    5.059135
 ---------------------------------------------------------------------

 SCF Done:  E(RZINDO/S) =  -474.136655295     A.U. after   19 cycles

 Excitation energies and oscillator strengths:

 Excited State   1:      Singlet-A      1.2231 eV 1013.70 nm  f=0.5876  <S**2>=0.000
     175 ->178        -0.18765
     176 ->177         0.66394
 This state for optimization and/or second-order correction.
 Total Energy, E(CIS/TDA) =  -474.091707808
 Copying the excited state density for this state as the 1-particle RhoCI density.

 Excited State   2:      Singlet-A      1.8759 eV  660.93 nm  f=0.0588  <S**2>=0.000
     175 ->177         0.56530
     176 ->178         0.39673

 Excited State   3:      Singlet-A      2.8752 eV  431.22 nm  f=0.0084  <S**2>=0.000
     168 ->177         0.13732
     168 ->179        -0.15393
     168 ->180        -0.15117
     169 ->177        -0.25901
     169 ->178         0.13212
     169 ->179         0.26659
     169 ->180         0.26521
     169 ->185         0.16816
     169 ->187         0.14510
     170 ->177         0.13857
     170 ->179        -0.14046
     170 ->180        -0.13954

 Excited State   4:      Singlet-A      3.0245 eV  409.93 nm  f=0.2905  <S**2>=0.000
     175 ->177        -0.18264
     176 ->178         0.27607
     176 ->179         0.55579

 Excited State   5:      Singlet-A      3.0342 eV  408.62 nm  f=0.8365  <S**2>=0.000
     175 ->177        -0.31478
     176 ->178         0.47365
     176 ->179        -0.29604

 The electronic state is 1-A.
 Alpha  occ. eigenvalues --   -1.83822  -1.82081  -1.79573  -1.71815  -1.71000
 Alpha  occ. eigenvalues --   -1.70020  -1.65271  -1.60588  -1.59622  -1.57627
 Alpha  occ. eigenvalues --   -1.54824  -1.52534  -1.48937  -1.47998  -1.47812
 Alpha  occ. eigenvalues --   -1.43428  -1.42835  -1.40197  -1.39146  -1.38773
 Alpha  occ. eigenvalues --   -1.36441  -1.33594  -1.32461  -1.31687  -1.29761
 Alpha  occ. eigenvalues --   -1.26421  -1.25399  -1.22482  -1.21240  -1.18858
 Alpha  occ. eigenvalues --   -1.17209  -1.16413  -1.15591  -1.15372  -1.14623
 Alpha  occ. eigenvalues --   -1.12448  -1.10723  -1.09621  -1.05352  -1.03967
 Alpha  occ. eigenvalues --   -1.01209  -1.01034  -0.99086  -0.98599  -0.95847
 Alpha  occ. eigenvalues --   -0.94786  -0.94588  -0.94307  -0.93464  -0.92682
 Alpha  occ. eigenvalues --   -0.92179  -0.88924  -0.88322  -0.88204  -0.87943
 Alpha  occ. eigenvalues --   -0.86573  -0.84345  -0.83570  -0.81998  -0.80573
 Alpha  occ. eigenvalues --   -0.79925  -0.79767  -0.77056  -0.76669  -0.76290
 Alpha  occ. eigenvalues --   -0.75485  -0.74847  -0.74648  -0.74557  -0.73564
 Alpha  occ. eigenvalues --   -0.73380  -0.72927  -0.72547  -0.71527  -0.70868
 Alpha  occ. eigenvalues --   -0.70369  -0.70093  -0.69298  -0.69162  -0.68419
 Alpha  occ. eigenvalues --   -0.67741  -0.67002  -0.66683  -0.66333  -0.65863
 Alpha  occ. eigenvalues --   -0.65104  -0.64432  -0.63986  -0.63805  -0.63538
 Alpha  occ. eigenvalues --   -0.63213  -0.63026  -0.62774  -0.62379  -0.61952
 Alpha  occ. eigenvalues --   -0.61794  -0.61711  -0.61142  -0.60633  -0.60235
 Alpha  occ. eigenvalues --   -0.59448  -0.59120  -0.58918  -0.58794  -0.58784
 Alpha  occ. eigenvalues --   -0.58030  -0.57768  -0.57561  -0.56822  -0.56641
 Alpha  occ. eigenvalues --   -0.55885  -0.55650  -0.55403  -0.54803  -0.54476
 Alpha  occ. eigenvalues --   -0.54329  -0.54153  -0.53998  -0.53436  -0.53164
 Alpha  occ. eigenvalues --   -0.52654  -0.52524  -0.52453  -0.51874  -0.51691
 Alpha  occ. eigenvalues --   -0.51255  -0.50819  -0.50503  -0.50280  -0.50153
 Alpha  occ. eigenvalues --   -0.49989  -0.49892  -0.49754  -0.49402  -0.49328
 Alpha  occ. eigenvalues --   -0.49026  -0.48683  -0.48100  -0.47953  -0.47680
 Alpha  occ. eigenvalues --   -0.47480  -0.47384  -0.47192  -0.47124  -0.46767
 Alpha  occ. eigenvalues --   -0.46563  -0.46348  -0.46151  -0.45676  -0.45297
 Alpha  occ. eigenvalues --   -0.45245  -0.44931  -0.44754  -0.44223  -0.44022
 Alpha  occ. eigenvalues --   -0.43859  -0.43472  -0.42784  -0.42723  -0.42150
 Alpha  occ. eigenvalues --   -0.41888  -0.41568  -0.40990  -0.39192  -0.39042
 Alpha  occ. eigenvalues --   -0.38630  -0.37387  -0.35591  -0.35213  -0.34669
 Alpha  occ. eigenvalues --   -0.33456  -0.32662  -0.32068  -0.31983  -0.26514
 Alpha  occ. eigenvalues --   -0.21783
 Alpha virt. eigenvalues --   -0.08644  -0.01975  -0.00720   0.00692   0.01067
 Alpha virt. eigenvalues --    0.01556   0.02104   0.02588   0.04567   0.04785
 Alpha virt. eigenvalues --    0.05748   0.07065   0.07260   0.07963   0.08278

 Mulliken charges:
               1
     1  Mg   0.434142
     2  C   -0.038268
     3  C   -0.115838
     4  C   -0.047164
     5  C   -0.050987
     6  N   -0.304818
     7  C    0.107184
     8  C   -0.006081
     9  C    0.006261
    10  C    0.160574
    11  C   -0.053320
    12  C   -0.017568
    13  C    0.012765
    14  C    0.460958
    15  O   -0.528960
    16  O   -0.265736
    17  N   -0.296870
    18  C    0.132296
    19  C    0.003464
    20  C   -0.049015
    21  C    0.131827
    22  C   -0.037977
    23  C    0.328606
    24  O   -0.524565
    25  C   -0.032856
    26  N   -0.275109
    27  C    0.144965
    28  C    0.002577
    29  C   -0.006269
    30  C    0.099214
    31  C   -0.057183
    32  C   -0.028909
    33  C   -0.066387
    34  N   -0.321194
    35  C    0.095194
    36  C    0.024187
    37  C   -0.052665
    38  C    0.099531
    39  C   -0.034019
    40  C    0.332796
    41  O   -0.506933
    42  C    0.072749
    43  C    0.492824
    44  O   -0.529750
    45  O   -0.278089
    46  C    0.074980
    47  C    0.105061
    48  C   -0.082089
    49  C   -0.015088
    50  C   -0.042859
    51  C   -0.033661
    52  C   -0.033668
    53  C   -0.036514
    54  C   -0.019864
    55  C   -0.067769
    56  C   -0.039431
    57  C   -0.043690
    58  C   -0.033387
    59  C   -0.015015
    60  C   -0.065306
    61  C   -0.033149
    62  C   -0.041255
    63  C   -0.044784
    64  C   -0.012830
    65  C   -0.062890
    66  C   -0.052883
    67  H    0.016558
    68  H    0.036768
    69  H    0.018164
    70  H    0.051250
    71  H    0.032849
    72  H    0.024556
    73  H    0.018095
    74  H    0.027609
    75  H    0.032047
    76  H    0.020579
    77  H    0.044590
    78  H    0.034916
    79  H    0.022623
    80  H    0.032532
    81  H    0.037660
    82  H    0.044587
    83  H    0.025125
    84  H    0.044543
    85  H    0.035533
    86  H    0.041140
    87  H    0.022055
    88  H    0.026171
    89  H    0.015575
    90  H    0.029207
    91  H    0.023338
    92  H    0.033982
    93  H    0.028511
    94  H    0.010727
    95  H    0.038203
    96  H    0.032633
    97  H    0.026061
    98  H    0.055734
    99  H    0.036232
   100  H    0.054561
   101  H    0.026565
   102  H    0.051917
   103  H    0.037183
   104  H    0.033082
   105  H    0.029234
   106  H    0.033184
   107  H    0.029513
   108  H    0.027873
   109  H    0.015452
   110  H    0.030570
   111  H    0.008849
   112  H    0.021390
   113  H    0.025996
   114  H    0.024428
   115  H    0.023148
   116  H    0.020446
   117  H    0.032721
   118  H    0.002248
   119  H    0.025164
   120  H    0.029806
   121  H    0.009493
   122  H    0.021242
   123  H    0.029067
   124  H    0.017288
   125  H    0.017674
   126  H    0.018171
   127  H    0.020305
   128  H    0.007071
   129  H    0.023490
   130  H    0.022638
   131  H    0.021087
   132  H    0.013482
   133  H    0.019521
   134  H    0.012348
   135  H    0.019381
   136  H    0.023829
   137  H    0.011716
   138  H    0.017570
   139  H    0.028871
   140  H    0.022785
 Sum of Mulliken charges =  -0.00000

 Dipole moment (field-independent basis, Debye):
    X=              6.9114    Y=              4.4551    Z=             -2.9986  Tot=              8.7525
 N-N= 4.395219928156D+03 E-N= 0.000000000000D+00  KE=-9.464142817157D+03
 Leave Link  601 at Wed May  4 03:03:16 2022, MaxMem=  6710886400 cpu:               0.8 elap:               0.0
 (Enter /sw/apps/gaussian-16.0/g16/l9999.exe)
 1\1\GINC-BP1-COMPUTE058\SP\RZINDO CIS\STO-3G\C55H74Mg1N4O6\OF15641\04-
 May-2022\0\\#p ZINDO=(nstates=5)\\step_1251_chromophore_27 ZINDO\\0,1\
 Mg,0,-4.976,24.879,27.035\C,0,-3.393,26.842,29.602\C,0,-5.998,22.762,2
 9.393\C,0,-6.262,23.004,24.572\C,0,-3.468,26.865,24.669\N,0,-4.493,24.
 7,29.216\C,0,-4.056,25.706,30.071\C,0,-4.21,25.276,31.553\C,0,-5.05,23
 .972,31.365\C,0,-5.139,23.731,29.946\C,0,-4.39,22.749,32.097\C,0,-5.02
 1,26.298,32.474\C,0,-4.552,26.439,33.869\C,0,-5.663,26.542,34.932\O,0,

 Normal termination of Gaussian 16 at Wed May  4 03:03:16 2022.
