 Gaussian 16, Revision A.03,
 Gaussian 16:  ES64L-G16RevA.03 25-Dec-2016

 ------------------------------
 #p blyp/Def2SVP td=(nstates=5)
 ------------------------------

 --------------------------------------------------
 step_251_chromophore_19 TDDFT with blyp functional
 --------------------------------------------------
 Symbolic Z-matrix:
 Charge =  0 Multiplicity = 1

                         Standard orientation:
 ---------------------------------------------------------------------
 Center     Atomic      Atomic             Coordinates (Angstroms)
 Number     Number       Type             X           Y           Z
 ---------------------------------------------------------------------
      1         12           0       -5.972389    0.427724   -0.321117
      2          6           0       -3.657172   -2.303708   -0.203343
      3          6           0       -3.191033    2.515062    0.271043
      4          6           0       -7.984571    2.928562    0.312206
      5          6           0       -8.527442   -1.806363   -0.528542
      6          7           0       -3.696033    0.106297   -0.059753
      7          6           0       -3.059989   -1.084814   -0.169290
      8          6           0       -1.560696   -0.835900   -0.170309
      9          6           0       -1.328169    0.696532   -0.048885
     10          6           0       -2.797612    1.153735    0.027812
     11          6           0       -0.399137    1.119379    1.223963
     12          6           0       -0.847249   -1.384114   -1.479615
     13          6           0        0.418623   -2.216135   -1.271636
     14          6           0        1.403914   -1.914989   -0.071904
     15          8           0        1.083850   -1.951722    1.119282
     16          8           0        2.633705   -1.621888   -0.615153
     17          7           0       -5.629777    2.451935    0.274629
     18          6           0       -4.475129    3.066877    0.419542
     19          6           0       -4.756284    4.422798    0.798857
     20          6           0       -6.147257    4.676218    0.691203
     21          6           0       -6.640658    3.344169    0.458104
     22          6           0       -3.664285    5.479974    0.954029
     23          6           0       -7.002266    5.933730    0.694462
     24          8           0       -8.218675    5.908084    0.653131
     25          6           0       -6.256824    7.239958    0.689360
     26          7           0       -7.950359    0.458885    0.211379
     27          6           0       -8.614660    1.686714    0.226759
     28          6           0      -10.153892    1.548308    0.074736
     29          6           0      -10.227876    0.033962   -0.352626
     30          6           0       -8.799142   -0.493796   -0.222562
     31          6           0      -10.868140    1.912951    1.384257
     32          6           0      -10.678257   -0.180740   -1.874577
     33          6           0      -12.059957   -0.674662   -2.144672
     34          7           0       -6.099374   -1.580802   -0.472867
     35          6           0       -7.234707   -2.360716   -0.518636
     36          6           0       -6.941820   -3.790845   -0.471705
     37          6           0       -5.506969   -3.829699   -0.349750
     38          6           0       -5.071978   -2.488612   -0.230798
     39          6           0       -7.942594   -4.857982   -0.731719
     40          6           0       -4.335360   -4.692177   -0.348394
     41          8           0       -4.315347   -5.931669   -0.458326
     42          6           0       -3.033964   -3.714033   -0.217997
     43          6           0       -2.402989   -4.099871    1.034259
     44          8           0       -2.972626   -4.098474    2.103585
     45          8           0       -1.121624   -4.441009    0.853439
     46          6           0       -0.260145   -4.933584    1.973696
     47          6           0        3.511252   -0.952202    0.344408
     48          6           0        4.862719   -0.704158   -0.421819
     49          6           0        6.076886   -0.231718   -0.029064
     50          6           0        6.472982    0.250172    1.444675
     51          6           0        7.298497   -0.249278   -0.985008
     52          6           0        7.579542    1.130442   -1.688281
     53          6           0        8.850544    1.846000   -1.092345
     54          6           0        9.894006    2.127421   -2.086907
     55          6           0        9.452724    2.998565   -3.228059
     56          6           0       10.528722    0.778692   -2.586518
     57          6           0       11.529766    0.209599   -1.552811
     58          6           0       12.945211    0.218955   -2.124019
     59          6           0       13.986416    0.752183   -1.191699
     60          6           0       15.313680    1.236071   -2.004512
     61          6           0       14.187423   -0.245979   -0.040758
     62          6           0       13.895247    0.458519    1.330408
     63          6           0       13.353193   -0.528463    2.466279
     64          6           0       11.889197   -0.155430    2.827074
     65          6           0       11.702545    0.963085    3.868766
     66          6           0       11.124194   -1.415786    3.366109
     67          1           0       -2.359817    3.214658    0.380243
     68          1           0       -8.697827    3.726385    0.091961
     69          1           0       -9.373388   -2.479536   -0.680624
     70          1           0       -1.157596   -1.317143    0.720781
     71          1           0       -0.752030    1.089445   -0.886783
     72          1           0        0.226036    0.285077    1.542232
     73          1           0       -1.107316    1.428411    1.993218
     74          1           0        0.221025    1.974973    0.957145
     75          1           0       -0.624781   -0.631265   -2.234568
     76          1           0       -1.523792   -2.064838   -1.996199
     77          1           0        1.041903   -2.229424   -2.166003
     78          1           0        0.026321   -3.230364   -1.197130
     79          1           0       -3.514729    6.100555    0.070350
     80          1           0       -2.736778    5.047805    1.330821
     81          1           0       -3.985914    6.124709    1.771624
     82          1           0       -5.380028    7.272321    0.041910
     83          1           0       -5.904357    7.569087    1.665880
     84          1           0       -6.864082    7.989250    0.181454
     85          1           0      -10.463574    2.235251   -0.712387
     86          1           0      -10.937499   -0.464193    0.308094
     87          1           0      -10.227800    2.377024    2.134264
     88          1           0      -11.280999    1.032606    1.875591
     89          1           0      -11.697519    2.585933    1.164262
     90          1           0      -10.061907   -0.879739   -2.439893
     91          1           0      -10.548104    0.715422   -2.480134
     92          1           0      -12.629347    0.078312   -2.688081
     93          1           0      -12.462317   -0.831355   -1.143672
     94          1           0      -12.029897   -1.583676   -2.745337
     95          1           0       -7.494261   -5.704981   -1.249926
     96          1           0       -8.778880   -4.374064   -1.235911
     97          1           0       -8.291172   -5.200518    0.243541
     98          1           0       -2.329558   -3.867759   -1.034375
     99          1           0       -0.779508   -5.731668    2.504516
    100          1           0       -0.024154   -4.152066    2.696360
    101          1           0        0.743944   -5.219270    1.661403
    102          1           0        3.837299   -1.489022    1.235483
    103          1           0        2.911859   -0.146729    0.770192
    104          1           0        4.754293   -0.935152   -1.481015
    105          1           0        6.844578   -0.621382    1.983444
    106          1           0        5.618876    0.609854    2.019201
    107          1           0        7.184353    1.068859    1.334294
    108          1           0        7.015456   -0.934039   -1.785731
    109          1           0        8.111993   -0.763190   -0.473140
    110          1           0        6.756402    1.809754   -1.468155
    111          1           0        7.669644    0.956702   -2.761429
    112          1           0        9.253568    1.234452   -0.285439
    113          1           0        8.460032    2.785565   -0.700875
    114          1           0       10.691957    2.653117   -1.563153
    115          1           0       10.297257    3.102908   -3.909553
    116          1           0        9.206332    4.019974   -2.936330
    117          1           0        8.586004    2.619963   -3.769570
    118          1           0       10.935963    0.769563   -3.597485
    119          1           0        9.784710   -0.001724   -2.743358
    120          1           0       11.418678   -0.869653   -1.456573
    121          1           0       11.656780    0.780439   -0.633391
    122          1           0       12.953474    0.806636   -3.042614
    123          1           0       13.271318   -0.749465   -2.503803
    124          1           0       13.689171    1.713198   -0.770913
    125          1           0       16.093664    1.511893   -1.295269
    126          1           0       15.158537    2.013083   -2.752208
    127          1           0       15.723709    0.483025   -2.678269
    128          1           0       15.232903   -0.553208   -0.008290
    129          1           0       13.581308   -1.138930   -0.192996
    130          1           0       13.275147    1.350664    1.241785
    131          1           0       14.915605    0.612021    1.681144
    132          1           0       13.980337   -0.301175    3.329636
    133          1           0       13.525392   -1.564233    2.176283
    134          1           0       11.267998    0.122845    1.975518
    135          1           0       11.327362    0.549125    4.804467
    136          1           0       11.017673    1.716113    3.475799
    137          1           0       12.650983    1.424712    4.142756
    138          1           0       10.953137   -1.417409    4.442259
    139          1           0       11.534409   -2.365930    3.024246
    140          1           0       10.100358   -1.339350    3.000982
 ---------------------------------------------------------------------

 SCF Done:  E(RB-LYP) =  -3007.36953086     A.U. after   21 cycles

 Excitation energies and oscillator strengths:

 Excited State   1:      Singlet-A      1.7978 eV  689.63 nm  f=0.3065  <S**2>=0.000
     245 -> 248        0.12652
     245 -> 249       -0.13719
     246 -> 247        0.69088
     246 <- 247       -0.15840
 This state for optimization and/or second-order correction.
 Total Energy, E(TD-HF/TD-DFT) =  -3007.30346137
 Copying the excited state density for this state as the 1-particle RhoCI density.

 Excited State   2:      Singlet-A      1.9537 eV  634.60 nm  f=0.0698  <S**2>=0.000
     244 -> 247       -0.38531
     245 -> 247        0.55069
     246 -> 248       -0.11794
     246 -> 249        0.11963

 Excited State   3:      Singlet-A      2.0154 eV  615.17 nm  f=0.0305  <S**2>=0.000
     244 -> 247        0.58710
     245 -> 247        0.34910

 Excited State   4:      Singlet-A      2.1970 eV  564.33 nm  f=0.0080  <S**2>=0.000
     243 -> 247        0.69124
     245 -> 247       -0.10449

 Excited State   5:      Singlet-A      2.5162 eV  492.75 nm  f=0.0091  <S**2>=0.000
     240 -> 247        0.22434
     241 -> 247        0.39512
     242 -> 247        0.52359

 The electronic state is 1-A.
 Alpha  occ. eigenvalues --  -46.26897 -18.84066 -18.81658 -18.78834 -18.76063
 Alpha  occ. eigenvalues --  -18.75579 -18.74901 -14.02742 -14.02726 -14.00767
 Alpha  occ. eigenvalues --  -14.00491 -10.05660 -10.02643 -10.00357  -9.99735
 Alpha  occ. eigenvalues --   -9.99286  -9.97489  -9.96579  -9.96103  -9.95977
 Alpha  occ. eigenvalues --   -9.95620  -9.95126  -9.95090  -9.94630  -9.94580
 Alpha  occ. eigenvalues --   -9.94136  -9.93889  -9.93853  -9.93795  -9.93740
 Alpha  occ. eigenvalues --   -9.93505  -9.93410  -9.93347  -9.93234  -9.93189
 Alpha  occ. eigenvalues --   -9.93183  -9.93093  -9.92893  -9.92654  -9.92595
 Alpha  occ. eigenvalues --   -9.92547  -9.92311  -9.92245  -9.92226  -9.92118
 Alpha  occ. eigenvalues --   -9.92058  -9.92050  -9.92000  -9.91970  -9.91866
 Alpha  occ. eigenvalues --   -9.91822  -9.91736  -9.91563  -9.91475  -9.91422
 Alpha  occ. eigenvalues --   -9.91403  -9.91354  -9.91336  -9.91261  -9.91247
 Alpha  occ. eigenvalues --   -9.91216  -9.91114  -9.91084  -9.91081  -9.90649
 Alpha  occ. eigenvalues --   -9.90228  -2.91622  -1.72014  -1.71515  -1.71343
 Alpha  occ. eigenvalues --   -0.99022  -0.97359  -0.92188  -0.91481  -0.89822
 Alpha  occ. eigenvalues --   -0.88827  -0.86776  -0.85684  -0.85248  -0.84198
 Alpha  occ. eigenvalues --   -0.74762  -0.74341  -0.72876  -0.72184  -0.71849
 Alpha  occ. eigenvalues --   -0.71686  -0.71412  -0.71087  -0.70287  -0.70123
 Alpha  occ. eigenvalues --   -0.69727  -0.68644  -0.67797  -0.67707  -0.67236
 Alpha  occ. eigenvalues --   -0.66411  -0.65681  -0.65245  -0.64754  -0.64543
 Alpha  occ. eigenvalues --   -0.64146  -0.62358  -0.61794  -0.61522  -0.60975
 Alpha  occ. eigenvalues --   -0.60707  -0.59887  -0.59789  -0.59480  -0.59245
 Alpha  occ. eigenvalues --   -0.58597  -0.57278  -0.56351  -0.55582  -0.54134
 Alpha  occ. eigenvalues --   -0.53642  -0.53194  -0.53181  -0.52791  -0.51613
 Alpha  occ. eigenvalues --   -0.51351  -0.51210  -0.50892  -0.50408  -0.50266
 Alpha  occ. eigenvalues --   -0.49916  -0.48944  -0.48317  -0.48179  -0.46632
 Alpha  occ. eigenvalues --   -0.46255  -0.45525  -0.45176  -0.45128  -0.44279
 Alpha  occ. eigenvalues --   -0.43717  -0.43324  -0.43097  -0.42649  -0.42531
 Alpha  occ. eigenvalues --   -0.42006  -0.41778  -0.41459  -0.41377  -0.41025
 Alpha  occ. eigenvalues --   -0.40863  -0.40574  -0.40395  -0.40267  -0.39844
 Alpha  occ. eigenvalues --   -0.39793  -0.39663  -0.39550  -0.39454  -0.39292
 Alpha  occ. eigenvalues --   -0.39196  -0.38586  -0.38429  -0.38351  -0.37996
 Alpha  occ. eigenvalues --   -0.37953  -0.37882  -0.37700  -0.37551  -0.37295
 Alpha  occ. eigenvalues --   -0.36868  -0.36768  -0.36390  -0.36292  -0.36265
 Alpha  occ. eigenvalues --   -0.36176  -0.35931  -0.35851  -0.35697  -0.35513
 Alpha  occ. eigenvalues --   -0.35311  -0.35261  -0.35110  -0.34987  -0.34507
 Alpha  occ. eigenvalues --   -0.34300  -0.34214  -0.34015  -0.33925  -0.33828
 Alpha  occ. eigenvalues --   -0.33765  -0.33452  -0.33323  -0.33195  -0.33153
 Alpha  occ. eigenvalues --   -0.32796  -0.32669  -0.32300  -0.32174  -0.32125
 Alpha  occ. eigenvalues --   -0.31935  -0.31803  -0.31738  -0.31643  -0.31464
 Alpha  occ. eigenvalues --   -0.31232  -0.31057  -0.30998  -0.30717  -0.30530
 Alpha  occ. eigenvalues --   -0.30474  -0.30131  -0.29972  -0.29944  -0.29576
 Alpha  occ. eigenvalues --   -0.29505  -0.29420  -0.29381  -0.29249  -0.29238
 Alpha  occ. eigenvalues --   -0.28578  -0.28443  -0.28409  -0.28062  -0.27946
 Alpha  occ. eigenvalues --   -0.27471  -0.27379  -0.27278  -0.26979  -0.26481
 Alpha  occ. eigenvalues --   -0.26284  -0.26166  -0.25911  -0.25674  -0.25208
 Alpha  occ. eigenvalues --   -0.25042  -0.24432  -0.24376  -0.24023  -0.23425
 Alpha  occ. eigenvalues --   -0.23376  -0.22891  -0.21847  -0.20849  -0.20745
 Alpha  occ. eigenvalues --   -0.20425  -0.19946  -0.19265  -0.18524  -0.16846
 Alpha  occ. eigenvalues --   -0.15456
 Alpha virt. eigenvalues --   -0.11313  -0.06442  -0.05962  -0.04807  -0.04554
 Alpha virt. eigenvalues --   -0.03053  -0.02416  -0.01500  -0.01189   0.00442
 Alpha virt. eigenvalues --    0.00650   0.01669   0.02548   0.02761   0.03010

 Mulliken charges:
               1
     1  Mg   0.697846
     2  C    0.004396
     3  C   -0.069020
     4  C   -0.027071
     5  C   -0.090332
     6  N   -0.180340
     7  C   -0.064147
     8  C    0.036061
     9  C   -0.019143
    10  C    0.012056
    11  C    0.073722
    12  C    0.102163
    13  C    0.105578
    14  C    0.115990
    15  O   -0.202095
    16  O   -0.251238
    17  N   -0.213813
    18  C    0.139916
    19  C   -0.166649
    20  C    0.048762
    21  C    0.069707
    22  C    0.160331
    23  C   -0.048274
    24  O   -0.147351
    25  C    0.107951
    26  N   -0.260509
    27  C   -0.022300
    28  C    0.027013
    29  C    0.056029
    30  C    0.064777
    31  C    0.137790
    32  C    0.041285
    33  C    0.084282
    34  N   -0.307257
    35  C    0.144857
    36  C   -0.191470
    37  C    0.102633
    38  C    0.076113
    39  C    0.194708
    40  C   -0.054111
    41  O   -0.152810
    42  C    0.085104
    43  C    0.094053
    44  O   -0.179374
    45  O   -0.261187
    46  C    0.225684
    47  C    0.280050
    48  C   -0.082161
    49  C   -0.160011
    50  C    0.102769
    51  C    0.110796
    52  C    0.054744
    53  C    0.106472
    54  C   -0.020024
    55  C    0.110277
    56  C    0.107178
    57  C    0.082998
    58  C    0.063052
    59  C   -0.068552
    60  C    0.071745
    61  C    0.126780
    62  C    0.031339
    63  C    0.120506
    64  C   -0.107670
    65  C    0.110788
    66  C    0.078670
    67  H   -0.071140
    68  H   -0.040306
    69  H   -0.059747
    70  H    0.015140
    71  H   -0.018342
    72  H    0.024753
    73  H   -0.005277
    74  H   -0.012926
    75  H   -0.023936
    76  H   -0.027240
    77  H   -0.018694
    78  H    0.005354
    79  H    0.018869
    80  H   -0.012096
    81  H   -0.018635
    82  H   -0.014595
    83  H    0.023947
    84  H   -0.011553
    85  H   -0.017019
    86  H   -0.021447
    87  H    0.004663
    88  H   -0.020076
    89  H   -0.005278
    90  H   -0.025244
    91  H   -0.033835
    92  H   -0.009893
    93  H   -0.016742
    94  H   -0.006350
    95  H    0.014464
    96  H   -0.006165
    97  H    0.003650
    98  H   -0.017069
    99  H    0.022321
   100  H    0.017393
   101  H    0.013216
   102  H    0.007580
   103  H    0.002138
   104  H   -0.023950
   105  H    0.017214
   106  H   -0.012157
   107  H    0.008409
   108  H   -0.043588
   109  H   -0.008466
   110  H   -0.022503
   111  H   -0.003245
   112  H   -0.022682
   113  H   -0.039070
   114  H   -0.047327
   115  H   -0.018239
   116  H   -0.025687
   117  H   -0.016692
   118  H   -0.041858
   119  H   -0.052312
   120  H   -0.030411
   121  H   -0.001158
   122  H   -0.057283
   123  H   -0.040259
   124  H   -0.032505
   125  H   -0.014771
   126  H   -0.018371
   127  H   -0.029374
   128  H   -0.038235
   129  H   -0.027163
   130  H   -0.006135
   131  H   -0.031763
   132  H   -0.035914
   133  H   -0.028570
   134  H   -0.020573
   135  H   -0.017771
   136  H   -0.011124
   137  H   -0.020108
   138  H   -0.018812
   139  H   -0.015472
   140  H   -0.032021
 Sum of Mulliken charges =  -0.00000

 Dipole moment (field-independent basis, Debye):
    X=              4.5727    Y=              3.8408    Z=             -3.0837  Tot=              6.7209
 Quadrupole moment (field-independent basis, Debye-Ang):
   XX=           -377.9883   YY=           -431.2237   ZZ=           -405.0680
   XY=             -1.2278   XZ=             21.5819   YZ=              1.6088

 Normal termination of Gaussian 16 at Fri Apr 29 11:19:00 2022.
