 Gaussian 16, Revision A.03,
 Gaussian 16:  ES64L-G16RevA.03 25-Dec-2016

 -----------------------------------
 #p cam-b3lyp/Def2SVP td=(nstates=5)
 -----------------------------------

 -------------------------------------------------------
 step_251_chromophore_19 TDDFT with cam-b3lyp functional
 -------------------------------------------------------
 Symbolic Z-matrix:
 Charge =  0 Multiplicity = 1

                         Standard orientation:
 ---------------------------------------------------------------------
 Center     Atomic      Atomic             Coordinates (Angstroms)
 Number     Number       Type             X           Y           Z
 ---------------------------------------------------------------------
      1         12           0       -5.972389    0.427724   -0.321117
      2          6           0       -3.657172   -2.303708   -0.203343
      3          6           0       -3.191033    2.515062    0.271043
      4          6           0       -7.984571    2.928562    0.312206
      5          6           0       -8.527442   -1.806363   -0.528542
      6          7           0       -3.696033    0.106297   -0.059753
      7          6           0       -3.059989   -1.084814   -0.169290
      8          6           0       -1.560696   -0.835900   -0.170309
      9          6           0       -1.328169    0.696532   -0.048885
     10          6           0       -2.797612    1.153735    0.027812
     11          6           0       -0.399137    1.119379    1.223963
     12          6           0       -0.847249   -1.384114   -1.479615
     13          6           0        0.418623   -2.216135   -1.271636
     14          6           0        1.403914   -1.914989   -0.071904
     15          8           0        1.083850   -1.951722    1.119282
     16          8           0        2.633705   -1.621888   -0.615153
     17          7           0       -5.629777    2.451935    0.274629
     18          6           0       -4.475129    3.066877    0.419542
     19          6           0       -4.756284    4.422798    0.798857
     20          6           0       -6.147257    4.676218    0.691203
     21          6           0       -6.640658    3.344169    0.458104
     22          6           0       -3.664285    5.479974    0.954029
     23          6           0       -7.002266    5.933730    0.694462
     24          8           0       -8.218675    5.908084    0.653131
     25          6           0       -6.256824    7.239958    0.689360
     26          7           0       -7.950359    0.458885    0.211379
     27          6           0       -8.614660    1.686714    0.226759
     28          6           0      -10.153892    1.548308    0.074736
     29          6           0      -10.227876    0.033962   -0.352626
     30          6           0       -8.799142   -0.493796   -0.222562
     31          6           0      -10.868140    1.912951    1.384257
     32          6           0      -10.678257   -0.180740   -1.874577
     33          6           0      -12.059957   -0.674662   -2.144672
     34          7           0       -6.099374   -1.580802   -0.472867
     35          6           0       -7.234707   -2.360716   -0.518636
     36          6           0       -6.941820   -3.790845   -0.471705
     37          6           0       -5.506969   -3.829699   -0.349750
     38          6           0       -5.071978   -2.488612   -0.230798
     39          6           0       -7.942594   -4.857982   -0.731719
     40          6           0       -4.335360   -4.692177   -0.348394
     41          8           0       -4.315347   -5.931669   -0.458326
     42          6           0       -3.033964   -3.714033   -0.217997
     43          6           0       -2.402989   -4.099871    1.034259
     44          8           0       -2.972626   -4.098474    2.103585
     45          8           0       -1.121624   -4.441009    0.853439
     46          6           0       -0.260145   -4.933584    1.973696
     47          6           0        3.511252   -0.952202    0.344408
     48          6           0        4.862719   -0.704158   -0.421819
     49          6           0        6.076886   -0.231718   -0.029064
     50          6           0        6.472982    0.250172    1.444675
     51          6           0        7.298497   -0.249278   -0.985008
     52          6           0        7.579542    1.130442   -1.688281
     53          6           0        8.850544    1.846000   -1.092345
     54          6           0        9.894006    2.127421   -2.086907
     55          6           0        9.452724    2.998565   -3.228059
     56          6           0       10.528722    0.778692   -2.586518
     57          6           0       11.529766    0.209599   -1.552811
     58          6           0       12.945211    0.218955   -2.124019
     59          6           0       13.986416    0.752183   -1.191699
     60          6           0       15.313680    1.236071   -2.004512
     61          6           0       14.187423   -0.245979   -0.040758
     62          6           0       13.895247    0.458519    1.330408
     63          6           0       13.353193   -0.528463    2.466279
     64          6           0       11.889197   -0.155430    2.827074
     65          6           0       11.702545    0.963085    3.868766
     66          6           0       11.124194   -1.415786    3.366109
     67          1           0       -2.359817    3.214658    0.380243
     68          1           0       -8.697827    3.726385    0.091961
     69          1           0       -9.373388   -2.479536   -0.680624
     70          1           0       -1.157596   -1.317143    0.720781
     71          1           0       -0.752030    1.089445   -0.886783
     72          1           0        0.226036    0.285077    1.542232
     73          1           0       -1.107316    1.428411    1.993218
     74          1           0        0.221025    1.974973    0.957145
     75          1           0       -0.624781   -0.631265   -2.234568
     76          1           0       -1.523792   -2.064838   -1.996199
     77          1           0        1.041903   -2.229424   -2.166003
     78          1           0        0.026321   -3.230364   -1.197130
     79          1           0       -3.514729    6.100555    0.070350
     80          1           0       -2.736778    5.047805    1.330821
     81          1           0       -3.985914    6.124709    1.771624
     82          1           0       -5.380028    7.272321    0.041910
     83          1           0       -5.904357    7.569087    1.665880
     84          1           0       -6.864082    7.989250    0.181454
     85          1           0      -10.463574    2.235251   -0.712387
     86          1           0      -10.937499   -0.464193    0.308094
     87          1           0      -10.227800    2.377024    2.134264
     88          1           0      -11.280999    1.032606    1.875591
     89          1           0      -11.697519    2.585933    1.164262
     90          1           0      -10.061907   -0.879739   -2.439893
     91          1           0      -10.548104    0.715422   -2.480134
     92          1           0      -12.629347    0.078312   -2.688081
     93          1           0      -12.462317   -0.831355   -1.143672
     94          1           0      -12.029897   -1.583676   -2.745337
     95          1           0       -7.494261   -5.704981   -1.249926
     96          1           0       -8.778880   -4.374064   -1.235911
     97          1           0       -8.291172   -5.200518    0.243541
     98          1           0       -2.329558   -3.867759   -1.034375
     99          1           0       -0.779508   -5.731668    2.504516
    100          1           0       -0.024154   -4.152066    2.696360
    101          1           0        0.743944   -5.219270    1.661403
    102          1           0        3.837299   -1.489022    1.235483
    103          1           0        2.911859   -0.146729    0.770192
    104          1           0        4.754293   -0.935152   -1.481015
    105          1           0        6.844578   -0.621382    1.983444
    106          1           0        5.618876    0.609854    2.019201
    107          1           0        7.184353    1.068859    1.334294
    108          1           0        7.015456   -0.934039   -1.785731
    109          1           0        8.111993   -0.763190   -0.473140
    110          1           0        6.756402    1.809754   -1.468155
    111          1           0        7.669644    0.956702   -2.761429
    112          1           0        9.253568    1.234452   -0.285439
    113          1           0        8.460032    2.785565   -0.700875
    114          1           0       10.691957    2.653117   -1.563153
    115          1           0       10.297257    3.102908   -3.909553
    116          1           0        9.206332    4.019974   -2.936330
    117          1           0        8.586004    2.619963   -3.769570
    118          1           0       10.935963    0.769563   -3.597485
    119          1           0        9.784710   -0.001724   -2.743358
    120          1           0       11.418678   -0.869653   -1.456573
    121          1           0       11.656780    0.780439   -0.633391
    122          1           0       12.953474    0.806636   -3.042614
    123          1           0       13.271318   -0.749465   -2.503803
    124          1           0       13.689171    1.713198   -0.770913
    125          1           0       16.093664    1.511893   -1.295269
    126          1           0       15.158537    2.013083   -2.752208
    127          1           0       15.723709    0.483025   -2.678269
    128          1           0       15.232903   -0.553208   -0.008290
    129          1           0       13.581308   -1.138930   -0.192996
    130          1           0       13.275147    1.350664    1.241785
    131          1           0       14.915605    0.612021    1.681144
    132          1           0       13.980337   -0.301175    3.329636
    133          1           0       13.525392   -1.564233    2.176283
    134          1           0       11.267998    0.122845    1.975518
    135          1           0       11.327362    0.549125    4.804467
    136          1           0       11.017673    1.716113    3.475799
    137          1           0       12.650983    1.424712    4.142756
    138          1           0       10.953137   -1.417409    4.442259
    139          1           0       11.534409   -2.365930    3.024246
    140          1           0       10.100358   -1.339350    3.000982
 ---------------------------------------------------------------------

 SCF Done:  E(RCAM-B3LYP) =  -3007.16075035     A.U. after   17 cycles

 Excitation energies and oscillator strengths:

 Excited State   1:      Singlet-A      1.6798 eV  738.08 nm  f=0.3959  <S**2>=0.000
     245 -> 248       -0.17174
     246 -> 247        0.68718
     245 <- 248       -0.10673
 This state for optimization and/or second-order correction.
 Total Energy, E(TD-HF/TD-DFT) =  -3007.09901814
 Copying the excited state density for this state as the 1-particle RhoCI density.

 Excited State   2:      Singlet-A      2.1980 eV  564.08 nm  f=0.1435  <S**2>=0.000
     245 -> 247        0.65079
     246 -> 248        0.26105

 Excited State   3:      Singlet-A      3.3271 eV  372.65 nm  f=0.0034  <S**2>=0.000
     243 -> 247       -0.10255
     244 -> 247        0.67983

 Excited State   4:      Singlet-A      3.4831 eV  355.96 nm  f=0.0005  <S**2>=0.000
     240 -> 247        0.16177
     242 -> 247        0.39566
     242 -> 249       -0.22190
     242 -> 251        0.20295
     243 -> 247        0.42123

 Excited State   5:      Singlet-A      3.5190 eV  352.33 nm  f=0.1507  <S**2>=0.000
     242 -> 247        0.33037
     243 -> 247       -0.38103
     245 -> 247       -0.13036
     246 -> 248        0.43100

 The electronic state is 1-A.
 Alpha  occ. eigenvalues --  -46.88402 -19.26962 -19.24634 -19.21840 -19.19366
 Alpha  occ. eigenvalues --  -19.18764 -19.17968 -14.41629 -14.41501 -14.39151
 Alpha  occ. eigenvalues --  -14.38875 -10.41084 -10.37978 -10.35626 -10.35204
 Alpha  occ. eigenvalues --  -10.33407 -10.31569 -10.31090 -10.30534 -10.30320
 Alpha  occ. eigenvalues --  -10.30029 -10.29435 -10.29376 -10.28951 -10.28803
 Alpha  occ. eigenvalues --  -10.28375 -10.28274 -10.27967 -10.27921 -10.27813
 Alpha  occ. eigenvalues --  -10.27768 -10.27627 -10.27465 -10.27368 -10.27347
 Alpha  occ. eigenvalues --  -10.27109 -10.26945 -10.26929 -10.26850 -10.26497
 Alpha  occ. eigenvalues --  -10.26373 -10.26354 -10.26022 -10.26019 -10.25973
 Alpha  occ. eigenvalues --  -10.25928 -10.25886 -10.25758 -10.25752 -10.25662
 Alpha  occ. eigenvalues --  -10.25620 -10.25370 -10.25343 -10.25308 -10.25266
 Alpha  occ. eigenvalues --  -10.25182 -10.25110 -10.24989 -10.24916 -10.24900
 Alpha  occ. eigenvalues --  -10.24897 -10.24770 -10.24696 -10.24662 -10.24260
 Alpha  occ. eigenvalues --  -10.23851  -3.17031  -1.91897  -1.91492  -1.91342
 Alpha  occ. eigenvalues --   -1.17456  -1.15933  -1.10684  -1.09372  -1.08162
 Alpha  occ. eigenvalues --   -1.06802  -1.04434  -1.03294  -1.02900  -1.01658
 Alpha  occ. eigenvalues --   -0.91897  -0.91226  -0.89660  -0.88918  -0.88460
 Alpha  occ. eigenvalues --   -0.88378  -0.88026  -0.87679  -0.86882  -0.86827
 Alpha  occ. eigenvalues --   -0.86213  -0.84925  -0.83993  -0.83873  -0.83357
 Alpha  occ. eigenvalues --   -0.82432  -0.81829  -0.81279  -0.80586  -0.80410
 Alpha  occ. eigenvalues --   -0.79887  -0.78090  -0.77302  -0.77097  -0.76382
 Alpha  occ. eigenvalues --   -0.76131  -0.75202  -0.75101  -0.74713  -0.74482
 Alpha  occ. eigenvalues --   -0.73688  -0.72272  -0.71230  -0.70361  -0.68721
 Alpha  occ. eigenvalues --   -0.68290  -0.67658  -0.67617  -0.67303  -0.65938
 Alpha  occ. eigenvalues --   -0.65389  -0.65203  -0.65008  -0.64426  -0.64211
 Alpha  occ. eigenvalues --   -0.63923  -0.62827  -0.61947  -0.61916  -0.60321
 Alpha  occ. eigenvalues --   -0.59751  -0.59043  -0.58613  -0.58475  -0.57767
 Alpha  occ. eigenvalues --   -0.57292  -0.56729  -0.56296  -0.55927  -0.55863
 Alpha  occ. eigenvalues --   -0.55234  -0.55110  -0.54564  -0.54065  -0.53901
 Alpha  occ. eigenvalues --   -0.53457  -0.53215  -0.53104  -0.52954  -0.52822
 Alpha  occ. eigenvalues --   -0.52670  -0.52423  -0.52102  -0.52006  -0.51952
 Alpha  occ. eigenvalues --   -0.51600  -0.50959  -0.50915  -0.50622  -0.50441
 Alpha  occ. eigenvalues --   -0.50321  -0.50213  -0.50173  -0.49872  -0.49806
 Alpha  occ. eigenvalues --   -0.49451  -0.49017  -0.48832  -0.48728  -0.48521
 Alpha  occ. eigenvalues --   -0.48424  -0.48188  -0.48110  -0.48035  -0.47708
 Alpha  occ. eigenvalues --   -0.47504  -0.47329  -0.47103  -0.46875  -0.46545
 Alpha  occ. eigenvalues --   -0.46249  -0.45930  -0.45893  -0.45775  -0.45637
 Alpha  occ. eigenvalues --   -0.45445  -0.45281  -0.45001  -0.44887  -0.44753
 Alpha  occ. eigenvalues --   -0.44691  -0.44514  -0.44092  -0.43898  -0.43581
 Alpha  occ. eigenvalues --   -0.43478  -0.43350  -0.43252  -0.43116  -0.43084
 Alpha  occ. eigenvalues --   -0.42734  -0.42565  -0.42501  -0.42369  -0.42152
 Alpha  occ. eigenvalues --   -0.41728  -0.41528  -0.41195  -0.41139  -0.41105
 Alpha  occ. eigenvalues --   -0.41043  -0.40719  -0.40525  -0.40332  -0.40297
 Alpha  occ. eigenvalues --   -0.39996  -0.39552  -0.39322  -0.38942  -0.38855
 Alpha  occ. eigenvalues --   -0.38531  -0.38310  -0.38230  -0.37935  -0.37595
 Alpha  occ. eigenvalues --   -0.37424  -0.36863  -0.36667  -0.36195  -0.36129
 Alpha  occ. eigenvalues --   -0.35797  -0.35600  -0.34924  -0.34860  -0.34389
 Alpha  occ. eigenvalues --   -0.34166  -0.33257  -0.32768  -0.31510  -0.30981
 Alpha  occ. eigenvalues --   -0.30526  -0.30495  -0.29866  -0.29176  -0.23608
 Alpha  occ. eigenvalues --   -0.20729
 Alpha virt. eigenvalues --   -0.08504  -0.00887   0.00327   0.01963   0.02265
 Alpha virt. eigenvalues --    0.03087   0.05022   0.05749   0.06536   0.06562
 Alpha virt. eigenvalues --    0.07707   0.08454   0.08852   0.09052   0.09293

 Mulliken charges:
               1
     1  Mg   0.828616
     2  C   -0.029955
     3  C   -0.081513
     4  C   -0.048737
     5  C   -0.098526
     6  N   -0.249360
     7  C   -0.019289
     8  C   -0.026598
     9  C   -0.061827
    10  C    0.029278
    11  C    0.022620
    12  C    0.049598
    13  C    0.045263
    14  C    0.191317
    15  O   -0.244195
    16  O   -0.316991
    17  N   -0.302697
    18  C    0.146107
    19  C   -0.169030
    20  C   -0.020434
    21  C    0.093234
    22  C    0.099892
    23  C    0.033512
    24  O   -0.187382
    25  C    0.024391
    26  N   -0.332172
    27  C   -0.001233
    28  C   -0.024804
    29  C   -0.002560
    30  C    0.080410
    31  C    0.078752
    32  C   -0.014942
    33  C    0.024004
    34  N   -0.395388
    35  C    0.148716
    36  C   -0.179205
    37  C    0.025572
    38  C    0.118482
    39  C    0.137557
    40  C    0.043741
    41  O   -0.192073
    42  C    0.009910
    43  C    0.188518
    44  O   -0.216190
    45  O   -0.328217
    46  C    0.187912
    47  C    0.257007
    48  C   -0.108381
    49  C   -0.180424
    50  C    0.051549
    51  C    0.052489
    52  C   -0.002839
    53  C    0.059079
    54  C   -0.083052
    55  C    0.053416
    56  C    0.049643
    57  C    0.030223
    58  C    0.015525
    59  C   -0.127274
    60  C    0.020510
    61  C    0.071164
    62  C   -0.023142
    63  C    0.067729
    64  C   -0.166037
    65  C    0.051389
    66  C    0.025231
    67  H   -0.034907
    68  H   -0.002448
    69  H   -0.024336
    70  H    0.049691
    71  H    0.015050
    72  H    0.045224
    73  H    0.020891
    74  H    0.009796
    75  H    0.006998
    76  H    0.003543
    77  H    0.017691
    78  H    0.034315
    79  H    0.043557
    80  H    0.015603
    81  H    0.008063
    82  H    0.015083
    83  H    0.051821
    84  H    0.022995
    85  H    0.017198
    86  H    0.012433
    87  H    0.031312
    88  H    0.004606
    89  H    0.018851
    90  H    0.006014
    91  H   -0.004483
    92  H    0.013902
    93  H    0.005042
    94  H    0.016841
    95  H    0.041738
    96  H    0.016439
    97  H    0.031210
    98  H    0.025810
    99  H    0.046604
   100  H    0.040803
   101  H    0.036313
   102  H    0.033379
   103  H    0.026865
   104  H    0.009667
   105  H    0.039494
   106  H    0.011673
   107  H    0.028340
   108  H   -0.011001
   109  H    0.017749
   110  H    0.007882
   111  H    0.022315
   112  H    0.001530
   113  H   -0.008943
   114  H   -0.014420
   115  H    0.006516
   116  H    0.000400
   117  H    0.006064
   118  H   -0.010869
   119  H   -0.022980
   120  H   -0.000725
   121  H    0.018711
   122  H   -0.027469
   123  H   -0.011370
   124  H   -0.001642
   125  H    0.008695
   126  H    0.005918
   127  H   -0.006077
   128  H   -0.007695
   129  H    0.000212
   130  H    0.017375
   131  H   -0.002071
   132  H   -0.006851
   133  H   -0.000512
   134  H    0.006796
   135  H    0.006344
   136  H    0.012276
   137  H    0.003836
   138  H    0.004194
   139  H    0.008344
   140  H   -0.009104
 Sum of Mulliken charges =  -0.00000

 Dipole moment (field-independent basis, Debye):
    X=              4.8649    Y=              4.3594    Z=             -3.2487  Tot=              7.2956
 Quadrupole moment (field-independent basis, Debye-Ang):
   XX=           -377.3110   YY=           -426.9773   ZZ=           -404.6853
   XY=             -3.7552   XZ=             22.2742   YZ=              2.0524

 Normal termination of Gaussian 16 at Fri Apr 29 10:15:33 2022.
