 Gaussian 16, Revision A.03,
 Gaussian 16:  ES64L-G16RevA.03 25-Dec-2016

 ---------------------------------
 #p PBE1PBE/Def2SVP td=(nstates=5)
 ---------------------------------

 -----------------------------------------------------
 step_251_chromophore_19 TDDFT with PBE1PBE functional
 -----------------------------------------------------
 Symbolic Z-matrix:
 Charge =  0 Multiplicity = 1

                         Standard orientation:
 ---------------------------------------------------------------------
 Center     Atomic      Atomic             Coordinates (Angstroms)
 Number     Number       Type             X           Y           Z
 ---------------------------------------------------------------------
      1         12           0       -5.972389    0.427724   -0.321117
      2          6           0       -3.657172   -2.303708   -0.203343
      3          6           0       -3.191033    2.515062    0.271043
      4          6           0       -7.984571    2.928562    0.312206
      5          6           0       -8.527442   -1.806363   -0.528542
      6          7           0       -3.696033    0.106297   -0.059753
      7          6           0       -3.059989   -1.084814   -0.169290
      8          6           0       -1.560696   -0.835900   -0.170309
      9          6           0       -1.328169    0.696532   -0.048885
     10          6           0       -2.797612    1.153735    0.027812
     11          6           0       -0.399137    1.119379    1.223963
     12          6           0       -0.847249   -1.384114   -1.479615
     13          6           0        0.418623   -2.216135   -1.271636
     14          6           0        1.403914   -1.914989   -0.071904
     15          8           0        1.083850   -1.951722    1.119282
     16          8           0        2.633705   -1.621888   -0.615153
     17          7           0       -5.629777    2.451935    0.274629
     18          6           0       -4.475129    3.066877    0.419542
     19          6           0       -4.756284    4.422798    0.798857
     20          6           0       -6.147257    4.676218    0.691203
     21          6           0       -6.640658    3.344169    0.458104
     22          6           0       -3.664285    5.479974    0.954029
     23          6           0       -7.002266    5.933730    0.694462
     24          8           0       -8.218675    5.908084    0.653131
     25          6           0       -6.256824    7.239958    0.689360
     26          7           0       -7.950359    0.458885    0.211379
     27          6           0       -8.614660    1.686714    0.226759
     28          6           0      -10.153892    1.548308    0.074736
     29          6           0      -10.227876    0.033962   -0.352626
     30          6           0       -8.799142   -0.493796   -0.222562
     31          6           0      -10.868140    1.912951    1.384257
     32          6           0      -10.678257   -0.180740   -1.874577
     33          6           0      -12.059957   -0.674662   -2.144672
     34          7           0       -6.099374   -1.580802   -0.472867
     35          6           0       -7.234707   -2.360716   -0.518636
     36          6           0       -6.941820   -3.790845   -0.471705
     37          6           0       -5.506969   -3.829699   -0.349750
     38          6           0       -5.071978   -2.488612   -0.230798
     39          6           0       -7.942594   -4.857982   -0.731719
     40          6           0       -4.335360   -4.692177   -0.348394
     41          8           0       -4.315347   -5.931669   -0.458326
     42          6           0       -3.033964   -3.714033   -0.217997
     43          6           0       -2.402989   -4.099871    1.034259
     44          8           0       -2.972626   -4.098474    2.103585
     45          8           0       -1.121624   -4.441009    0.853439
     46          6           0       -0.260145   -4.933584    1.973696
     47          6           0        3.511252   -0.952202    0.344408
     48          6           0        4.862719   -0.704158   -0.421819
     49          6           0        6.076886   -0.231718   -0.029064
     50          6           0        6.472982    0.250172    1.444675
     51          6           0        7.298497   -0.249278   -0.985008
     52          6           0        7.579542    1.130442   -1.688281
     53          6           0        8.850544    1.846000   -1.092345
     54          6           0        9.894006    2.127421   -2.086907
     55          6           0        9.452724    2.998565   -3.228059
     56          6           0       10.528722    0.778692   -2.586518
     57          6           0       11.529766    0.209599   -1.552811
     58          6           0       12.945211    0.218955   -2.124019
     59          6           0       13.986416    0.752183   -1.191699
     60          6           0       15.313680    1.236071   -2.004512
     61          6           0       14.187423   -0.245979   -0.040758
     62          6           0       13.895247    0.458519    1.330408
     63          6           0       13.353193   -0.528463    2.466279
     64          6           0       11.889197   -0.155430    2.827074
     65          6           0       11.702545    0.963085    3.868766
     66          6           0       11.124194   -1.415786    3.366109
     67          1           0       -2.359817    3.214658    0.380243
     68          1           0       -8.697827    3.726385    0.091961
     69          1           0       -9.373388   -2.479536   -0.680624
     70          1           0       -1.157596   -1.317143    0.720781
     71          1           0       -0.752030    1.089445   -0.886783
     72          1           0        0.226036    0.285077    1.542232
     73          1           0       -1.107316    1.428411    1.993218
     74          1           0        0.221025    1.974973    0.957145
     75          1           0       -0.624781   -0.631265   -2.234568
     76          1           0       -1.523792   -2.064838   -1.996199
     77          1           0        1.041903   -2.229424   -2.166003
     78          1           0        0.026321   -3.230364   -1.197130
     79          1           0       -3.514729    6.100555    0.070350
     80          1           0       -2.736778    5.047805    1.330821
     81          1           0       -3.985914    6.124709    1.771624
     82          1           0       -5.380028    7.272321    0.041910
     83          1           0       -5.904357    7.569087    1.665880
     84          1           0       -6.864082    7.989250    0.181454
     85          1           0      -10.463574    2.235251   -0.712387
     86          1           0      -10.937499   -0.464193    0.308094
     87          1           0      -10.227800    2.377024    2.134264
     88          1           0      -11.280999    1.032606    1.875591
     89          1           0      -11.697519    2.585933    1.164262
     90          1           0      -10.061907   -0.879739   -2.439893
     91          1           0      -10.548104    0.715422   -2.480134
     92          1           0      -12.629347    0.078312   -2.688081
     93          1           0      -12.462317   -0.831355   -1.143672
     94          1           0      -12.029897   -1.583676   -2.745337
     95          1           0       -7.494261   -5.704981   -1.249926
     96          1           0       -8.778880   -4.374064   -1.235911
     97          1           0       -8.291172   -5.200518    0.243541
     98          1           0       -2.329558   -3.867759   -1.034375
     99          1           0       -0.779508   -5.731668    2.504516
    100          1           0       -0.024154   -4.152066    2.696360
    101          1           0        0.743944   -5.219270    1.661403
    102          1           0        3.837299   -1.489022    1.235483
    103          1           0        2.911859   -0.146729    0.770192
    104          1           0        4.754293   -0.935152   -1.481015
    105          1           0        6.844578   -0.621382    1.983444
    106          1           0        5.618876    0.609854    2.019201
    107          1           0        7.184353    1.068859    1.334294
    108          1           0        7.015456   -0.934039   -1.785731
    109          1           0        8.111993   -0.763190   -0.473140
    110          1           0        6.756402    1.809754   -1.468155
    111          1           0        7.669644    0.956702   -2.761429
    112          1           0        9.253568    1.234452   -0.285439
    113          1           0        8.460032    2.785565   -0.700875
    114          1           0       10.691957    2.653117   -1.563153
    115          1           0       10.297257    3.102908   -3.909553
    116          1           0        9.206332    4.019974   -2.936330
    117          1           0        8.586004    2.619963   -3.769570
    118          1           0       10.935963    0.769563   -3.597485
    119          1           0        9.784710   -0.001724   -2.743358
    120          1           0       11.418678   -0.869653   -1.456573
    121          1           0       11.656780    0.780439   -0.633391
    122          1           0       12.953474    0.806636   -3.042614
    123          1           0       13.271318   -0.749465   -2.503803
    124          1           0       13.689171    1.713198   -0.770913
    125          1           0       16.093664    1.511893   -1.295269
    126          1           0       15.158537    2.013083   -2.752208
    127          1           0       15.723709    0.483025   -2.678269
    128          1           0       15.232903   -0.553208   -0.008290
    129          1           0       13.581308   -1.138930   -0.192996
    130          1           0       13.275147    1.350664    1.241785
    131          1           0       14.915605    0.612021    1.681144
    132          1           0       13.980337   -0.301175    3.329636
    133          1           0       13.525392   -1.564233    2.176283
    134          1           0       11.267998    0.122845    1.975518
    135          1           0       11.327362    0.549125    4.804467
    136          1           0       11.017673    1.716113    3.475799
    137          1           0       12.650983    1.424712    4.142756
    138          1           0       10.953137   -1.417409    4.442259
    139          1           0       11.534409   -2.365930    3.024246
    140          1           0       10.100358   -1.339350    3.000982
 ---------------------------------------------------------------------

 SCF Done:  E(RPBE1PBE) =  -3005.34881305     A.U. after   15 cycles

 Excitation energies and oscillator strengths:

 Excited State   1:      Singlet-A      1.8435 eV  672.55 nm  f=0.3821  <S**2>=0.000
     245 -> 248        0.15793
     246 -> 247        0.69555
     246 <- 247       -0.11668
 This state for optimization and/or second-order correction.
 Total Energy, E(TD-HF/TD-DFT) =  -3005.28106582
 Copying the excited state density for this state as the 1-particle RhoCI density.

 Excited State   2:      Singlet-A      2.2055 eV  562.17 nm  f=0.1353  <S**2>=0.000
     245 -> 247        0.66078
     246 -> 248       -0.22789

 Excited State   3:      Singlet-A      2.9912 eV  414.49 nm  f=0.0045  <S**2>=0.000
     242 -> 247        0.22126
     243 -> 247        0.30886
     244 -> 247        0.56765

 Excited State   4:      Singlet-A      3.0440 eV  407.31 nm  f=0.0014  <S**2>=0.000
     242 -> 247        0.16182
     243 -> 247        0.54503
     244 -> 247       -0.38823

 Excited State   5:      Singlet-A      3.2036 eV  387.01 nm  f=0.0010  <S**2>=0.000
     239 -> 247        0.10541
     242 -> 247        0.57277
     243 -> 247       -0.25255
     246 -> 248       -0.25495

 The electronic state is 1-A.
 Alpha  occ. eigenvalues --  -46.91816 -19.27661 -19.25214 -19.22118 -19.19560
 Alpha  occ. eigenvalues --  -19.19019 -19.18136 -14.41125 -14.41062 -14.38866
 Alpha  occ. eigenvalues --  -14.38506 -10.38138 -10.34905 -10.32728 -10.32395
 Alpha  occ. eigenvalues --  -10.30815 -10.28845 -10.28747 -10.28322 -10.28051
 Alpha  occ. eigenvalues --  -10.27733 -10.27112 -10.27108 -10.26691 -10.26467
 Alpha  occ. eigenvalues --  -10.26088 -10.25886 -10.25752 -10.25682 -10.25649
 Alpha  occ. eigenvalues --  -10.25486 -10.25470 -10.25252 -10.24993 -10.24945
 Alpha  occ. eigenvalues --  -10.24866 -10.24528 -10.24465 -10.24310 -10.24092
 Alpha  occ. eigenvalues --  -10.23947 -10.23919 -10.23707 -10.23703 -10.23564
 Alpha  occ. eigenvalues --  -10.23417 -10.23337 -10.23336 -10.23329 -10.23272
 Alpha  occ. eigenvalues --  -10.23199 -10.23098 -10.23083 -10.22840 -10.22813
 Alpha  occ. eigenvalues --  -10.22760 -10.22701 -10.22528 -10.22472 -10.22446
 Alpha  occ. eigenvalues --  -10.22323 -10.22193 -10.22081 -10.22040 -10.21678
 Alpha  occ. eigenvalues --  -10.21391  -3.14022  -1.86827  -1.86402  -1.86255
 Alpha  occ. eigenvalues --   -1.12264  -1.10653  -1.05404  -1.04222  -1.02900
 Alpha  occ. eigenvalues --   -1.01571  -0.99137  -0.97940  -0.97501  -0.96344
 Alpha  occ. eigenvalues --   -0.86231  -0.85304  -0.83753  -0.83100  -0.82751
 Alpha  occ. eigenvalues --   -0.82536  -0.82373  -0.81789  -0.81212  -0.81092
 Alpha  occ. eigenvalues --   -0.80562  -0.79169  -0.78214  -0.78143  -0.77611
 Alpha  occ. eigenvalues --   -0.76659  -0.76044  -0.75518  -0.74808  -0.74709
 Alpha  occ. eigenvalues --   -0.74056  -0.72402  -0.71609  -0.71354  -0.70564
 Alpha  occ. eigenvalues --   -0.70378  -0.69297  -0.69221  -0.69080  -0.68674
 Alpha  occ. eigenvalues --   -0.67965  -0.66735  -0.65673  -0.64673  -0.62997
 Alpha  occ. eigenvalues --   -0.62708  -0.62004  -0.61867  -0.61761  -0.60104
 Alpha  occ. eigenvalues --   -0.59818  -0.59685  -0.59434  -0.58972  -0.58813
 Alpha  occ. eigenvalues --   -0.58018  -0.57029  -0.56523  -0.56179  -0.54862
 Alpha  occ. eigenvalues --   -0.54210  -0.53519  -0.53221  -0.53072  -0.52358
 Alpha  occ. eigenvalues --   -0.51749  -0.51228  -0.50715  -0.50452  -0.50300
 Alpha  occ. eigenvalues --   -0.49689  -0.49675  -0.49086  -0.48483  -0.48413
 Alpha  occ. eigenvalues --   -0.47903  -0.47840  -0.47686  -0.47408  -0.47369
 Alpha  occ. eigenvalues --   -0.47125  -0.46878  -0.46690  -0.46568  -0.46434
 Alpha  occ. eigenvalues --   -0.46138  -0.45581  -0.45491  -0.45169  -0.44984
 Alpha  occ. eigenvalues --   -0.44878  -0.44715  -0.44674  -0.44552  -0.44360
 Alpha  occ. eigenvalues --   -0.44012  -0.43593  -0.43418  -0.43373  -0.43123
 Alpha  occ. eigenvalues --   -0.43040  -0.42795  -0.42742  -0.42659  -0.42313
 Alpha  occ. eigenvalues --   -0.42191  -0.41946  -0.41710  -0.41509  -0.41226
 Alpha  occ. eigenvalues --   -0.40922  -0.40617  -0.40570  -0.40540  -0.40407
 Alpha  occ. eigenvalues --   -0.40062  -0.40018  -0.39735  -0.39555  -0.39470
 Alpha  occ. eigenvalues --   -0.39383  -0.39312  -0.38872  -0.38731  -0.38342
 Alpha  occ. eigenvalues --   -0.38268  -0.38100  -0.38026  -0.37910  -0.37780
 Alpha  occ. eigenvalues --   -0.37519  -0.37463  -0.37179  -0.37116  -0.36951
 Alpha  occ. eigenvalues --   -0.36490  -0.36285  -0.36065  -0.35962  -0.35910
 Alpha  occ. eigenvalues --   -0.35900  -0.35618  -0.35314  -0.35171  -0.35067
 Alpha  occ. eigenvalues --   -0.34938  -0.34496  -0.34127  -0.33780  -0.33736
 Alpha  occ. eigenvalues --   -0.33394  -0.33189  -0.33046  -0.32886  -0.32565
 Alpha  occ. eigenvalues --   -0.32356  -0.31728  -0.31706  -0.31179  -0.31077
 Alpha  occ. eigenvalues --   -0.30729  -0.30483  -0.29827  -0.29823  -0.29354
 Alpha  occ. eigenvalues --   -0.29325  -0.28464  -0.27866  -0.26607  -0.26296
 Alpha  occ. eigenvalues --   -0.25795  -0.25611  -0.25329  -0.24832  -0.20545
 Alpha  occ. eigenvalues --   -0.18374
 Alpha virt. eigenvalues --   -0.10929  -0.04500  -0.03826  -0.02141  -0.01498
 Alpha virt. eigenvalues --   -0.00791   0.00601   0.01319   0.01913   0.03330
 Alpha virt. eigenvalues --    0.03526   0.04744   0.05224   0.05706   0.05942

 Mulliken charges:
               1
     1  Mg   0.974854
     2  C   -0.050280
     3  C   -0.074515
     4  C   -0.042891
     5  C   -0.081987
     6  N   -0.355109
     7  C    0.048740
     8  C   -0.103240
     9  C   -0.126439
    10  C    0.070493
    11  C   -0.038332
    12  C    0.000842
    13  C   -0.031262
    14  C    0.254338
    15  O   -0.276747
    16  O   -0.348490
    17  N   -0.423602
    18  C    0.172760
    19  C   -0.198895
    20  C   -0.062518
    21  C    0.122450
    22  C    0.036288
    23  C    0.083899
    24  O   -0.226281
    25  C   -0.045425
    26  N   -0.432274
    27  C    0.025431
    28  C   -0.097556
    29  C   -0.080280
    30  C    0.108045
    31  C    0.025234
    32  C   -0.068396
    33  C   -0.048083
    34  N   -0.512651
    35  C    0.164690
    36  C   -0.189455
    37  C   -0.020845
    38  C    0.179611
    39  C    0.076977
    40  C    0.136079
    41  O   -0.236167
    42  C   -0.105068
    43  C    0.294526
    44  O   -0.252791
    45  O   -0.365128
    46  C    0.133844
    47  C    0.220544
    48  C   -0.123102
    49  C   -0.222000
    50  C   -0.012431
    51  C   -0.011490
    52  C   -0.063570
    53  C    0.006606
    54  C   -0.185794
    55  C   -0.002880
    56  C    0.002789
    57  C   -0.040050
    58  C   -0.032060
    59  C   -0.217874
    60  C   -0.039517
    61  C    0.023554
    62  C   -0.090640
    63  C    0.013311
    64  C   -0.264758
    65  C   -0.005141
    66  C   -0.033222
    67  H   -0.002418
    68  H    0.029505
    69  H    0.006759
    70  H    0.090003
    71  H    0.051100
    72  H    0.074341
    73  H    0.049834
    74  H    0.037131
    75  H    0.038269
    76  H    0.038128
    77  H    0.050023
    78  H    0.069004
    79  H    0.070605
    80  H    0.042650
    81  H    0.038567
    82  H    0.042029
    83  H    0.077446
    84  H    0.050207
    85  H    0.052260
    86  H    0.047204
    87  H    0.058829
    88  H    0.031966
    89  H    0.046243
    90  H    0.039196
    91  H    0.028268
    92  H    0.041758
    93  H    0.033191
    94  H    0.043942
    95  H    0.069343
    96  H    0.043439
    97  H    0.060564
    98  H    0.063141
    99  H    0.067589
   100  H    0.061716
   101  H    0.057085
   102  H    0.059785
   103  H    0.053090
   104  H    0.039383
   105  H    0.066642
   106  H    0.039320
   107  H    0.057031
   108  H    0.022315
   109  H    0.048612
   110  H    0.041417
   111  H    0.051981
   112  H    0.035330
   113  H    0.024442
   114  H    0.025793
   115  H    0.034905
   116  H    0.028603
   117  H    0.032825
   118  H    0.018930
   119  H    0.011410
   120  H    0.032406
   121  H    0.053945
   122  H    0.005607
   123  H    0.021944
   124  H    0.037976
   125  H    0.036680
   126  H    0.033014
   127  H    0.021751
   128  H    0.025546
   129  H    0.031645
   130  H    0.045788
   131  H    0.032496
   132  H    0.026360
   133  H    0.029707
   134  H    0.049530
   135  H    0.032824
   136  H    0.038777
   137  H    0.030994
   138  H    0.031176
   139  H    0.035460
   140  H    0.018972
 Sum of Mulliken charges =  -0.00000

 Dipole moment (field-independent basis, Debye):
    X=              4.7854    Y=              4.3583    Z=             -3.3359  Tot=              7.2817
 Quadrupole moment (field-independent basis, Debye-Ang):
   XX=           -370.2344   YY=           -424.6433   ZZ=           -402.0195
   XY=             -3.0568   XZ=             22.6967   YZ=              2.0897

 Normal termination of Gaussian 16 at Fri Apr 29 10:34:42 2022.
