 Gaussian 16, Revision A.03,
 Gaussian 16:  ES64L-G16RevA.03 25-Dec-2016

 --------------------------------
 #p wB97XD/Def2SVP td=(nstates=5)
 --------------------------------

 ----------------------------------------------------
 step_251_chromophore_19 TDDFT with wB97XD functional
 ----------------------------------------------------
 Symbolic Z-matrix:
 Charge =  0 Multiplicity = 1

                         Standard orientation:
 ---------------------------------------------------------------------
 Center     Atomic      Atomic             Coordinates (Angstroms)
 Number     Number       Type             X           Y           Z
 ---------------------------------------------------------------------
      1         12           0       -5.972389    0.427724   -0.321117
      2          6           0       -3.657172   -2.303708   -0.203343
      3          6           0       -3.191033    2.515062    0.271043
      4          6           0       -7.984571    2.928562    0.312206
      5          6           0       -8.527442   -1.806363   -0.528542
      6          7           0       -3.696033    0.106297   -0.059753
      7          6           0       -3.059989   -1.084814   -0.169290
      8          6           0       -1.560696   -0.835900   -0.170309
      9          6           0       -1.328169    0.696532   -0.048885
     10          6           0       -2.797612    1.153735    0.027812
     11          6           0       -0.399137    1.119379    1.223963
     12          6           0       -0.847249   -1.384114   -1.479615
     13          6           0        0.418623   -2.216135   -1.271636
     14          6           0        1.403914   -1.914989   -0.071904
     15          8           0        1.083850   -1.951722    1.119282
     16          8           0        2.633705   -1.621888   -0.615153
     17          7           0       -5.629777    2.451935    0.274629
     18          6           0       -4.475129    3.066877    0.419542
     19          6           0       -4.756284    4.422798    0.798857
     20          6           0       -6.147257    4.676218    0.691203
     21          6           0       -6.640658    3.344169    0.458104
     22          6           0       -3.664285    5.479974    0.954029
     23          6           0       -7.002266    5.933730    0.694462
     24          8           0       -8.218675    5.908084    0.653131
     25          6           0       -6.256824    7.239958    0.689360
     26          7           0       -7.950359    0.458885    0.211379
     27          6           0       -8.614660    1.686714    0.226759
     28          6           0      -10.153892    1.548308    0.074736
     29          6           0      -10.227876    0.033962   -0.352626
     30          6           0       -8.799142   -0.493796   -0.222562
     31          6           0      -10.868140    1.912951    1.384257
     32          6           0      -10.678257   -0.180740   -1.874577
     33          6           0      -12.059957   -0.674662   -2.144672
     34          7           0       -6.099374   -1.580802   -0.472867
     35          6           0       -7.234707   -2.360716   -0.518636
     36          6           0       -6.941820   -3.790845   -0.471705
     37          6           0       -5.506969   -3.829699   -0.349750
     38          6           0       -5.071978   -2.488612   -0.230798
     39          6           0       -7.942594   -4.857982   -0.731719
     40          6           0       -4.335360   -4.692177   -0.348394
     41          8           0       -4.315347   -5.931669   -0.458326
     42          6           0       -3.033964   -3.714033   -0.217997
     43          6           0       -2.402989   -4.099871    1.034259
     44          8           0       -2.972626   -4.098474    2.103585
     45          8           0       -1.121624   -4.441009    0.853439
     46          6           0       -0.260145   -4.933584    1.973696
     47          6           0        3.511252   -0.952202    0.344408
     48          6           0        4.862719   -0.704158   -0.421819
     49          6           0        6.076886   -0.231718   -0.029064
     50          6           0        6.472982    0.250172    1.444675
     51          6           0        7.298497   -0.249278   -0.985008
     52          6           0        7.579542    1.130442   -1.688281
     53          6           0        8.850544    1.846000   -1.092345
     54          6           0        9.894006    2.127421   -2.086907
     55          6           0        9.452724    2.998565   -3.228059
     56          6           0       10.528722    0.778692   -2.586518
     57          6           0       11.529766    0.209599   -1.552811
     58          6           0       12.945211    0.218955   -2.124019
     59          6           0       13.986416    0.752183   -1.191699
     60          6           0       15.313680    1.236071   -2.004512
     61          6           0       14.187423   -0.245979   -0.040758
     62          6           0       13.895247    0.458519    1.330408
     63          6           0       13.353193   -0.528463    2.466279
     64          6           0       11.889197   -0.155430    2.827074
     65          6           0       11.702545    0.963085    3.868766
     66          6           0       11.124194   -1.415786    3.366109
     67          1           0       -2.359817    3.214658    0.380243
     68          1           0       -8.697827    3.726385    0.091961
     69          1           0       -9.373388   -2.479536   -0.680624
     70          1           0       -1.157596   -1.317143    0.720781
     71          1           0       -0.752030    1.089445   -0.886783
     72          1           0        0.226036    0.285077    1.542232
     73          1           0       -1.107316    1.428411    1.993218
     74          1           0        0.221025    1.974973    0.957145
     75          1           0       -0.624781   -0.631265   -2.234568
     76          1           0       -1.523792   -2.064838   -1.996199
     77          1           0        1.041903   -2.229424   -2.166003
     78          1           0        0.026321   -3.230364   -1.197130
     79          1           0       -3.514729    6.100555    0.070350
     80          1           0       -2.736778    5.047805    1.330821
     81          1           0       -3.985914    6.124709    1.771624
     82          1           0       -5.380028    7.272321    0.041910
     83          1           0       -5.904357    7.569087    1.665880
     84          1           0       -6.864082    7.989250    0.181454
     85          1           0      -10.463574    2.235251   -0.712387
     86          1           0      -10.937499   -0.464193    0.308094
     87          1           0      -10.227800    2.377024    2.134264
     88          1           0      -11.280999    1.032606    1.875591
     89          1           0      -11.697519    2.585933    1.164262
     90          1           0      -10.061907   -0.879739   -2.439893
     91          1           0      -10.548104    0.715422   -2.480134
     92          1           0      -12.629347    0.078312   -2.688081
     93          1           0      -12.462317   -0.831355   -1.143672
     94          1           0      -12.029897   -1.583676   -2.745337
     95          1           0       -7.494261   -5.704981   -1.249926
     96          1           0       -8.778880   -4.374064   -1.235911
     97          1           0       -8.291172   -5.200518    0.243541
     98          1           0       -2.329558   -3.867759   -1.034375
     99          1           0       -0.779508   -5.731668    2.504516
    100          1           0       -0.024154   -4.152066    2.696360
    101          1           0        0.743944   -5.219270    1.661403
    102          1           0        3.837299   -1.489022    1.235483
    103          1           0        2.911859   -0.146729    0.770192
    104          1           0        4.754293   -0.935152   -1.481015
    105          1           0        6.844578   -0.621382    1.983444
    106          1           0        5.618876    0.609854    2.019201
    107          1           0        7.184353    1.068859    1.334294
    108          1           0        7.015456   -0.934039   -1.785731
    109          1           0        8.111993   -0.763190   -0.473140
    110          1           0        6.756402    1.809754   -1.468155
    111          1           0        7.669644    0.956702   -2.761429
    112          1           0        9.253568    1.234452   -0.285439
    113          1           0        8.460032    2.785565   -0.700875
    114          1           0       10.691957    2.653117   -1.563153
    115          1           0       10.297257    3.102908   -3.909553
    116          1           0        9.206332    4.019974   -2.936330
    117          1           0        8.586004    2.619963   -3.769570
    118          1           0       10.935963    0.769563   -3.597485
    119          1           0        9.784710   -0.001724   -2.743358
    120          1           0       11.418678   -0.869653   -1.456573
    121          1           0       11.656780    0.780439   -0.633391
    122          1           0       12.953474    0.806636   -3.042614
    123          1           0       13.271318   -0.749465   -2.503803
    124          1           0       13.689171    1.713198   -0.770913
    125          1           0       16.093664    1.511893   -1.295269
    126          1           0       15.158537    2.013083   -2.752208
    127          1           0       15.723709    0.483025   -2.678269
    128          1           0       15.232903   -0.553208   -0.008290
    129          1           0       13.581308   -1.138930   -0.192996
    130          1           0       13.275147    1.350664    1.241785
    131          1           0       14.915605    0.612021    1.681144
    132          1           0       13.980337   -0.301175    3.329636
    133          1           0       13.525392   -1.564233    2.176283
    134          1           0       11.267998    0.122845    1.975518
    135          1           0       11.327362    0.549125    4.804467
    136          1           0       11.017673    1.716113    3.475799
    137          1           0       12.650983    1.424712    4.142756
    138          1           0       10.953137   -1.417409    4.442259
    139          1           0       11.534409   -2.365930    3.024246
    140          1           0       10.100358   -1.339350    3.000982
 ---------------------------------------------------------------------

 SCF Done:  E(RwB97XD) =  -3007.86158554     A.U. after   20 cycles

 Excitation energies and oscillator strengths:

 Excited State   1:      Singlet-A      1.6200 eV  765.35 nm  f=0.3948  <S**2>=0.000
     245 -> 248        0.17783
     246 -> 247        0.68469
     245 <- 248        0.11605
 This state for optimization and/or second-order correction.
 Total Energy, E(TD-HF/TD-DFT) =  -3007.80205285
 Copying the excited state density for this state as the 1-particle RhoCI density.

 Excited State   2:      Singlet-A      2.1410 eV  579.08 nm  f=0.1391  <S**2>=0.000
     245 -> 247        0.64851
     246 -> 248       -0.26473

 Excited State   3:      Singlet-A      3.3459 eV  370.55 nm  f=0.0017  <S**2>=0.000
     243 -> 247       -0.11219
     244 -> 247        0.67186

 Excited State   4:      Singlet-A      3.5174 eV  352.49 nm  f=0.0052  <S**2>=0.000
     240 -> 247       -0.10761
     242 -> 247        0.33659
     242 -> 249       -0.24159
     242 -> 250       -0.21210
     243 -> 247        0.47084
     246 -> 248        0.11182

 Excited State   5:      Singlet-A      3.5418 eV  350.06 nm  f=0.2015  <S**2>=0.000
     242 -> 247       -0.36870
     242 -> 249        0.11442
     242 -> 250        0.11934
     243 -> 247        0.28989
     245 -> 247        0.14598
     246 -> 248        0.44871

 The electronic state is 1-A.
 Alpha  occ. eigenvalues --  -46.94758 -19.32197 -19.29833 -19.26768 -19.24388
 Alpha  occ. eigenvalues --  -19.23864 -19.22900 -14.46242 -14.46095 -14.43781
 Alpha  occ. eigenvalues --  -14.43444 -10.44912 -10.41786 -10.39589 -10.39281
 Alpha  occ. eigenvalues --  -10.37299 -10.35312 -10.35133 -10.34581 -10.34309
 Alpha  occ. eigenvalues --  -10.34037 -10.33461 -10.33405 -10.32984 -10.32798
 Alpha  occ. eigenvalues --  -10.32419 -10.32341 -10.32123 -10.31981 -10.31957
 Alpha  occ. eigenvalues --  -10.31828 -10.31668 -10.31595 -10.31341 -10.31291
 Alpha  occ. eigenvalues --  -10.31184 -10.30921 -10.30917 -10.30763 -10.30459
 Alpha  occ. eigenvalues --  -10.30444 -10.30318 -10.30053 -10.29970 -10.29934
 Alpha  occ. eigenvalues --  -10.29795 -10.29770 -10.29713 -10.29645 -10.29604
 Alpha  occ. eigenvalues --  -10.29597 -10.29425 -10.29415 -10.29190 -10.29153
 Alpha  occ. eigenvalues --  -10.29110 -10.29061 -10.28908 -10.28833 -10.28827
 Alpha  occ. eigenvalues --  -10.28687 -10.28620 -10.28497 -10.28491 -10.28081
 Alpha  occ. eigenvalues --  -10.27761  -3.20822  -1.94377  -1.93955  -1.93800
 Alpha  occ. eigenvalues --   -1.19632  -1.18096  -1.12897  -1.11555  -1.10426
 Alpha  occ. eigenvalues --   -1.08987  -1.06469  -1.05307  -1.04902  -1.03705
 Alpha  occ. eigenvalues --   -0.93876  -0.92978  -0.91428  -0.90754  -0.90324
 Alpha  occ. eigenvalues --   -0.90201  -0.89940  -0.89448  -0.88834  -0.88756
 Alpha  occ. eigenvalues --   -0.88172  -0.86807  -0.85834  -0.85765  -0.85250
 Alpha  occ. eigenvalues --   -0.84309  -0.83749  -0.83205  -0.82445  -0.82352
 Alpha  occ. eigenvalues --   -0.81732  -0.80051  -0.79221  -0.79005  -0.78237
 Alpha  occ. eigenvalues --   -0.78031  -0.76987  -0.76909  -0.76652  -0.76329
 Alpha  occ. eigenvalues --   -0.75590  -0.74269  -0.73203  -0.72287  -0.70622
 Alpha  occ. eigenvalues --   -0.70282  -0.69535  -0.69514  -0.69308  -0.67769
 Alpha  occ. eigenvalues --   -0.67314  -0.67166  -0.66943  -0.66422  -0.66220
 Alpha  occ. eigenvalues --   -0.65709  -0.64653  -0.63934  -0.63784  -0.62313
 Alpha  occ. eigenvalues --   -0.61694  -0.60983  -0.60613  -0.60439  -0.59769
 Alpha  occ. eigenvalues --   -0.59263  -0.58649  -0.58200  -0.57872  -0.57794
 Alpha  occ. eigenvalues --   -0.57146  -0.57080  -0.56495  -0.55926  -0.55821
 Alpha  occ. eigenvalues --   -0.55313  -0.55155  -0.55037  -0.54805  -0.54769
 Alpha  occ. eigenvalues --   -0.54604  -0.54346  -0.53997  -0.53923  -0.53818
 Alpha  occ. eigenvalues --   -0.53483  -0.52872  -0.52822  -0.52497  -0.52385
 Alpha  occ. eigenvalues --   -0.52249  -0.52137  -0.52027  -0.51809  -0.51752
 Alpha  occ. eigenvalues --   -0.51330  -0.50915  -0.50746  -0.50701  -0.50442
 Alpha  occ. eigenvalues --   -0.50344  -0.50050  -0.50006  -0.49965  -0.49595
 Alpha  occ. eigenvalues --   -0.49447  -0.49225  -0.49025  -0.48746  -0.48464
 Alpha  occ. eigenvalues --   -0.48174  -0.47851  -0.47795  -0.47703  -0.47572
 Alpha  occ. eigenvalues --   -0.47284  -0.47189  -0.46906  -0.46747  -0.46665
 Alpha  occ. eigenvalues --   -0.46569  -0.46456  -0.46039  -0.45850  -0.45434
 Alpha  occ. eigenvalues --   -0.45401  -0.45228  -0.45158  -0.45079  -0.44962
 Alpha  occ. eigenvalues --   -0.44681  -0.44496  -0.44346  -0.44334  -0.44154
 Alpha  occ. eigenvalues --   -0.43581  -0.43438  -0.43089  -0.43044  -0.43031
 Alpha  occ. eigenvalues --   -0.42949  -0.42623  -0.42381  -0.42192  -0.42164
 Alpha  occ. eigenvalues --   -0.41921  -0.41444  -0.41163  -0.40799  -0.40752
 Alpha  occ. eigenvalues --   -0.40434  -0.40147  -0.40113  -0.39860  -0.39494
 Alpha  occ. eigenvalues --   -0.39322  -0.38749  -0.38717  -0.38084  -0.38047
 Alpha  occ. eigenvalues --   -0.37835  -0.37436  -0.36795  -0.36750  -0.36232
 Alpha  occ. eigenvalues --   -0.36152  -0.35252  -0.34936  -0.33496  -0.33154
 Alpha  occ. eigenvalues --   -0.32562  -0.32539  -0.32046  -0.31367  -0.25528
 Alpha  occ. eigenvalues --   -0.22534
 Alpha virt. eigenvalues --   -0.06867   0.01031   0.02425   0.04351   0.05089
 Alpha virt. eigenvalues --    0.05380   0.07320   0.08076   0.08655   0.09997
 Alpha virt. eigenvalues --    0.10283   0.11518   0.11599   0.12428   0.12690

 Mulliken charges:
               1
     1  Mg   0.965757
     2  C   -0.051706
     3  C   -0.089839
     4  C   -0.060120
     5  C   -0.106816
     6  N   -0.318288
     7  C    0.023503
     8  C   -0.075135
     9  C   -0.107162
    10  C    0.053371
    11  C   -0.020146
    12  C    0.011682
    13  C   -0.009987
    14  C    0.240590
    15  O   -0.271854
    16  O   -0.347757
    17  N   -0.387852
    18  C    0.164098
    19  C   -0.188132
    20  C   -0.059532
    21  C    0.114960
    22  C    0.051534
    23  C    0.080430
    24  O   -0.219825
    25  C   -0.036539
    26  N   -0.403306
    27  C    0.019015
    28  C   -0.074831
    29  C   -0.053918
    30  C    0.103267
    31  C    0.032963
    32  C   -0.056258
    33  C   -0.031238
    34  N   -0.481783
    35  C    0.161963
    36  C   -0.187478
    37  C   -0.018441
    38  C    0.159283
    39  C    0.089932
    40  C    0.119108
    41  O   -0.226922
    42  C   -0.060811
    43  C    0.263348
    44  O   -0.246587
    45  O   -0.360239
    46  C    0.145631
    47  C    0.234354
    48  C   -0.131720
    49  C   -0.209457
    50  C    0.004106
    51  C    0.008497
    52  C   -0.049533
    53  C    0.021175
    54  C   -0.143682
    55  C    0.005769
    56  C    0.013293
    57  C   -0.013834
    58  C   -0.016898
    59  C   -0.183143
    60  C   -0.026230
    61  C    0.031216
    62  C   -0.070635
    63  C    0.026764
    64  C   -0.231193
    65  C    0.004861
    66  C   -0.019423
    67  H   -0.009821
    68  H    0.023932
    69  H    0.000500
    70  H    0.073260
    71  H    0.041077
    72  H    0.063888
    73  H    0.042862
    74  H    0.031525
    75  H    0.031838
    76  H    0.027635
    77  H    0.045709
    78  H    0.057745
    79  H    0.065639
    80  H    0.038242
    81  H    0.030735
    82  H    0.035718
    83  H    0.074341
    84  H    0.048713
    85  H    0.043240
    86  H    0.035387
    87  H    0.053027
    88  H    0.026089
    89  H    0.041271
    90  H    0.029192
    91  H    0.020177
    92  H    0.036210
    93  H    0.025211
    94  H    0.038673
    95  H    0.066251
    96  H    0.036823
    97  H    0.055476
    98  H    0.054081
    99  H    0.064870
   100  H    0.059295
   101  H    0.054728
   102  H    0.054067
   103  H    0.047079
   104  H    0.035748
   105  H    0.061184
   106  H    0.034113
   107  H    0.048995
   108  H    0.014703
   109  H    0.040051
   110  H    0.033044
   111  H    0.042085
   112  H    0.020797
   113  H    0.016807
   114  H    0.013757
   115  H    0.028530
   116  H    0.023475
   117  H    0.026419
   118  H    0.011159
   119  H    0.000609
   120  H    0.024510
   121  H    0.030734
   122  H   -0.006213
   123  H    0.012852
   124  H    0.022484
   125  H    0.030846
   126  H    0.027428
   127  H    0.014706
   128  H    0.018413
   129  H    0.021082
   130  H    0.036189
   131  H    0.024256
   132  H    0.017652
   133  H    0.022201
   134  H    0.033490
   135  H    0.026168
   136  H    0.034052
   137  H    0.024553
   138  H    0.023805
   139  H    0.029640
   140  H    0.012777
 Sum of Mulliken charges =  -0.00000

 Dipole moment (field-independent basis, Debye):
    X=              4.9084    Y=              4.4480    Z=             -3.3403  Tot=              7.4185
 Quadrupole moment (field-independent basis, Debye-Ang):
   XX=           -371.8753   YY=           -422.7127   ZZ=           -401.6686
   XY=             -3.6943   XZ=             22.7766   YZ=              2.1700

 Normal termination of Gaussian 16 at Fri Apr 29 11:05:33 2022.
