 Gaussian 16, Revision A.03,
 Gaussian 16:  ES64L-G16RevA.03 25-Dec-2016

 --------------------
 #p ZINDO=(nstates=5)
 --------------------

 -----------------------------
 step_251_chromophore_19 ZINDO
 -----------------------------
 Symbolic Z-matrix:
 Charge =  0 Multiplicity = 1

                         Standard orientation:
 ---------------------------------------------------------------------
 Center     Atomic      Atomic             Coordinates (Angstroms)
 Number     Number       Type             X           Y           Z
 ---------------------------------------------------------------------
      1         12           0       -5.972389    0.427724   -0.321117
      2          6           0       -3.657172   -2.303708   -0.203343
      3          6           0       -3.191033    2.515062    0.271043
      4          6           0       -7.984571    2.928562    0.312206
      5          6           0       -8.527442   -1.806363   -0.528542
      6          7           0       -3.696033    0.106297   -0.059753
      7          6           0       -3.059989   -1.084814   -0.169290
      8          6           0       -1.560696   -0.835900   -0.170309
      9          6           0       -1.328169    0.696532   -0.048885
     10          6           0       -2.797612    1.153735    0.027812
     11          6           0       -0.399137    1.119379    1.223963
     12          6           0       -0.847249   -1.384114   -1.479615
     13          6           0        0.418623   -2.216135   -1.271636
     14          6           0        1.403914   -1.914989   -0.071904
     15          8           0        1.083850   -1.951722    1.119282
     16          8           0        2.633705   -1.621888   -0.615153
     17          7           0       -5.629777    2.451935    0.274629
     18          6           0       -4.475129    3.066877    0.419542
     19          6           0       -4.756284    4.422798    0.798857
     20          6           0       -6.147257    4.676218    0.691203
     21          6           0       -6.640658    3.344169    0.458104
     22          6           0       -3.664285    5.479974    0.954029
     23          6           0       -7.002266    5.933730    0.694462
     24          8           0       -8.218675    5.908084    0.653131
     25          6           0       -6.256824    7.239958    0.689360
     26          7           0       -7.950359    0.458885    0.211379
     27          6           0       -8.614660    1.686714    0.226759
     28          6           0      -10.153892    1.548308    0.074736
     29          6           0      -10.227876    0.033962   -0.352626
     30          6           0       -8.799142   -0.493796   -0.222562
     31          6           0      -10.868140    1.912951    1.384257
     32          6           0      -10.678257   -0.180740   -1.874577
     33          6           0      -12.059957   -0.674662   -2.144672
     34          7           0       -6.099374   -1.580802   -0.472867
     35          6           0       -7.234707   -2.360716   -0.518636
     36          6           0       -6.941820   -3.790845   -0.471705
     37          6           0       -5.506969   -3.829699   -0.349750
     38          6           0       -5.071978   -2.488612   -0.230798
     39          6           0       -7.942594   -4.857982   -0.731719
     40          6           0       -4.335360   -4.692177   -0.348394
     41          8           0       -4.315347   -5.931669   -0.458326
     42          6           0       -3.033964   -3.714033   -0.217997
     43          6           0       -2.402989   -4.099871    1.034259
     44          8           0       -2.972626   -4.098474    2.103585
     45          8           0       -1.121624   -4.441009    0.853439
     46          6           0       -0.260145   -4.933584    1.973696
     47          6           0        3.511252   -0.952202    0.344408
     48          6           0        4.862719   -0.704158   -0.421819
     49          6           0        6.076886   -0.231718   -0.029064
     50          6           0        6.472982    0.250172    1.444675
     51          6           0        7.298497   -0.249278   -0.985008
     52          6           0        7.579542    1.130442   -1.688281
     53          6           0        8.850544    1.846000   -1.092345
     54          6           0        9.894006    2.127421   -2.086907
     55          6           0        9.452724    2.998565   -3.228059
     56          6           0       10.528722    0.778692   -2.586518
     57          6           0       11.529766    0.209599   -1.552811
     58          6           0       12.945211    0.218955   -2.124019
     59          6           0       13.986416    0.752183   -1.191699
     60          6           0       15.313680    1.236071   -2.004512
     61          6           0       14.187423   -0.245979   -0.040758
     62          6           0       13.895247    0.458519    1.330408
     63          6           0       13.353193   -0.528463    2.466279
     64          6           0       11.889197   -0.155430    2.827074
     65          6           0       11.702545    0.963085    3.868766
     66          6           0       11.124194   -1.415786    3.366109
     67          1           0       -2.359817    3.214658    0.380243
     68          1           0       -8.697827    3.726385    0.091961
     69          1           0       -9.373388   -2.479536   -0.680624
     70          1           0       -1.157596   -1.317143    0.720781
     71          1           0       -0.752030    1.089445   -0.886783
     72          1           0        0.226036    0.285077    1.542232
     73          1           0       -1.107316    1.428411    1.993218
     74          1           0        0.221025    1.974973    0.957145
     75          1           0       -0.624781   -0.631265   -2.234568
     76          1           0       -1.523792   -2.064838   -1.996199
     77          1           0        1.041903   -2.229424   -2.166003
     78          1           0        0.026321   -3.230364   -1.197130
     79          1           0       -3.514729    6.100555    0.070350
     80          1           0       -2.736778    5.047805    1.330821
     81          1           0       -3.985914    6.124709    1.771624
     82          1           0       -5.380028    7.272321    0.041910
     83          1           0       -5.904357    7.569087    1.665880
     84          1           0       -6.864082    7.989250    0.181454
     85          1           0      -10.463574    2.235251   -0.712387
     86          1           0      -10.937499   -0.464193    0.308094
     87          1           0      -10.227800    2.377024    2.134264
     88          1           0      -11.280999    1.032606    1.875591
     89          1           0      -11.697519    2.585933    1.164262
     90          1           0      -10.061907   -0.879739   -2.439893
     91          1           0      -10.548104    0.715422   -2.480134
     92          1           0      -12.629347    0.078312   -2.688081
     93          1           0      -12.462317   -0.831355   -1.143672
     94          1           0      -12.029897   -1.583676   -2.745337
     95          1           0       -7.494261   -5.704981   -1.249926
     96          1           0       -8.778880   -4.374064   -1.235911
     97          1           0       -8.291172   -5.200518    0.243541
     98          1           0       -2.329558   -3.867759   -1.034375
     99          1           0       -0.779508   -5.731668    2.504516
    100          1           0       -0.024154   -4.152066    2.696360
    101          1           0        0.743944   -5.219270    1.661403
    102          1           0        3.837299   -1.489022    1.235483
    103          1           0        2.911859   -0.146729    0.770192
    104          1           0        4.754293   -0.935152   -1.481015
    105          1           0        6.844578   -0.621382    1.983444
    106          1           0        5.618876    0.609854    2.019201
    107          1           0        7.184353    1.068859    1.334294
    108          1           0        7.015456   -0.934039   -1.785731
    109          1           0        8.111993   -0.763190   -0.473140
    110          1           0        6.756402    1.809754   -1.468155
    111          1           0        7.669644    0.956702   -2.761429
    112          1           0        9.253568    1.234452   -0.285439
    113          1           0        8.460032    2.785565   -0.700875
    114          1           0       10.691957    2.653117   -1.563153
    115          1           0       10.297257    3.102908   -3.909553
    116          1           0        9.206332    4.019974   -2.936330
    117          1           0        8.586004    2.619963   -3.769570
    118          1           0       10.935963    0.769563   -3.597485
    119          1           0        9.784710   -0.001724   -2.743358
    120          1           0       11.418678   -0.869653   -1.456573
    121          1           0       11.656780    0.780439   -0.633391
    122          1           0       12.953474    0.806636   -3.042614
    123          1           0       13.271318   -0.749465   -2.503803
    124          1           0       13.689171    1.713198   -0.770913
    125          1           0       16.093664    1.511893   -1.295269
    126          1           0       15.158537    2.013083   -2.752208
    127          1           0       15.723709    0.483025   -2.678269
    128          1           0       15.232903   -0.553208   -0.008290
    129          1           0       13.581308   -1.138930   -0.192996
    130          1           0       13.275147    1.350664    1.241785
    131          1           0       14.915605    0.612021    1.681144
    132          1           0       13.980337   -0.301175    3.329636
    133          1           0       13.525392   -1.564233    2.176283
    134          1           0       11.267998    0.122845    1.975518
    135          1           0       11.327362    0.549125    4.804467
    136          1           0       11.017673    1.716113    3.475799
    137          1           0       12.650983    1.424712    4.142756
    138          1           0       10.953137   -1.417409    4.442259
    139          1           0       11.534409   -2.365930    3.024246
    140          1           0       10.100358   -1.339350    3.000982
 ---------------------------------------------------------------------

 SCF Done:  E(RZINDO/S) =  -474.170803847     A.U. after   20 cycles

 Excitation energies and oscillator strengths:

 Excited State   1:      Singlet-A      1.2027 eV 1030.88 nm  f=0.6186  <S**2>=0.000
     175 ->178        -0.19167
     176 ->177         0.66122
 This state for optimization and/or second-order correction.
 Total Energy, E(CIS/TDA) =  -474.126605263
 Copying the excited state density for this state as the 1-particle RhoCI density.

 Excited State   2:      Singlet-A      1.8582 eV  667.21 nm  f=0.0838  <S**2>=0.000
     175 ->177         0.57719
     176 ->178         0.37553

 Excited State   3:      Singlet-A      2.9487 eV  420.47 nm  f=0.5298  <S**2>=0.000
     175 ->177        -0.25259
     176 ->178         0.47193
     176 ->179         0.36140
     176 ->182         0.11277

 Excited State   4:      Singlet-A      3.0157 eV  411.13 nm  f=0.2605  <S**2>=0.000
     168 ->179         0.16196
     168 ->186         0.10023
     169 ->177         0.10395
     169 ->181        -0.10160
     171 ->177         0.13290
     174 ->177         0.11740
     175 ->177         0.17746
     176 ->178        -0.25530
     176 ->179         0.42952
     176 ->181        -0.13000
     176 ->182         0.16490

 Excited State   5:      Singlet-A      3.0188 eV  410.71 nm  f=0.0177  <S**2>=0.000
     169 ->177         0.31468
     169 ->178        -0.19434
     169 ->179        -0.30800
     169 ->181        -0.30472
     169 ->186        -0.13693
     169 ->187         0.14300
     174 ->177         0.13766
     176 ->179        -0.19238

 The electronic state is 1-A.
 Alpha  occ. eigenvalues --   -1.83299  -1.82354  -1.79774  -1.72690  -1.71857
 Alpha  occ. eigenvalues --   -1.69854  -1.68140  -1.61191  -1.58984  -1.56311
 Alpha  occ. eigenvalues --   -1.54527  -1.50979  -1.47631  -1.47300  -1.46943
 Alpha  occ. eigenvalues --   -1.43613  -1.43005  -1.40162  -1.39082  -1.38225
 Alpha  occ. eigenvalues --   -1.34998  -1.34260  -1.32496  -1.30340  -1.29013
 Alpha  occ. eigenvalues --   -1.27742  -1.24704  -1.21963  -1.20033  -1.18006
 Alpha  occ. eigenvalues --   -1.17534  -1.16040  -1.14737  -1.14387  -1.13966
 Alpha  occ. eigenvalues --   -1.12775  -1.11162  -1.10081  -1.05007  -1.04193
 Alpha  occ. eigenvalues --   -1.03464  -1.01452  -0.99658  -0.97072  -0.95332
 Alpha  occ. eigenvalues --   -0.94900  -0.93775  -0.93510  -0.93136  -0.92651
 Alpha  occ. eigenvalues --   -0.91909  -0.91189  -0.88795  -0.87397  -0.86629
 Alpha  occ. eigenvalues --   -0.85934  -0.84441  -0.83101  -0.82455  -0.81449
 Alpha  occ. eigenvalues --   -0.80132  -0.79461  -0.77714  -0.76795  -0.76320
 Alpha  occ. eigenvalues --   -0.75058  -0.74481  -0.74084  -0.73659  -0.72986
 Alpha  occ. eigenvalues --   -0.72535  -0.71868  -0.71240  -0.70635  -0.70398
 Alpha  occ. eigenvalues --   -0.69890  -0.69032  -0.68832  -0.68487  -0.67952
 Alpha  occ. eigenvalues --   -0.67517  -0.67328  -0.66708  -0.66363  -0.65674
 Alpha  occ. eigenvalues --   -0.65438  -0.64708  -0.63761  -0.63274  -0.63005
 Alpha  occ. eigenvalues --   -0.62945  -0.62642  -0.62465  -0.62140  -0.62009
 Alpha  occ. eigenvalues --   -0.61811  -0.61147  -0.60811  -0.60466  -0.59909
 Alpha  occ. eigenvalues --   -0.59220  -0.59178  -0.58684  -0.58335  -0.57857
 Alpha  occ. eigenvalues --   -0.57572  -0.57443  -0.57285  -0.57010  -0.56284
 Alpha  occ. eigenvalues --   -0.56175  -0.55785  -0.55645  -0.55340  -0.54777
 Alpha  occ. eigenvalues --   -0.54648  -0.54000  -0.53603  -0.52814  -0.52536
 Alpha  occ. eigenvalues --   -0.52357  -0.52336  -0.52075  -0.51682  -0.51352
 Alpha  occ. eigenvalues --   -0.51243  -0.51134  -0.50606  -0.50291  -0.50051
 Alpha  occ. eigenvalues --   -0.49860  -0.49541  -0.49403  -0.49178  -0.49112
 Alpha  occ. eigenvalues --   -0.48880  -0.48171  -0.47976  -0.47793  -0.47656
 Alpha  occ. eigenvalues --   -0.47590  -0.47312  -0.47012  -0.46798  -0.46570
 Alpha  occ. eigenvalues --   -0.46345  -0.45892  -0.45637  -0.45445  -0.45311
 Alpha  occ. eigenvalues --   -0.45116  -0.44668  -0.44497  -0.44235  -0.43831
 Alpha  occ. eigenvalues --   -0.43590  -0.43259  -0.42861  -0.42723  -0.42287
 Alpha  occ. eigenvalues --   -0.42111  -0.41626  -0.40728  -0.39374  -0.38384
 Alpha  occ. eigenvalues --   -0.37411  -0.37299  -0.35772  -0.34971  -0.34244
 Alpha  occ. eigenvalues --   -0.32889  -0.32852  -0.32447  -0.31709  -0.26136
 Alpha  occ. eigenvalues --   -0.21438
 Alpha virt. eigenvalues --   -0.08530  -0.01512  -0.00284   0.01018   0.01350
 Alpha virt. eigenvalues --    0.01651   0.03033   0.03873   0.04309   0.05113
 Alpha virt. eigenvalues --    0.06488   0.07375   0.07719   0.07924   0.08435

 Mulliken charges:
               1
     1  Mg   0.435778
     2  C   -0.037529
     3  C   -0.082771
     4  C   -0.067212
     5  C   -0.075359
     6  N   -0.290782
     7  C    0.138718
     8  C    0.003782
     9  C   -0.007274
    10  C    0.122197
    11  C   -0.062087
    12  C   -0.022609
    13  C   -0.001945
    14  C    0.465490
    15  O   -0.510809
    16  O   -0.256837
    17  N   -0.312085
    18  C    0.122253
    19  C   -0.001699
    20  C   -0.052597
    21  C    0.136641
    22  C   -0.052464
    23  C    0.343550
    24  O   -0.511748
    25  C   -0.034726
    26  N   -0.270796
    27  C    0.126338
    28  C    0.005139
    29  C    0.001837
    30  C    0.145343
    31  C   -0.045901
    32  C   -0.038485
    33  C   -0.057676
    34  N   -0.333583
    35  C    0.107410
    36  C    0.027392
    37  C   -0.048036
    38  C    0.109325
    39  C   -0.033265
    40  C    0.332689
    41  O   -0.525090
    42  C    0.057061
    43  C    0.504963
    44  O   -0.528277
    45  O   -0.274791
    46  C    0.074896
    47  C    0.098524
    48  C   -0.090966
    49  C   -0.016832
    50  C   -0.049912
    51  C   -0.025250
    52  C   -0.033552
    53  C   -0.026394
    54  C    0.008037
    55  C   -0.052120
    56  C   -0.038872
    57  C   -0.046770
    58  C   -0.032275
    59  C   -0.011665
    60  C   -0.072802
    61  C   -0.030871
    62  C   -0.054482
    63  C   -0.037084
    64  C   -0.011143
    65  C   -0.055016
    66  C   -0.068201
    67  H    0.024050
    68  H    0.036449
    69  H    0.031024
    70  H    0.051774
    71  H    0.032073
    72  H    0.040323
    73  H    0.025992
    74  H    0.016602
    75  H    0.024883
    76  H    0.015835
    77  H    0.027289
    78  H    0.042715
    79  H    0.036240
    80  H    0.022630
    81  H    0.016499
    82  H    0.024938
    83  H    0.047335
    84  H    0.030741
    85  H    0.037124
    86  H    0.037857
    87  H    0.029947
    88  H    0.017607
    89  H    0.020178
    90  H    0.018330
    91  H    0.016022
    92  H    0.019777
    93  H    0.020858
    94  H    0.022026
    95  H    0.042029
    96  H    0.027821
    97  H    0.036263
    98  H    0.050910
    99  H    0.048885
   100  H    0.043387
   101  H    0.037895
   102  H    0.051518
   103  H    0.052717
   104  H    0.029965
   105  H    0.034117
   106  H    0.020223
   107  H    0.029742
   108  H    0.009493
   109  H    0.032975
   110  H    0.022048
   111  H    0.030127
   112  H    0.019474
   113  H    0.010661
   114  H    0.012456
   115  H    0.012075
   116  H    0.012642
   117  H    0.021956
   118  H    0.023108
   119  H    0.009667
   120  H    0.024692
   121  H    0.036501
   122  H    0.002956
   123  H    0.013883
   124  H    0.016977
   125  H    0.017797
   126  H    0.020908
   127  H    0.012561
   128  H    0.017960
   129  H    0.024222
   130  H    0.037025
   131  H    0.017241
   132  H    0.017382
   133  H    0.029241
   134  H    0.021270
   135  H    0.021473
   136  H    0.019166
   137  H    0.016132
   138  H    0.021106
   139  H    0.019558
   140  H    0.005958
 Sum of Mulliken charges =  -0.00000

 Dipole moment (field-independent basis, Debye):
    X=              5.3531    Y=              5.7988    Z=             -5.2517  Tot=              9.4796
 N-N= 4.295789055340D+03 E-N= 0.000000000000D+00  KE=-9.266028684788D+03
 Leave Link  601 at Fri Apr 29 11:19:07 2022, MaxMem=  6710886400 cpu:               0.8 elap:               0.1
 (Enter /sw/apps/gaussian-16.0/g16/l9999.exe)
 1\1\GINC-BP1-COMPUTE082\SP\RZINDO CIS\STO-3G\C55H74Mg1N4O6\OF15641\29-
 Apr-2022\0\\#p ZINDO=(nstates=5)\\step_251_chromophore_19 ZINDO\\0,1\M
 g,0,25.493,50.213,27.087\C,0,23.379,51.54,29.657\C,0,27.628,49.172,29.
 695\C,0,27.852,49.591,24.907\C,0,23.462,51.622,24.752\N,0,25.443,50.31
 4,29.398\C,0,24.419,50.809,30.134\C,0,24.667,50.476,31.596\C,0,26.004,
 49.688,31.689\C,0,26.381,49.684,30.195\C,0,27.101,50.374,32.683\C,0,23
 .494,49.619,32.239\C,0,22.964,50.092,33.593\C,0,23.921,50.779,34.648\O

 Normal termination of Gaussian 16 at Fri Apr 29 11:19:07 2022.
