 Gaussian 16, Revision A.03,
 Gaussian 16:  ES64L-G16RevA.03 25-Dec-2016

 ------------------------------
 #p blyp/Def2SVP td=(nstates=5)
 ------------------------------

 -------------------------------------------------
 step_51_chromophore_24 TDDFT with blyp functional
 -------------------------------------------------
 Symbolic Z-matrix:
 Charge =  0 Multiplicity = 1

                         Standard orientation:
 ---------------------------------------------------------------------
 Center     Atomic      Atomic             Coordinates (Angstroms)
 Number     Number       Type             X           Y           Z
 ---------------------------------------------------------------------
      1         12           0        5.431429    0.887304    0.130458
      2          6           0        4.306240   -2.436666    0.326791
      3          6           0        2.215723    1.916622   -0.699318
      4          6           0        6.633603    3.900359   -0.352108
      5          6           0        8.760954   -0.284033    0.521087
      6          7           0        3.445689   -0.098599    0.063910
      7          6           0        3.241222   -1.472259    0.188466
      8          6           0        1.713705   -1.820411    0.070081
      9          6           0        1.045962   -0.468724   -0.394579
     10          6           0        2.274525    0.565984   -0.363586
     11          6           0        0.313379   -0.465660   -1.764169
     12          6           0        1.214336   -2.291846    1.489507
     13          6           0       -0.221743   -2.946448    1.484177
     14          6           0       -0.907231   -3.240706    0.126894
     15          8           0       -0.432698   -3.950509   -0.742811
     16          8           0       -2.108615   -2.608801   -0.003806
     17          7           0        4.508679    2.725874   -0.325129
     18          6           0        3.187242    2.921707   -0.620819
     19          6           0        2.997528    4.387693   -0.820232
     20          6           0        4.295222    4.935261   -0.768056
     21          6           0        5.200638    3.833803   -0.461467
     22          6           0        1.605650    4.936713   -1.197677
     23          6           0        4.817703    6.371717   -1.081607
     24          8           0        5.973118    6.744429   -0.923333
     25          6           0        3.758079    7.347393   -1.432642
     26          7           0        7.439283    1.669555    0.004156
     27          6           0        7.632722    2.940572   -0.152003
     28          6           0        9.105320    3.356030   -0.001620
     29          6           0        9.804177    2.052096    0.504472
     30          6           0        8.561949    1.085096    0.335729
     31          6           0        9.766052    3.887347   -1.212199
     32          6           0       10.232159    2.225410    1.958263
     33          6           0        9.099071    2.455555    2.986889
     34          7           0        6.389227   -0.946574    0.234921
     35          6           0        7.684855   -1.229103    0.399842
     36          6           0        7.800494   -2.691422    0.481558
     37          6           0        6.492282   -3.259850    0.450365
     38          6           0        5.691031   -2.117554    0.304449
     39          6           0        9.004642   -3.452466    0.778600
     40          6           0        5.739560   -4.446909    0.484252
     41          8           0        6.130325   -5.612926    0.648572
     42          6           0        4.272525   -3.936096    0.466991
     43          6           0        3.514768   -4.712437   -0.492922
     44          8           0        3.481892   -4.470492   -1.712450
     45          8           0        2.927712   -5.792433    0.015482
     46          6           0        2.162264   -6.769080   -0.766436
     47          6           0       -2.873507   -2.857671   -1.311824
     48          6           0       -4.369718   -2.574299   -0.966223
     49          6           0       -5.439028   -3.339460   -0.866512
     50          6           0       -5.444352   -4.894269   -0.948095
     51          6           0       -6.759913   -2.642202   -0.477187
     52          6           0       -6.891304   -1.996915    0.899511
     53          6           0       -7.319421   -0.496024    0.805036
     54          6           0       -8.905809   -0.337813    0.882788
     55          6           0       -9.331024    0.218637    2.256472
     56          6           0       -9.480637    0.568733   -0.259355
     57          6           0      -10.701122   -0.176469   -0.898950
     58          6           0      -11.381538    0.880664   -1.830740
     59          6           0      -12.908878    0.720312   -1.963693
     60          6           0      -13.429185    0.813625   -3.469299
     61          6           0      -13.621607    1.748962   -1.088698
     62          6           0      -13.549630    1.388580    0.462756
     63          6           0      -12.516939    2.244836    1.271517
     64          6           0      -13.077115    3.194005    2.320486
     65          6           0      -11.979452    4.117135    2.765007
     66          6           0      -13.876468    2.545486    3.395969
     67          1           0        1.223958    2.318758   -0.917966
     68          1           0        7.172226    4.849416   -0.375477
     69          1           0        9.670119   -0.846707    0.741477
     70          1           0        1.606823   -2.661735   -0.613954
     71          1           0        0.536552   -0.076275    0.486103
     72          1           0        0.431952   -1.509063   -2.056080
     73          1           0        0.899916    0.165708   -2.431977
     74          1           0       -0.711326   -0.109277   -1.659684
     75          1           0        1.064630   -1.439879    2.152692
     76          1           0        2.005569   -2.795481    2.046284
     77          1           0       -0.952919   -2.427837    2.105378
     78          1           0       -0.086231   -3.904037    1.985409
     79          1           0        1.582524    5.161216   -2.263710
     80          1           0        1.315976    5.782787   -0.574284
     81          1           0        0.765054    4.257440   -1.059555
     82          1           0        3.105051    7.487756   -0.570921
     83          1           0        3.170400    7.032872   -2.296184
     84          1           0        4.162604    8.319665   -1.714035
     85          1           0        9.161971    4.130186    0.762797
     86          1           0       10.657052    1.752476   -0.105531
     87          1           0        9.115714    3.915339   -2.086809
     88          1           0       10.727010    3.479234   -1.523926
     89          1           0       10.026907    4.940782   -1.115465
     90          1           0       10.874013    3.105675    1.995167
     91          1           0       10.816484    1.319654    2.114843
     92          1           0        9.243871    3.395343    3.519451
     93          1           0        9.016546    1.655971    3.722357
     94          1           0        8.095892    2.467251    2.560282
     95          1           0        9.026882   -3.382983    1.866277
     96          1           0        9.878777   -2.932581    0.385883
     97          1           0        9.050985   -4.523467    0.578749
     98          1           0        4.023276   -4.152629    1.505799
     99          1           0        1.100935   -6.748940   -0.516549
    100          1           0        2.525468   -7.796460   -0.772683
    101          1           0        2.165679   -6.573831   -1.838861
    102          1           0       -2.763317   -3.847784   -1.752124
    103          1           0       -2.456478   -2.114654   -1.992439
    104          1           0       -4.543006   -1.508499   -0.815487
    105          1           0       -5.543657   -5.345626    0.037982
    106          1           0       -4.485643   -5.239367   -1.337134
    107          1           0       -6.287313   -5.310624   -1.500140
    108          1           0       -7.526603   -3.395819   -0.653351
    109          1           0       -6.966245   -1.931826   -1.277838
    110          1           0       -6.018215   -2.148953    1.534832
    111          1           0       -7.672140   -2.564155    1.407151
    112          1           0       -6.881459   -0.108625   -0.114392
    113          1           0       -6.788582    0.067955    1.572492
    114          1           0       -9.451091   -1.281057    0.881623
    115          1           0       -8.733215   -0.192702    3.070560
    116          1           0      -10.368900    0.013364    2.518970
    117          1           0       -9.247784    1.304636    2.265815
    118          1           0       -8.734143    0.650978   -1.049183
    119          1           0       -9.795345    1.562625    0.057267
    120          1           0      -11.320063   -0.677692   -0.154983
    121          1           0      -10.301024   -0.990393   -1.503853
    122          1           0      -10.913337    0.704661   -2.799275
    123          1           0      -11.125333    1.926428   -1.662658
    124          1           0      -13.168703   -0.298069   -1.674294
    125          1           0      -12.869467    0.072934   -4.040254
    126          1           0      -13.243819    1.747886   -3.999078
    127          1           0      -14.498883    0.607089   -3.490561
    128          1           0      -14.655295    1.826810   -1.427515
    129          1           0      -13.211661    2.746838   -1.245412
    130          1           0      -13.494391    0.317671    0.662260
    131          1           0      -14.595456    1.580743    0.700937
    132          1           0      -12.067070    2.821408    0.463958
    133          1           0      -11.828077    1.597083    1.813287
    134          1           0      -13.770622    3.814550    1.751437
    135          1           0      -12.309017    4.670271    3.644653
    136          1           0      -11.799812    4.784369    1.921761
    137          1           0      -11.112874    3.479037    2.932533
    138          1           0      -13.741026    1.464570    3.439999
    139          1           0      -14.941762    2.715340    3.236722
    140          1           0      -13.630449    3.027412    4.341047
 ---------------------------------------------------------------------

 SCF Done:  E(RB-LYP) =  -3007.37968964     A.U. after   22 cycles

 Excitation energies and oscillator strengths:

 Excited State   1:      Singlet-A      1.8120 eV  684.23 nm  f=0.3189  <S**2>=0.000
     245 -> 248        0.15992
     245 -> 249       -0.11131
     246 -> 247        0.69312
     246 <- 247       -0.15522
 This state for optimization and/or second-order correction.
 Total Energy, E(TD-HF/TD-DFT) =  -3007.31309911
 Copying the excited state density for this state as the 1-particle RhoCI density.

 Excited State   2:      Singlet-A      2.0063 eV  617.97 nm  f=0.0677  <S**2>=0.000
     243 -> 247       -0.21728
     244 -> 247        0.16573
     245 -> 247        0.60965
     246 -> 248       -0.17654
     246 -> 249        0.11548

 Excited State   3:      Singlet-A      2.0859 eV  594.38 nm  f=0.0002  <S**2>=0.000
     243 -> 247        0.45221
     244 -> 247        0.54242

 Excited State   4:      Singlet-A      2.1079 eV  588.20 nm  f=0.0132  <S**2>=0.000
     243 -> 247        0.49682
     244 -> 247       -0.42000
     245 -> 247        0.24251

 Excited State   5:      Singlet-A      2.3652 eV  524.21 nm  f=0.0033  <S**2>=0.000
     242 -> 247        0.69902

 The electronic state is 1-A.
 Alpha  occ. eigenvalues --  -46.27378 -18.82430 -18.81223 -18.76863 -18.75861
 Alpha  occ. eigenvalues --  -18.75473 -18.74307 -14.03288 -14.02856 -14.00914
 Alpha  occ. eigenvalues --  -14.00774 -10.04368 -10.02773 -10.00007  -9.99342
 Alpha  occ. eigenvalues --   -9.98996  -9.97024  -9.96765  -9.96657  -9.96077
 Alpha  occ. eigenvalues --   -9.95453  -9.95442  -9.95433  -9.95182  -9.94267
 Alpha  occ. eigenvalues --   -9.94212  -9.94203  -9.94078  -9.93929  -9.93886
 Alpha  occ. eigenvalues --   -9.93828  -9.93726  -9.93612  -9.93475  -9.93381
 Alpha  occ. eigenvalues --   -9.93100  -9.93055  -9.92706  -9.92561  -9.92551
 Alpha  occ. eigenvalues --   -9.92544  -9.92531  -9.92458  -9.92319  -9.92263
 Alpha  occ. eigenvalues --   -9.92201  -9.92111  -9.92014  -9.91864  -9.91793
 Alpha  occ. eigenvalues --   -9.91740  -9.91675  -9.91644  -9.91440  -9.91300
 Alpha  occ. eigenvalues --   -9.91277  -9.91240  -9.91078  -9.91058  -9.91020
 Alpha  occ. eigenvalues --   -9.91016  -9.90952  -9.90930  -9.90706  -9.90587
 Alpha  occ. eigenvalues --   -9.90253  -2.91933  -1.72378  -1.71813  -1.71633
 Alpha  occ. eigenvalues --   -0.97517  -0.97064  -0.91531  -0.90234  -0.89551
 Alpha  occ. eigenvalues --   -0.88695  -0.87187  -0.86239  -0.86174  -0.83156
 Alpha  occ. eigenvalues --   -0.75989  -0.73723  -0.73247  -0.72703  -0.72298
 Alpha  occ. eigenvalues --   -0.71854  -0.71622  -0.71017  -0.70499  -0.70223
 Alpha  occ. eigenvalues --   -0.69672  -0.68653  -0.67967  -0.67567  -0.66754
 Alpha  occ. eigenvalues --   -0.66245  -0.65810  -0.65291  -0.64958  -0.64363
 Alpha  occ. eigenvalues --   -0.64143  -0.62411  -0.62124  -0.61649  -0.60904
 Alpha  occ. eigenvalues --   -0.60879  -0.60721  -0.59906  -0.59150  -0.59038
 Alpha  occ. eigenvalues --   -0.58377  -0.57175  -0.56567  -0.55708  -0.55589
 Alpha  occ. eigenvalues --   -0.54206  -0.54053  -0.52773  -0.52081  -0.51571
 Alpha  occ. eigenvalues --   -0.51520  -0.50776  -0.50597  -0.50502  -0.50369
 Alpha  occ. eigenvalues --   -0.49164  -0.49090  -0.48379  -0.48199  -0.46797
 Alpha  occ. eigenvalues --   -0.46229  -0.45912  -0.45651  -0.44885  -0.44816
 Alpha  occ. eigenvalues --   -0.44198  -0.42991  -0.42734  -0.42579  -0.42466
 Alpha  occ. eigenvalues --   -0.42370  -0.41793  -0.41397  -0.41338  -0.41082
 Alpha  occ. eigenvalues --   -0.40714  -0.40331  -0.40269  -0.40016  -0.39734
 Alpha  occ. eigenvalues --   -0.39652  -0.39506  -0.39367  -0.39035  -0.39021
 Alpha  occ. eigenvalues --   -0.38860  -0.38525  -0.38388  -0.38338  -0.37952
 Alpha  occ. eigenvalues --   -0.37729  -0.37630  -0.37438  -0.37271  -0.37006
 Alpha  occ. eigenvalues --   -0.36835  -0.36548  -0.36519  -0.36263  -0.36232
 Alpha  occ. eigenvalues --   -0.35965  -0.35765  -0.35726  -0.35520  -0.35470
 Alpha  occ. eigenvalues --   -0.35303  -0.34976  -0.34935  -0.34844  -0.34607
 Alpha  occ. eigenvalues --   -0.34268  -0.34233  -0.34200  -0.34116  -0.34032
 Alpha  occ. eigenvalues --   -0.33999  -0.33724  -0.33690  -0.33420  -0.33136
 Alpha  occ. eigenvalues --   -0.33058  -0.32708  -0.32535  -0.32491  -0.32262
 Alpha  occ. eigenvalues --   -0.32114  -0.31772  -0.31592  -0.31481  -0.31335
 Alpha  occ. eigenvalues --   -0.31100  -0.30808  -0.30676  -0.30660  -0.30631
 Alpha  occ. eigenvalues --   -0.30508  -0.30378  -0.30210  -0.30023  -0.29973
 Alpha  occ. eigenvalues --   -0.29870  -0.29428  -0.29025  -0.28862  -0.28667
 Alpha  occ. eigenvalues --   -0.28350  -0.28112  -0.27889  -0.27849  -0.27682
 Alpha  occ. eigenvalues --   -0.27532  -0.27514  -0.27233  -0.26740  -0.26560
 Alpha  occ. eigenvalues --   -0.26218  -0.26066  -0.25860  -0.25503  -0.25415
 Alpha  occ. eigenvalues --   -0.24709  -0.23963  -0.23727  -0.23558  -0.23380
 Alpha  occ. eigenvalues --   -0.22906  -0.22555  -0.21901  -0.21327  -0.20811
 Alpha  occ. eigenvalues --   -0.20174  -0.19837  -0.18786  -0.18755  -0.16906
 Alpha  occ. eigenvalues --   -0.15416
 Alpha virt. eigenvalues --   -0.11193  -0.06314  -0.06058  -0.04524  -0.03334
 Alpha virt. eigenvalues --   -0.02793  -0.02085  -0.01388  -0.00739   0.00481
 Alpha virt. eigenvalues --    0.01502   0.02010   0.02209   0.02574   0.02783

 Mulliken charges:
               1
     1  Mg   0.688462
     2  C    0.035377
     3  C   -0.035766
     4  C   -0.015272
     5  C   -0.070027
     6  N   -0.245874
     7  C   -0.062056
     8  C   -0.043916
     9  C    0.044495
    10  C   -0.015800
    11  C    0.158477
    12  C    0.091448
    13  C    0.161303
    14  C    0.059279
    15  O   -0.199482
    16  O   -0.278140
    17  N   -0.242827
    18  C    0.089127
    19  C   -0.126403
    20  C    0.004790
    21  C    0.102775
    22  C    0.148703
    23  C   -0.045298
    24  O   -0.152527
    25  C    0.131852
    26  N   -0.121207
    27  C   -0.065995
    28  C    0.035221
    29  C    0.010790
    30  C    0.041096
    31  C    0.137708
    32  C    0.096145
    33  C    0.063323
    34  N   -0.236197
    35  C    0.055789
    36  C   -0.179147
    37  C    0.122027
    38  C    0.052619
    39  C    0.158060
    40  C   -0.091926
    41  O   -0.145248
    42  C    0.079219
    43  C    0.116463
    44  O   -0.216780
    45  O   -0.237963
    46  C    0.219180
    47  C    0.310358
    48  C   -0.085685
    49  C   -0.142422
    50  C    0.133093
    51  C    0.123331
    52  C    0.087700
    53  C    0.106803
    54  C   -0.042972
    55  C    0.081075
    56  C    0.081864
    57  C    0.033061
    58  C    0.120509
    59  C   -0.041025
    60  C    0.075722
    61  C    0.087129
    62  C    0.087333
    63  C    0.067012
    64  C   -0.100992
    65  C    0.131113
    66  C    0.148048
    67  H   -0.076516
    68  H   -0.053390
    69  H   -0.069804
    70  H    0.029715
    71  H   -0.028587
    72  H    0.015135
    73  H   -0.003880
    74  H    0.003473
    75  H   -0.035111
    76  H   -0.020229
    77  H   -0.013006
    78  H    0.001015
    79  H    0.014621
    80  H   -0.001039
    81  H   -0.020203
    82  H    0.014775
    83  H   -0.000429
    84  H   -0.014889
    85  H   -0.021001
    86  H   -0.029837
    87  H   -0.011461
    88  H   -0.016689
    89  H   -0.023170
    90  H   -0.018122
    91  H   -0.021854
    92  H   -0.006648
    93  H   -0.011022
    94  H   -0.000182
    95  H    0.003429
    96  H   -0.005213
    97  H    0.011033
    98  H    0.006982
    99  H    0.016704
   100  H    0.015155
   101  H    0.006251
   102  H    0.009249
   103  H   -0.002037
   104  H   -0.036153
   105  H    0.001246
   106  H   -0.012463
   107  H   -0.002043
   108  H   -0.049344
   109  H   -0.016789
   110  H   -0.022844
   111  H   -0.030508
   112  H   -0.032211
   113  H   -0.038093
   114  H   -0.026129
   115  H   -0.024358
   116  H   -0.003523
   117  H   -0.011121
   118  H   -0.034704
   119  H   -0.019003
   120  H   -0.016962
   121  H   -0.027823
   122  H   -0.052930
   123  H   -0.034690
   124  H   -0.041072
   125  H   -0.020915
   126  H   -0.018403
   127  H   -0.012930
   128  H   -0.046080
   129  H   -0.038112
   130  H   -0.038309
   131  H   -0.045628
   132  H   -0.024283
   133  H   -0.027927
   134  H   -0.052947
   135  H   -0.017247
   136  H   -0.020008
   137  H   -0.016937
   138  H   -0.021427
   139  H   -0.017777
   140  H   -0.029703
 Sum of Mulliken charges =  -0.00000

 Dipole moment (field-independent basis, Debye):
    X=             -5.6152    Y=              2.2599    Z=              2.4364  Tot=              6.5249
 Quadrupole moment (field-independent basis, Debye-Ang):
   XX=           -380.2707   YY=           -429.4816   ZZ=           -406.2763
   XY=             21.4343   XZ=             15.8068   YZ=             -5.1531

 Normal termination of Gaussian 16 at Thu May  5 03:18:51 2022.
