 Gaussian 16, Revision A.03,
 Gaussian 16:  ES64L-G16RevA.03 25-Dec-2016

 -----------------------------------
 #p cam-b3lyp/Def2SVP td=(nstates=5)
 -----------------------------------

 ------------------------------------------------------
 step_51_chromophore_24 TDDFT with cam-b3lyp functional
 ------------------------------------------------------
 Symbolic Z-matrix:
 Charge =  0 Multiplicity = 1

                         Standard orientation:
 ---------------------------------------------------------------------
 Center     Atomic      Atomic             Coordinates (Angstroms)
 Number     Number       Type             X           Y           Z
 ---------------------------------------------------------------------
      1         12           0        5.431429    0.887304    0.130458
      2          6           0        4.306240   -2.436666    0.326791
      3          6           0        2.215723    1.916622   -0.699318
      4          6           0        6.633603    3.900359   -0.352108
      5          6           0        8.760954   -0.284033    0.521087
      6          7           0        3.445689   -0.098599    0.063910
      7          6           0        3.241222   -1.472259    0.188466
      8          6           0        1.713705   -1.820411    0.070081
      9          6           0        1.045962   -0.468724   -0.394579
     10          6           0        2.274525    0.565984   -0.363586
     11          6           0        0.313379   -0.465660   -1.764169
     12          6           0        1.214336   -2.291846    1.489507
     13          6           0       -0.221743   -2.946448    1.484177
     14          6           0       -0.907231   -3.240706    0.126894
     15          8           0       -0.432698   -3.950509   -0.742811
     16          8           0       -2.108615   -2.608801   -0.003806
     17          7           0        4.508679    2.725874   -0.325129
     18          6           0        3.187242    2.921707   -0.620819
     19          6           0        2.997528    4.387693   -0.820232
     20          6           0        4.295222    4.935261   -0.768056
     21          6           0        5.200638    3.833803   -0.461467
     22          6           0        1.605650    4.936713   -1.197677
     23          6           0        4.817703    6.371717   -1.081607
     24          8           0        5.973118    6.744429   -0.923333
     25          6           0        3.758079    7.347393   -1.432642
     26          7           0        7.439283    1.669555    0.004156
     27          6           0        7.632722    2.940572   -0.152003
     28          6           0        9.105320    3.356030   -0.001620
     29          6           0        9.804177    2.052096    0.504472
     30          6           0        8.561949    1.085096    0.335729
     31          6           0        9.766052    3.887347   -1.212199
     32          6           0       10.232159    2.225410    1.958263
     33          6           0        9.099071    2.455555    2.986889
     34          7           0        6.389227   -0.946574    0.234921
     35          6           0        7.684855   -1.229103    0.399842
     36          6           0        7.800494   -2.691422    0.481558
     37          6           0        6.492282   -3.259850    0.450365
     38          6           0        5.691031   -2.117554    0.304449
     39          6           0        9.004642   -3.452466    0.778600
     40          6           0        5.739560   -4.446909    0.484252
     41          8           0        6.130325   -5.612926    0.648572
     42          6           0        4.272525   -3.936096    0.466991
     43          6           0        3.514768   -4.712437   -0.492922
     44          8           0        3.481892   -4.470492   -1.712450
     45          8           0        2.927712   -5.792433    0.015482
     46          6           0        2.162264   -6.769080   -0.766436
     47          6           0       -2.873507   -2.857671   -1.311824
     48          6           0       -4.369718   -2.574299   -0.966223
     49          6           0       -5.439028   -3.339460   -0.866512
     50          6           0       -5.444352   -4.894269   -0.948095
     51          6           0       -6.759913   -2.642202   -0.477187
     52          6           0       -6.891304   -1.996915    0.899511
     53          6           0       -7.319421   -0.496024    0.805036
     54          6           0       -8.905809   -0.337813    0.882788
     55          6           0       -9.331024    0.218637    2.256472
     56          6           0       -9.480637    0.568733   -0.259355
     57          6           0      -10.701122   -0.176469   -0.898950
     58          6           0      -11.381538    0.880664   -1.830740
     59          6           0      -12.908878    0.720312   -1.963693
     60          6           0      -13.429185    0.813625   -3.469299
     61          6           0      -13.621607    1.748962   -1.088698
     62          6           0      -13.549630    1.388580    0.462756
     63          6           0      -12.516939    2.244836    1.271517
     64          6           0      -13.077115    3.194005    2.320486
     65          6           0      -11.979452    4.117135    2.765007
     66          6           0      -13.876468    2.545486    3.395969
     67          1           0        1.223958    2.318758   -0.917966
     68          1           0        7.172226    4.849416   -0.375477
     69          1           0        9.670119   -0.846707    0.741477
     70          1           0        1.606823   -2.661735   -0.613954
     71          1           0        0.536552   -0.076275    0.486103
     72          1           0        0.431952   -1.509063   -2.056080
     73          1           0        0.899916    0.165708   -2.431977
     74          1           0       -0.711326   -0.109277   -1.659684
     75          1           0        1.064630   -1.439879    2.152692
     76          1           0        2.005569   -2.795481    2.046284
     77          1           0       -0.952919   -2.427837    2.105378
     78          1           0       -0.086231   -3.904037    1.985409
     79          1           0        1.582524    5.161216   -2.263710
     80          1           0        1.315976    5.782787   -0.574284
     81          1           0        0.765054    4.257440   -1.059555
     82          1           0        3.105051    7.487756   -0.570921
     83          1           0        3.170400    7.032872   -2.296184
     84          1           0        4.162604    8.319665   -1.714035
     85          1           0        9.161971    4.130186    0.762797
     86          1           0       10.657052    1.752476   -0.105531
     87          1           0        9.115714    3.915339   -2.086809
     88          1           0       10.727010    3.479234   -1.523926
     89          1           0       10.026907    4.940782   -1.115465
     90          1           0       10.874013    3.105675    1.995167
     91          1           0       10.816484    1.319654    2.114843
     92          1           0        9.243871    3.395343    3.519451
     93          1           0        9.016546    1.655971    3.722357
     94          1           0        8.095892    2.467251    2.560282
     95          1           0        9.026882   -3.382983    1.866277
     96          1           0        9.878777   -2.932581    0.385883
     97          1           0        9.050985   -4.523467    0.578749
     98          1           0        4.023276   -4.152629    1.505799
     99          1           0        1.100935   -6.748940   -0.516549
    100          1           0        2.525468   -7.796460   -0.772683
    101          1           0        2.165679   -6.573831   -1.838861
    102          1           0       -2.763317   -3.847784   -1.752124
    103          1           0       -2.456478   -2.114654   -1.992439
    104          1           0       -4.543006   -1.508499   -0.815487
    105          1           0       -5.543657   -5.345626    0.037982
    106          1           0       -4.485643   -5.239367   -1.337134
    107          1           0       -6.287313   -5.310624   -1.500140
    108          1           0       -7.526603   -3.395819   -0.653351
    109          1           0       -6.966245   -1.931826   -1.277838
    110          1           0       -6.018215   -2.148953    1.534832
    111          1           0       -7.672140   -2.564155    1.407151
    112          1           0       -6.881459   -0.108625   -0.114392
    113          1           0       -6.788582    0.067955    1.572492
    114          1           0       -9.451091   -1.281057    0.881623
    115          1           0       -8.733215   -0.192702    3.070560
    116          1           0      -10.368900    0.013364    2.518970
    117          1           0       -9.247784    1.304636    2.265815
    118          1           0       -8.734143    0.650978   -1.049183
    119          1           0       -9.795345    1.562625    0.057267
    120          1           0      -11.320063   -0.677692   -0.154983
    121          1           0      -10.301024   -0.990393   -1.503853
    122          1           0      -10.913337    0.704661   -2.799275
    123          1           0      -11.125333    1.926428   -1.662658
    124          1           0      -13.168703   -0.298069   -1.674294
    125          1           0      -12.869467    0.072934   -4.040254
    126          1           0      -13.243819    1.747886   -3.999078
    127          1           0      -14.498883    0.607089   -3.490561
    128          1           0      -14.655295    1.826810   -1.427515
    129          1           0      -13.211661    2.746838   -1.245412
    130          1           0      -13.494391    0.317671    0.662260
    131          1           0      -14.595456    1.580743    0.700937
    132          1           0      -12.067070    2.821408    0.463958
    133          1           0      -11.828077    1.597083    1.813287
    134          1           0      -13.770622    3.814550    1.751437
    135          1           0      -12.309017    4.670271    3.644653
    136          1           0      -11.799812    4.784369    1.921761
    137          1           0      -11.112874    3.479037    2.932533
    138          1           0      -13.741026    1.464570    3.439999
    139          1           0      -14.941762    2.715340    3.236722
    140          1           0      -13.630449    3.027412    4.341047
 ---------------------------------------------------------------------

 SCF Done:  E(RCAM-B3LYP) =  -3007.17407962     A.U. after   17 cycles

 Excitation energies and oscillator strengths:

 Excited State   1:      Singlet-A      1.6973 eV  730.49 nm  f=0.3881  <S**2>=0.000
     245 -> 248        0.18048
     246 -> 247        0.68620
     245 <- 248        0.10963
 This state for optimization and/or second-order correction.
 Total Energy, E(TD-HF/TD-DFT) =  -3007.11170565
 Copying the excited state density for this state as the 1-particle RhoCI density.

 Excited State   2:      Singlet-A      2.2388 eV  553.81 nm  f=0.1201  <S**2>=0.000
     245 -> 247        0.64366
     246 -> 248       -0.28452

 Excited State   3:      Singlet-A      3.4834 eV  355.93 nm  f=0.0233  <S**2>=0.000
     243 -> 247       -0.20615
     244 -> 247        0.61956
     246 -> 248        0.21179

 Excited State   4:      Singlet-A      3.5429 eV  349.95 nm  f=0.2126  <S**2>=0.000
     241 -> 247       -0.20824
     241 -> 249        0.11614
     242 -> 247        0.38181
     242 -> 249       -0.21875
     242 -> 250        0.12763
     244 -> 247       -0.18069
     245 -> 247        0.15087
     246 -> 248        0.32878

 Excited State   5:      Singlet-A      3.5858 eV  345.76 nm  f=0.4149  <S**2>=0.000
     240 -> 247       -0.13815
     241 -> 247        0.10263
     242 -> 247       -0.16376
     242 -> 249        0.14755
     243 -> 247        0.33703
     245 -> 247        0.21200
     246 -> 248        0.47843

 The electronic state is 1-A.
 Alpha  occ. eigenvalues --  -46.88918 -19.25315 -19.24185 -19.19815 -19.19116
 Alpha  occ. eigenvalues --  -19.18631 -19.17349 -14.42205 -14.41592 -14.39364
 Alpha  occ. eigenvalues --  -14.39171 -10.39669 -10.38213 -10.35254 -10.34729
 Alpha  occ. eigenvalues --  -10.33300 -10.31677 -10.31165 -10.30770 -10.30446
 Alpha  occ. eigenvalues --  -10.29765 -10.29745 -10.29704 -10.29433 -10.28834
 Alpha  occ. eigenvalues --  -10.28635 -10.28262 -10.28053 -10.28045 -10.28026
 Alpha  occ. eigenvalues --  -10.27948 -10.27939 -10.27925 -10.27856 -10.27425
 Alpha  occ. eigenvalues --  -10.27020 -10.26886 -10.26794 -10.26731 -10.26623
 Alpha  occ. eigenvalues --  -10.26391 -10.26312 -10.26196 -10.26195 -10.25999
 Alpha  occ. eigenvalues --  -10.25896 -10.25729 -10.25719 -10.25690 -10.25607
 Alpha  occ. eigenvalues --  -10.25467 -10.25415 -10.25362 -10.25345 -10.25002
 Alpha  occ. eigenvalues --  -10.24999 -10.24951 -10.24787 -10.24710 -10.24672
 Alpha  occ. eigenvalues --  -10.24588 -10.24578 -10.24552 -10.24281 -10.24268
 Alpha  occ. eigenvalues --  -10.24131  -3.17374  -1.92297  -1.91825  -1.91669
 Alpha  occ. eigenvalues --   -1.15964  -1.15603  -1.09965  -1.08588  -1.07358
 Alpha  occ. eigenvalues --   -1.06452  -1.05118  -1.03841  -1.03794  -1.00687
 Alpha  occ. eigenvalues --   -0.93201  -0.90562  -0.90070  -0.89379  -0.89004
 Alpha  occ. eigenvalues --   -0.88579  -0.88289  -0.87612  -0.87068  -0.86826
 Alpha  occ. eigenvalues --   -0.86309  -0.84943  -0.84214  -0.83757  -0.82845
 Alpha  occ. eigenvalues --   -0.82247  -0.81956  -0.81286  -0.80761  -0.80226
 Alpha  occ. eigenvalues --   -0.79936  -0.78170  -0.77750  -0.77136  -0.76302
 Alpha  occ. eigenvalues --   -0.76264  -0.76080  -0.75135  -0.74401  -0.74279
 Alpha  occ. eigenvalues --   -0.73430  -0.72160  -0.71442  -0.70509  -0.70252
 Alpha  occ. eigenvalues --   -0.68843  -0.68635  -0.67171  -0.66532  -0.65807
 Alpha  occ. eigenvalues --   -0.65523  -0.64868  -0.64677  -0.64574  -0.64400
 Alpha  occ. eigenvalues --   -0.63029  -0.62865  -0.62049  -0.61986  -0.60466
 Alpha  occ. eigenvalues --   -0.59651  -0.59538  -0.59153  -0.58403  -0.58299
 Alpha  occ. eigenvalues --   -0.57513  -0.56149  -0.56016  -0.55764  -0.55412
 Alpha  occ. eigenvalues --   -0.55323  -0.54959  -0.54588  -0.54290  -0.53937
 Alpha  occ. eigenvalues --   -0.53487  -0.53181  -0.53071  -0.52631  -0.52505
 Alpha  occ. eigenvalues --   -0.52341  -0.52208  -0.52056  -0.51912  -0.51801
 Alpha  occ. eigenvalues --   -0.51329  -0.51198  -0.51008  -0.50856  -0.50507
 Alpha  occ. eigenvalues --   -0.50107  -0.49923  -0.49768  -0.49595  -0.49369
 Alpha  occ. eigenvalues --   -0.49112  -0.48865  -0.48789  -0.48518  -0.48344
 Alpha  occ. eigenvalues --   -0.48278  -0.48154  -0.47962  -0.47673  -0.47577
 Alpha  occ. eigenvalues --   -0.47342  -0.47175  -0.47041  -0.46771  -0.46700
 Alpha  occ. eigenvalues --   -0.46270  -0.46179  -0.45947  -0.45937  -0.45806
 Alpha  occ. eigenvalues --   -0.45669  -0.45593  -0.45521  -0.45053  -0.44702
 Alpha  occ. eigenvalues --   -0.44617  -0.44420  -0.44262  -0.44033  -0.43994
 Alpha  occ. eigenvalues --   -0.43721  -0.43521  -0.43169  -0.43086  -0.42784
 Alpha  occ. eigenvalues --   -0.42570  -0.42467  -0.42405  -0.42250  -0.41966
 Alpha  occ. eigenvalues --   -0.41860  -0.41675  -0.41480  -0.41386  -0.41158
 Alpha  occ. eigenvalues --   -0.41135  -0.40506  -0.40370  -0.39894  -0.39622
 Alpha  occ. eigenvalues --   -0.39469  -0.39282  -0.39206  -0.38843  -0.38743
 Alpha  occ. eigenvalues --   -0.38511  -0.38481  -0.38304  -0.37798  -0.37280
 Alpha  occ. eigenvalues --   -0.37112  -0.36963  -0.36692  -0.36563  -0.36132
 Alpha  occ. eigenvalues --   -0.35518  -0.35059  -0.34406  -0.34222  -0.33798
 Alpha  occ. eigenvalues --   -0.33650  -0.33024  -0.32441  -0.31525  -0.31290
 Alpha  occ. eigenvalues --   -0.30943  -0.30757  -0.30138  -0.29302  -0.23600
 Alpha  occ. eigenvalues --   -0.20688
 Alpha virt. eigenvalues --   -0.08302  -0.01064   0.00420   0.02448   0.02923
 Alpha virt. eigenvalues --    0.04200   0.04975   0.06128   0.06209   0.06823
 Alpha virt. eigenvalues --    0.08308   0.08362   0.08721   0.09026   0.09103

 Mulliken charges:
               1
     1  Mg   0.821411
     2  C    0.006481
     3  C   -0.054102
     4  C   -0.033585
     5  C   -0.069399
     6  N   -0.316004
     7  C   -0.011706
     8  C   -0.096749
     9  C   -0.008215
    10  C    0.008597
    11  C    0.093738
    12  C    0.047138
    13  C    0.091240
    14  C    0.136142
    15  O   -0.241283
    16  O   -0.342669
    17  N   -0.331747
    18  C    0.097360
    19  C   -0.133976
    20  C   -0.060677
    21  C    0.126161
    22  C    0.094738
    23  C    0.037266
    24  O   -0.193127
    25  C    0.046551
    26  N   -0.195925
    27  C   -0.045618
    28  C   -0.025204
    29  C   -0.033592
    30  C    0.046059
    31  C    0.074899
    32  C    0.045404
    33  C   -0.002500
    34  N   -0.327734
    35  C    0.063700
    36  C   -0.171590
    37  C    0.040963
    38  C    0.090986
    39  C    0.096653
    40  C    0.012765
    41  O   -0.184603
    42  C   -0.003549
    43  C    0.201330
    44  O   -0.255105
    45  O   -0.302622
    46  C    0.184371
    47  C    0.285635
    48  C   -0.111349
    49  C   -0.165071
    50  C    0.076887
    51  C    0.067903
    52  C    0.027984
    53  C    0.052425
    54  C   -0.099149
    55  C    0.029173
    56  C    0.033237
    57  C   -0.012703
    58  C    0.061717
    59  C   -0.100455
    60  C    0.023391
    61  C    0.035619
    62  C    0.029612
    63  C    0.021050
    64  C   -0.156196
    65  C    0.073059
    66  C    0.081478
    67  H   -0.041602
    68  H   -0.013049
    69  H   -0.032298
    70  H    0.061860
    71  H    0.007182
    72  H    0.038014
    73  H    0.023736
    74  H    0.025963
    75  H   -0.003416
    76  H    0.009974
    77  H    0.022280
    78  H    0.032937
    79  H    0.039516
    80  H    0.024507
    81  H    0.008291
    82  H    0.041369
    83  H    0.027377
    84  H    0.020914
    85  H    0.014385
    86  H    0.006382
    87  H    0.016180
    88  H    0.009075
    89  H    0.002801
    90  H    0.010254
    91  H    0.005872
    92  H    0.017845
    93  H    0.014702
    94  H    0.020217
    95  H    0.031123
    96  H    0.018053
    97  H    0.041272
    98  H    0.049991
    99  H    0.038054
   100  H    0.036628
   101  H    0.034052
   102  H    0.038529
   103  H    0.025377
   104  H   -0.005480
   105  H    0.025136
   106  H    0.010062
   107  H    0.021416
   108  H   -0.018591
   109  H    0.011383
   110  H    0.008147
   111  H   -0.002120
   112  H   -0.006138
   113  H   -0.006840
   114  H    0.003251
   115  H    0.001613
   116  H    0.017524
   117  H    0.008875
   118  H   -0.006112
   119  H    0.005659
   120  H    0.005738
   121  H   -0.000821
   122  H   -0.020732
   123  H   -0.007213
   124  H   -0.008703
   125  H    0.003116
   126  H    0.004707
   127  H    0.010641
   128  H   -0.015271
   129  H   -0.010192
   130  H   -0.009668
   131  H   -0.014357
   132  H   -0.000576
   133  H   -0.007421
   134  H   -0.020845
   135  H    0.007707
   136  H    0.004930
   137  H    0.003699
   138  H    0.003109
   139  H    0.007093
   140  H   -0.003990
 Sum of Mulliken charges =  -0.00000

 Dipole moment (field-independent basis, Debye):
    X=             -5.8836    Y=              2.5946    Z=              2.4106  Tot=              6.8672
 Quadrupole moment (field-independent basis, Debye-Ang):
   XX=           -379.8345   YY=           -425.2239   ZZ=           -406.0151
   XY=             22.5932   XZ=             16.7318   YZ=             -6.4200

 Normal termination of Gaussian 16 at Thu May  5 02:03:36 2022.
