 Gaussian 16, Revision A.03,
 Gaussian 16:  ES64L-G16RevA.03 25-Dec-2016

 ---------------------------------
 #p PBE1PBE/Def2SVP td=(nstates=5)
 ---------------------------------

 ----------------------------------------------------
 step_51_chromophore_24 TDDFT with PBE1PBE functional
 ----------------------------------------------------
 Symbolic Z-matrix:
 Charge =  0 Multiplicity = 1

                         Standard orientation:
 ---------------------------------------------------------------------
 Center     Atomic      Atomic             Coordinates (Angstroms)
 Number     Number       Type             X           Y           Z
 ---------------------------------------------------------------------
      1         12           0        5.431429    0.887304    0.130458
      2          6           0        4.306240   -2.436666    0.326791
      3          6           0        2.215723    1.916622   -0.699318
      4          6           0        6.633603    3.900359   -0.352108
      5          6           0        8.760954   -0.284033    0.521087
      6          7           0        3.445689   -0.098599    0.063910
      7          6           0        3.241222   -1.472259    0.188466
      8          6           0        1.713705   -1.820411    0.070081
      9          6           0        1.045962   -0.468724   -0.394579
     10          6           0        2.274525    0.565984   -0.363586
     11          6           0        0.313379   -0.465660   -1.764169
     12          6           0        1.214336   -2.291846    1.489507
     13          6           0       -0.221743   -2.946448    1.484177
     14          6           0       -0.907231   -3.240706    0.126894
     15          8           0       -0.432698   -3.950509   -0.742811
     16          8           0       -2.108615   -2.608801   -0.003806
     17          7           0        4.508679    2.725874   -0.325129
     18          6           0        3.187242    2.921707   -0.620819
     19          6           0        2.997528    4.387693   -0.820232
     20          6           0        4.295222    4.935261   -0.768056
     21          6           0        5.200638    3.833803   -0.461467
     22          6           0        1.605650    4.936713   -1.197677
     23          6           0        4.817703    6.371717   -1.081607
     24          8           0        5.973118    6.744429   -0.923333
     25          6           0        3.758079    7.347393   -1.432642
     26          7           0        7.439283    1.669555    0.004156
     27          6           0        7.632722    2.940572   -0.152003
     28          6           0        9.105320    3.356030   -0.001620
     29          6           0        9.804177    2.052096    0.504472
     30          6           0        8.561949    1.085096    0.335729
     31          6           0        9.766052    3.887347   -1.212199
     32          6           0       10.232159    2.225410    1.958263
     33          6           0        9.099071    2.455555    2.986889
     34          7           0        6.389227   -0.946574    0.234921
     35          6           0        7.684855   -1.229103    0.399842
     36          6           0        7.800494   -2.691422    0.481558
     37          6           0        6.492282   -3.259850    0.450365
     38          6           0        5.691031   -2.117554    0.304449
     39          6           0        9.004642   -3.452466    0.778600
     40          6           0        5.739560   -4.446909    0.484252
     41          8           0        6.130325   -5.612926    0.648572
     42          6           0        4.272525   -3.936096    0.466991
     43          6           0        3.514768   -4.712437   -0.492922
     44          8           0        3.481892   -4.470492   -1.712450
     45          8           0        2.927712   -5.792433    0.015482
     46          6           0        2.162264   -6.769080   -0.766436
     47          6           0       -2.873507   -2.857671   -1.311824
     48          6           0       -4.369718   -2.574299   -0.966223
     49          6           0       -5.439028   -3.339460   -0.866512
     50          6           0       -5.444352   -4.894269   -0.948095
     51          6           0       -6.759913   -2.642202   -0.477187
     52          6           0       -6.891304   -1.996915    0.899511
     53          6           0       -7.319421   -0.496024    0.805036
     54          6           0       -8.905809   -0.337813    0.882788
     55          6           0       -9.331024    0.218637    2.256472
     56          6           0       -9.480637    0.568733   -0.259355
     57          6           0      -10.701122   -0.176469   -0.898950
     58          6           0      -11.381538    0.880664   -1.830740
     59          6           0      -12.908878    0.720312   -1.963693
     60          6           0      -13.429185    0.813625   -3.469299
     61          6           0      -13.621607    1.748962   -1.088698
     62          6           0      -13.549630    1.388580    0.462756
     63          6           0      -12.516939    2.244836    1.271517
     64          6           0      -13.077115    3.194005    2.320486
     65          6           0      -11.979452    4.117135    2.765007
     66          6           0      -13.876468    2.545486    3.395969
     67          1           0        1.223958    2.318758   -0.917966
     68          1           0        7.172226    4.849416   -0.375477
     69          1           0        9.670119   -0.846707    0.741477
     70          1           0        1.606823   -2.661735   -0.613954
     71          1           0        0.536552   -0.076275    0.486103
     72          1           0        0.431952   -1.509063   -2.056080
     73          1           0        0.899916    0.165708   -2.431977
     74          1           0       -0.711326   -0.109277   -1.659684
     75          1           0        1.064630   -1.439879    2.152692
     76          1           0        2.005569   -2.795481    2.046284
     77          1           0       -0.952919   -2.427837    2.105378
     78          1           0       -0.086231   -3.904037    1.985409
     79          1           0        1.582524    5.161216   -2.263710
     80          1           0        1.315976    5.782787   -0.574284
     81          1           0        0.765054    4.257440   -1.059555
     82          1           0        3.105051    7.487756   -0.570921
     83          1           0        3.170400    7.032872   -2.296184
     84          1           0        4.162604    8.319665   -1.714035
     85          1           0        9.161971    4.130186    0.762797
     86          1           0       10.657052    1.752476   -0.105531
     87          1           0        9.115714    3.915339   -2.086809
     88          1           0       10.727010    3.479234   -1.523926
     89          1           0       10.026907    4.940782   -1.115465
     90          1           0       10.874013    3.105675    1.995167
     91          1           0       10.816484    1.319654    2.114843
     92          1           0        9.243871    3.395343    3.519451
     93          1           0        9.016546    1.655971    3.722357
     94          1           0        8.095892    2.467251    2.560282
     95          1           0        9.026882   -3.382983    1.866277
     96          1           0        9.878777   -2.932581    0.385883
     97          1           0        9.050985   -4.523467    0.578749
     98          1           0        4.023276   -4.152629    1.505799
     99          1           0        1.100935   -6.748940   -0.516549
    100          1           0        2.525468   -7.796460   -0.772683
    101          1           0        2.165679   -6.573831   -1.838861
    102          1           0       -2.763317   -3.847784   -1.752124
    103          1           0       -2.456478   -2.114654   -1.992439
    104          1           0       -4.543006   -1.508499   -0.815487
    105          1           0       -5.543657   -5.345626    0.037982
    106          1           0       -4.485643   -5.239367   -1.337134
    107          1           0       -6.287313   -5.310624   -1.500140
    108          1           0       -7.526603   -3.395819   -0.653351
    109          1           0       -6.966245   -1.931826   -1.277838
    110          1           0       -6.018215   -2.148953    1.534832
    111          1           0       -7.672140   -2.564155    1.407151
    112          1           0       -6.881459   -0.108625   -0.114392
    113          1           0       -6.788582    0.067955    1.572492
    114          1           0       -9.451091   -1.281057    0.881623
    115          1           0       -8.733215   -0.192702    3.070560
    116          1           0      -10.368900    0.013364    2.518970
    117          1           0       -9.247784    1.304636    2.265815
    118          1           0       -8.734143    0.650978   -1.049183
    119          1           0       -9.795345    1.562625    0.057267
    120          1           0      -11.320063   -0.677692   -0.154983
    121          1           0      -10.301024   -0.990393   -1.503853
    122          1           0      -10.913337    0.704661   -2.799275
    123          1           0      -11.125333    1.926428   -1.662658
    124          1           0      -13.168703   -0.298069   -1.674294
    125          1           0      -12.869467    0.072934   -4.040254
    126          1           0      -13.243819    1.747886   -3.999078
    127          1           0      -14.498883    0.607089   -3.490561
    128          1           0      -14.655295    1.826810   -1.427515
    129          1           0      -13.211661    2.746838   -1.245412
    130          1           0      -13.494391    0.317671    0.662260
    131          1           0      -14.595456    1.580743    0.700937
    132          1           0      -12.067070    2.821408    0.463958
    133          1           0      -11.828077    1.597083    1.813287
    134          1           0      -13.770622    3.814550    1.751437
    135          1           0      -12.309017    4.670271    3.644653
    136          1           0      -11.799812    4.784369    1.921761
    137          1           0      -11.112874    3.479037    2.932533
    138          1           0      -13.741026    1.464570    3.439999
    139          1           0      -14.941762    2.715340    3.236722
    140          1           0      -13.630449    3.027412    4.341047
 ---------------------------------------------------------------------

 SCF Done:  E(RPBE1PBE) =  -3005.36257762     A.U. after   15 cycles

 Excitation energies and oscillator strengths:

 Excited State   1:      Singlet-A      1.8574 eV  667.53 nm  f=0.3794  <S**2>=0.000
     245 -> 248        0.17068
     246 -> 247        0.69414
     246 <- 247       -0.11156
 This state for optimization and/or second-order correction.
 Total Energy, E(TD-HF/TD-DFT) =  -3005.29432060
 Copying the excited state density for this state as the 1-particle RhoCI density.

 Excited State   2:      Singlet-A      2.2446 eV  552.37 nm  f=0.1169  <S**2>=0.000
     245 -> 247        0.65552
     246 -> 248       -0.25473

 Excited State   3:      Singlet-A      3.1013 eV  399.78 nm  f=0.0032  <S**2>=0.000
     241 -> 247        0.27060
     242 -> 247        0.13744
     243 -> 247        0.53959
     243 -> 249        0.14029
     244 -> 247       -0.24329

 Excited State   4:      Singlet-A      3.1617 eV  392.14 nm  f=0.0003  <S**2>=0.000
     243 -> 247        0.28580
     244 -> 247        0.61515
     246 -> 248        0.12147

 Excited State   5:      Singlet-A      3.2168 eV  385.43 nm  f=0.0013  <S**2>=0.000
     241 -> 247       -0.16259
     242 -> 247        0.64791
     242 -> 249       -0.15266
     242 -> 250        0.11292

 The electronic state is 1-A.
 Alpha  occ. eigenvalues --  -46.92313 -19.25986 -19.24789 -19.20070 -19.19307
 Alpha  occ. eigenvalues --  -19.18890 -19.17585 -14.41763 -14.41061 -14.38978
 Alpha  occ. eigenvalues --  -14.38824 -10.36691 -10.35160 -10.32367 -10.31855
 Alpha  occ. eigenvalues --  -10.30683 -10.29464 -10.28971 -10.28190 -10.27983
 Alpha  occ. eigenvalues --  -10.27480 -10.27446 -10.27425 -10.27152 -10.26540
 Alpha  occ. eigenvalues --  -10.26318 -10.26080 -10.25853 -10.25786 -10.25726
 Alpha  occ. eigenvalues --  -10.25600 -10.25561 -10.25531 -10.25506 -10.24864
 Alpha  occ. eigenvalues --  -10.24861 -10.24596 -10.24428 -10.24271 -10.24201
 Alpha  occ. eigenvalues --  -10.24113 -10.24052 -10.23834 -10.23749 -10.23565
 Alpha  occ. eigenvalues --  -10.23349 -10.23334 -10.23304 -10.23304 -10.23174
 Alpha  occ. eigenvalues --  -10.22938 -10.22920 -10.22850 -10.22772 -10.22581
 Alpha  occ. eigenvalues --  -10.22567 -10.22527 -10.22337 -10.22286 -10.22157
 Alpha  occ. eigenvalues --  -10.22076 -10.22055 -10.22006 -10.21993 -10.21654
 Alpha  occ. eigenvalues --  -10.21477  -3.14354  -1.87218  -1.86724  -1.86570
 Alpha  occ. eigenvalues --   -1.10738  -1.10364  -1.04672  -1.03320  -1.02205
 Alpha  occ. eigenvalues --   -1.01126  -0.99890  -0.98557  -0.98499  -0.95254
 Alpha  occ. eigenvalues --   -0.87584  -0.84687  -0.84147  -0.83663  -0.83117
 Alpha  occ. eigenvalues --   -0.82788  -0.82617  -0.81723  -0.81401  -0.81114
 Alpha  occ. eigenvalues --   -0.80578  -0.79148  -0.78411  -0.78028  -0.77100
 Alpha  occ. eigenvalues --   -0.76440  -0.76126  -0.75522  -0.75014  -0.74499
 Alpha  occ. eigenvalues --   -0.74117  -0.72458  -0.72000  -0.71455  -0.70540
 Alpha  occ. eigenvalues --   -0.70381  -0.70287  -0.69536  -0.68545  -0.68434
 Alpha  occ. eigenvalues --   -0.67699  -0.66611  -0.65876  -0.64838  -0.64621
 Alpha  occ. eigenvalues --   -0.63344  -0.62839  -0.61391  -0.60951  -0.60061
 Alpha  occ. eigenvalues --   -0.59983  -0.59331  -0.59203  -0.58912  -0.58735
 Alpha  occ. eigenvalues --   -0.57398  -0.57187  -0.56598  -0.56216  -0.55014
 Alpha  occ. eigenvalues --   -0.54119  -0.54002  -0.53754  -0.52843  -0.52825
 Alpha  occ. eigenvalues --   -0.52146  -0.50624  -0.50591  -0.50168  -0.49903
 Alpha  occ. eigenvalues --   -0.49651  -0.49423  -0.49165  -0.48838  -0.48297
 Alpha  occ. eigenvalues --   -0.48066  -0.47693  -0.47598  -0.47207  -0.46946
 Alpha  occ. eigenvalues --   -0.46823  -0.46746  -0.46618  -0.46379  -0.46339
 Alpha  occ. eigenvalues --   -0.45880  -0.45808  -0.45564  -0.45377  -0.45032
 Alpha  occ. eigenvalues --   -0.44646  -0.44471  -0.44338  -0.44133  -0.43941
 Alpha  occ. eigenvalues --   -0.43741  -0.43512  -0.43459  -0.43074  -0.42942
 Alpha  occ. eigenvalues --   -0.42928  -0.42756  -0.42566  -0.42309  -0.42213
 Alpha  occ. eigenvalues --   -0.41946  -0.41831  -0.41669  -0.41413  -0.41319
 Alpha  occ. eigenvalues --   -0.40946  -0.40914  -0.40672  -0.40560  -0.40433
 Alpha  occ. eigenvalues --   -0.40377  -0.40331  -0.40278  -0.39668  -0.39537
 Alpha  occ. eigenvalues --   -0.39359  -0.39196  -0.38923  -0.38799  -0.38689
 Alpha  occ. eigenvalues --   -0.38528  -0.38318  -0.37921  -0.37903  -0.37495
 Alpha  occ. eigenvalues --   -0.37343  -0.37287  -0.37212  -0.37041  -0.36746
 Alpha  occ. eigenvalues --   -0.36580  -0.36522  -0.36349  -0.36118  -0.36073
 Alpha  occ. eigenvalues --   -0.35898  -0.35272  -0.35237  -0.34695  -0.34360
 Alpha  occ. eigenvalues --   -0.34207  -0.34139  -0.34078  -0.33772  -0.33540
 Alpha  occ. eigenvalues --   -0.33421  -0.33308  -0.33100  -0.32740  -0.32128
 Alpha  occ. eigenvalues --   -0.32102  -0.31909  -0.31695  -0.31594  -0.30945
 Alpha  occ. eigenvalues --   -0.30613  -0.29980  -0.29325  -0.29125  -0.29037
 Alpha  occ. eigenvalues --   -0.28664  -0.28553  -0.27177  -0.26829  -0.26717
 Alpha  occ. eigenvalues --   -0.25879  -0.25718  -0.25596  -0.24997  -0.20564
 Alpha  occ. eigenvalues --   -0.18329
 Alpha virt. eigenvalues --   -0.10768  -0.04590  -0.03802  -0.01952  -0.00302
 Alpha virt. eigenvalues --    0.00108   0.00442   0.01631   0.02112   0.03246
 Alpha virt. eigenvalues --    0.04218   0.05044   0.05180   0.05584   0.05763

 Mulliken charges:
               1
     1  Mg   0.967670
     2  C    0.002118
     3  C   -0.058512
     4  C   -0.023871
     5  C   -0.048459
     6  N   -0.414801
     7  C    0.063836
     8  C   -0.173775
     9  C   -0.078718
    10  C    0.048848
    11  C    0.028929
    12  C    0.005796
    13  C    0.017901
    14  C    0.202153
    15  O   -0.274245
    16  O   -0.372238
    17  N   -0.452837
    18  C    0.124120
    19  C   -0.159524
    20  C   -0.109464
    21  C    0.164000
    22  C    0.037112
    23  C    0.088178
    24  O   -0.231709
    25  C   -0.025549
    26  N   -0.308399
    27  C   -0.010368
    28  C   -0.104284
    29  C   -0.107035
    30  C    0.075825
    31  C    0.024003
    32  C   -0.013557
    33  C   -0.078697
    34  N   -0.461080
    35  C    0.095900
    36  C   -0.199332
    37  C    0.008069
    38  C    0.128830
    39  C    0.040970
    40  C    0.103596
    41  O   -0.231764
    42  C   -0.110680
    43  C    0.291892
    44  O   -0.291194
    45  O   -0.339974
    46  C    0.132016
    47  C    0.240974
    48  C   -0.125538
    49  C   -0.205649
    50  C    0.013377
    51  C    0.007418
    52  C   -0.037300
    53  C   -0.003276
    54  C   -0.184899
    55  C   -0.030665
    56  C   -0.020341
    57  C   -0.075012
    58  C    0.014130
    59  C   -0.190249
    60  C   -0.037355
    61  C   -0.020794
    62  C   -0.022776
    63  C   -0.047759
    64  C   -0.247174
    65  C    0.005903
    66  C    0.021593
    67  H   -0.007157
    68  H    0.020001
    69  H   -0.000649
    70  H    0.102235
    71  H    0.045435
    72  H    0.065566
    73  H    0.052176
    74  H    0.052746
    75  H    0.029111
    76  H    0.042710
    77  H    0.053210
    78  H    0.065772
    79  H    0.066560
    80  H    0.051819
    81  H    0.034542
    82  H    0.068088
    83  H    0.054204
    84  H    0.048512
    85  H    0.051041
    86  H    0.041063
    87  H    0.043896
    88  H    0.035736
    89  H    0.030259
    90  H    0.044379
    91  H    0.038866
    92  H    0.045301
    93  H    0.043252
    94  H    0.052739
    95  H    0.060851
    96  H    0.044853
    97  H    0.068024
    98  H    0.087957
    99  H    0.059695
   100  H    0.057835
   101  H    0.054199
   102  H    0.063686
   103  H    0.053369
   104  H    0.025513
   105  H    0.053204
   106  H    0.038238
   107  H    0.048074
   108  H    0.014253
   109  H    0.044081
   110  H    0.039904
   111  H    0.031306
   112  H    0.024818
   113  H    0.025177
   114  H    0.039214
   115  H    0.030654
   116  H    0.043843
   117  H    0.037591
   118  H    0.027393
   119  H    0.037984
   120  H    0.036517
   121  H    0.033120
   122  H    0.013112
   123  H    0.022173
   124  H    0.029966
   125  H    0.031506
   126  H    0.032326
   127  H    0.038294
   128  H    0.017244
   129  H    0.022165
   130  H    0.020531
   131  H    0.018596
   132  H    0.031262
   133  H    0.034166
   134  H    0.019645
   135  H    0.035564
   136  H    0.033582
   137  H    0.032741
   138  H    0.030264
   139  H    0.034163
   140  H    0.023636
 Sum of Mulliken charges =  -0.00000

 Dipole moment (field-independent basis, Debye):
    X=             -5.8643    Y=              2.6040    Z=              2.4813  Tot=              6.8795
 Quadrupole moment (field-independent basis, Debye-Ang):
   XX=           -373.1418   YY=           -422.5383   ZZ=           -403.5986
   XY=             22.9895   XZ=             17.5821   YZ=             -6.5451

 Normal termination of Gaussian 16 at Thu May  5 02:28:51 2022.
