 Gaussian 16, Revision A.03,
 Gaussian 16:  ES64L-G16RevA.03 25-Dec-2016

 --------------------------------
 #p wB97XD/Def2SVP td=(nstates=5)
 --------------------------------

 ---------------------------------------------------
 step_51_chromophore_24 TDDFT with wB97XD functional
 ---------------------------------------------------
 Symbolic Z-matrix:
 Charge =  0 Multiplicity = 1

                         Standard orientation:
 ---------------------------------------------------------------------
 Center     Atomic      Atomic             Coordinates (Angstroms)
 Number     Number       Type             X           Y           Z
 ---------------------------------------------------------------------
      1         12           0        5.431429    0.887304    0.130458
      2          6           0        4.306240   -2.436666    0.326791
      3          6           0        2.215723    1.916622   -0.699318
      4          6           0        6.633603    3.900359   -0.352108
      5          6           0        8.760954   -0.284033    0.521087
      6          7           0        3.445689   -0.098599    0.063910
      7          6           0        3.241222   -1.472259    0.188466
      8          6           0        1.713705   -1.820411    0.070081
      9          6           0        1.045962   -0.468724   -0.394579
     10          6           0        2.274525    0.565984   -0.363586
     11          6           0        0.313379   -0.465660   -1.764169
     12          6           0        1.214336   -2.291846    1.489507
     13          6           0       -0.221743   -2.946448    1.484177
     14          6           0       -0.907231   -3.240706    0.126894
     15          8           0       -0.432698   -3.950509   -0.742811
     16          8           0       -2.108615   -2.608801   -0.003806
     17          7           0        4.508679    2.725874   -0.325129
     18          6           0        3.187242    2.921707   -0.620819
     19          6           0        2.997528    4.387693   -0.820232
     20          6           0        4.295222    4.935261   -0.768056
     21          6           0        5.200638    3.833803   -0.461467
     22          6           0        1.605650    4.936713   -1.197677
     23          6           0        4.817703    6.371717   -1.081607
     24          8           0        5.973118    6.744429   -0.923333
     25          6           0        3.758079    7.347393   -1.432642
     26          7           0        7.439283    1.669555    0.004156
     27          6           0        7.632722    2.940572   -0.152003
     28          6           0        9.105320    3.356030   -0.001620
     29          6           0        9.804177    2.052096    0.504472
     30          6           0        8.561949    1.085096    0.335729
     31          6           0        9.766052    3.887347   -1.212199
     32          6           0       10.232159    2.225410    1.958263
     33          6           0        9.099071    2.455555    2.986889
     34          7           0        6.389227   -0.946574    0.234921
     35          6           0        7.684855   -1.229103    0.399842
     36          6           0        7.800494   -2.691422    0.481558
     37          6           0        6.492282   -3.259850    0.450365
     38          6           0        5.691031   -2.117554    0.304449
     39          6           0        9.004642   -3.452466    0.778600
     40          6           0        5.739560   -4.446909    0.484252
     41          8           0        6.130325   -5.612926    0.648572
     42          6           0        4.272525   -3.936096    0.466991
     43          6           0        3.514768   -4.712437   -0.492922
     44          8           0        3.481892   -4.470492   -1.712450
     45          8           0        2.927712   -5.792433    0.015482
     46          6           0        2.162264   -6.769080   -0.766436
     47          6           0       -2.873507   -2.857671   -1.311824
     48          6           0       -4.369718   -2.574299   -0.966223
     49          6           0       -5.439028   -3.339460   -0.866512
     50          6           0       -5.444352   -4.894269   -0.948095
     51          6           0       -6.759913   -2.642202   -0.477187
     52          6           0       -6.891304   -1.996915    0.899511
     53          6           0       -7.319421   -0.496024    0.805036
     54          6           0       -8.905809   -0.337813    0.882788
     55          6           0       -9.331024    0.218637    2.256472
     56          6           0       -9.480637    0.568733   -0.259355
     57          6           0      -10.701122   -0.176469   -0.898950
     58          6           0      -11.381538    0.880664   -1.830740
     59          6           0      -12.908878    0.720312   -1.963693
     60          6           0      -13.429185    0.813625   -3.469299
     61          6           0      -13.621607    1.748962   -1.088698
     62          6           0      -13.549630    1.388580    0.462756
     63          6           0      -12.516939    2.244836    1.271517
     64          6           0      -13.077115    3.194005    2.320486
     65          6           0      -11.979452    4.117135    2.765007
     66          6           0      -13.876468    2.545486    3.395969
     67          1           0        1.223958    2.318758   -0.917966
     68          1           0        7.172226    4.849416   -0.375477
     69          1           0        9.670119   -0.846707    0.741477
     70          1           0        1.606823   -2.661735   -0.613954
     71          1           0        0.536552   -0.076275    0.486103
     72          1           0        0.431952   -1.509063   -2.056080
     73          1           0        0.899916    0.165708   -2.431977
     74          1           0       -0.711326   -0.109277   -1.659684
     75          1           0        1.064630   -1.439879    2.152692
     76          1           0        2.005569   -2.795481    2.046284
     77          1           0       -0.952919   -2.427837    2.105378
     78          1           0       -0.086231   -3.904037    1.985409
     79          1           0        1.582524    5.161216   -2.263710
     80          1           0        1.315976    5.782787   -0.574284
     81          1           0        0.765054    4.257440   -1.059555
     82          1           0        3.105051    7.487756   -0.570921
     83          1           0        3.170400    7.032872   -2.296184
     84          1           0        4.162604    8.319665   -1.714035
     85          1           0        9.161971    4.130186    0.762797
     86          1           0       10.657052    1.752476   -0.105531
     87          1           0        9.115714    3.915339   -2.086809
     88          1           0       10.727010    3.479234   -1.523926
     89          1           0       10.026907    4.940782   -1.115465
     90          1           0       10.874013    3.105675    1.995167
     91          1           0       10.816484    1.319654    2.114843
     92          1           0        9.243871    3.395343    3.519451
     93          1           0        9.016546    1.655971    3.722357
     94          1           0        8.095892    2.467251    2.560282
     95          1           0        9.026882   -3.382983    1.866277
     96          1           0        9.878777   -2.932581    0.385883
     97          1           0        9.050985   -4.523467    0.578749
     98          1           0        4.023276   -4.152629    1.505799
     99          1           0        1.100935   -6.748940   -0.516549
    100          1           0        2.525468   -7.796460   -0.772683
    101          1           0        2.165679   -6.573831   -1.838861
    102          1           0       -2.763317   -3.847784   -1.752124
    103          1           0       -2.456478   -2.114654   -1.992439
    104          1           0       -4.543006   -1.508499   -0.815487
    105          1           0       -5.543657   -5.345626    0.037982
    106          1           0       -4.485643   -5.239367   -1.337134
    107          1           0       -6.287313   -5.310624   -1.500140
    108          1           0       -7.526603   -3.395819   -0.653351
    109          1           0       -6.966245   -1.931826   -1.277838
    110          1           0       -6.018215   -2.148953    1.534832
    111          1           0       -7.672140   -2.564155    1.407151
    112          1           0       -6.881459   -0.108625   -0.114392
    113          1           0       -6.788582    0.067955    1.572492
    114          1           0       -9.451091   -1.281057    0.881623
    115          1           0       -8.733215   -0.192702    3.070560
    116          1           0      -10.368900    0.013364    2.518970
    117          1           0       -9.247784    1.304636    2.265815
    118          1           0       -8.734143    0.650978   -1.049183
    119          1           0       -9.795345    1.562625    0.057267
    120          1           0      -11.320063   -0.677692   -0.154983
    121          1           0      -10.301024   -0.990393   -1.503853
    122          1           0      -10.913337    0.704661   -2.799275
    123          1           0      -11.125333    1.926428   -1.662658
    124          1           0      -13.168703   -0.298069   -1.674294
    125          1           0      -12.869467    0.072934   -4.040254
    126          1           0      -13.243819    1.747886   -3.999078
    127          1           0      -14.498883    0.607089   -3.490561
    128          1           0      -14.655295    1.826810   -1.427515
    129          1           0      -13.211661    2.746838   -1.245412
    130          1           0      -13.494391    0.317671    0.662260
    131          1           0      -14.595456    1.580743    0.700937
    132          1           0      -12.067070    2.821408    0.463958
    133          1           0      -11.828077    1.597083    1.813287
    134          1           0      -13.770622    3.814550    1.751437
    135          1           0      -12.309017    4.670271    3.644653
    136          1           0      -11.799812    4.784369    1.921761
    137          1           0      -11.112874    3.479037    2.932533
    138          1           0      -13.741026    1.464570    3.439999
    139          1           0      -14.941762    2.715340    3.236722
    140          1           0      -13.630449    3.027412    4.341047
 ---------------------------------------------------------------------

 SCF Done:  E(RwB97XD) =  -3007.87698715     A.U. after   19 cycles

 Excitation energies and oscillator strengths:

 Excited State   1:      Singlet-A      1.6373 eV  757.23 nm  f=0.3858  <S**2>=0.000
     245 -> 248        0.18609
     246 -> 247        0.68384
     245 <- 248        0.11892
 This state for optimization and/or second-order correction.
 Total Energy, E(TD-HF/TD-DFT) =  -3007.81681595
 Copying the excited state density for this state as the 1-particle RhoCI density.

 Excited State   2:      Singlet-A      2.1842 eV  567.65 nm  f=0.1157  <S**2>=0.000
     245 -> 247        0.64115
     246 -> 248       -0.28847

 Excited State   3:      Singlet-A      3.5088 eV  353.36 nm  f=0.0811  <S**2>=0.000
     243 -> 247       -0.20069
     244 -> 247        0.56808
     246 -> 248        0.30257

 Excited State   4:      Singlet-A      3.5676 eV  347.53 nm  f=0.2340  <S**2>=0.000
     241 -> 247       -0.23066
     241 -> 249       -0.12724
     242 -> 247        0.32974
     242 -> 249        0.20672
     242 -> 250        0.11858
     244 -> 247       -0.27024
     245 -> 247        0.15918
     246 -> 248        0.32351

 Excited State   5:      Singlet-A      3.6051 eV  343.92 nm  f=0.3661  <S**2>=0.000
     240 -> 247        0.10946
     241 -> 247        0.10534
     241 -> 249        0.11873
     242 -> 247       -0.18856
     242 -> 249       -0.17049
     243 -> 247        0.36377
     245 -> 247        0.19771
     246 -> 248        0.43270

 The electronic state is 1-A.
 Alpha  occ. eigenvalues --  -46.95256 -19.30521 -19.29410 -19.24716 -19.24121
 Alpha  occ. eigenvalues --  -19.23726 -19.22326 -14.46836 -14.46147 -14.43921
 Alpha  occ. eigenvalues --  -14.43775 -10.43460 -10.42056 -10.39205 -10.38773
 Alpha  occ. eigenvalues --  -10.37218 -10.35761 -10.35207 -10.34501 -10.34459
 Alpha  occ. eigenvalues --  -10.33754 -10.33745 -10.33719 -10.33477 -10.32976
 Alpha  occ. eigenvalues --  -10.32680 -10.32301 -10.32187 -10.32120 -10.32047
 Alpha  occ. eigenvalues --  -10.32024 -10.31981 -10.31957 -10.31843 -10.31358
 Alpha  occ. eigenvalues --  -10.31067 -10.30966 -10.30829 -10.30677 -10.30564
 Alpha  occ. eigenvalues --  -10.30412 -10.30324 -10.30128 -10.30127 -10.29933
 Alpha  occ. eigenvalues --  -10.29747 -10.29676 -10.29658 -10.29584 -10.29533
 Alpha  occ. eigenvalues --  -10.29529 -10.29317 -10.29296 -10.29176 -10.28947
 Alpha  occ. eigenvalues --  -10.28942 -10.28880 -10.28746 -10.28651 -10.28525
 Alpha  occ. eigenvalues --  -10.28467 -10.28420 -10.28420 -10.28339 -10.28092
 Alpha  occ. eigenvalues --  -10.27924  -3.21157  -1.94770  -1.94274  -1.94123
 Alpha  occ. eigenvalues --   -1.18103  -1.17798  -1.12160  -1.10847  -1.09532
 Alpha  occ. eigenvalues --   -1.08453  -1.07309  -1.05884  -1.05842  -1.02682
 Alpha  occ. eigenvalues --   -0.95226  -0.92358  -0.91823  -0.91218  -0.90782
 Alpha  occ. eigenvalues --   -0.90422  -0.90210  -0.89392  -0.89007  -0.88763
 Alpha  occ. eigenvalues --   -0.88248  -0.86796  -0.86064  -0.85659  -0.84734
 Alpha  occ. eigenvalues --   -0.84096  -0.83840  -0.83196  -0.82656  -0.82137
 Alpha  occ. eigenvalues --   -0.81794  -0.80118  -0.79652  -0.79068  -0.78164
 Alpha  occ. eigenvalues --   -0.78081  -0.77945  -0.77074  -0.76225  -0.76110
 Alpha  occ. eigenvalues --   -0.75323  -0.74159  -0.73401  -0.72435  -0.72168
 Alpha  occ. eigenvalues --   -0.70861  -0.70493  -0.69032  -0.68512  -0.67642
 Alpha  occ. eigenvalues --   -0.67478  -0.66830  -0.66672  -0.66403  -0.66371
 Alpha  occ. eigenvalues --   -0.64872  -0.64820  -0.63980  -0.63869  -0.62449
 Alpha  occ. eigenvalues --   -0.61581  -0.61497  -0.61147  -0.60376  -0.60260
 Alpha  occ. eigenvalues --   -0.59505  -0.58057  -0.58006  -0.57646  -0.57334
 Alpha  occ. eigenvalues --   -0.57154  -0.56874  -0.56557  -0.56216  -0.55782
 Alpha  occ. eigenvalues --   -0.55430  -0.55077  -0.54984  -0.54542  -0.54402
 Alpha  occ. eigenvalues --   -0.54256  -0.54140  -0.53968  -0.53764  -0.53690
 Alpha  occ. eigenvalues --   -0.53221  -0.53176  -0.52905  -0.52726  -0.52468
 Alpha  occ. eigenvalues --   -0.52044  -0.51832  -0.51688  -0.51466  -0.51266
 Alpha  occ. eigenvalues --   -0.51015  -0.50857  -0.50701  -0.50395  -0.50260
 Alpha  occ. eigenvalues --   -0.50203  -0.50045  -0.49878  -0.49580  -0.49482
 Alpha  occ. eigenvalues --   -0.49226  -0.49105  -0.48932  -0.48692  -0.48591
 Alpha  occ. eigenvalues --   -0.48183  -0.48125  -0.47876  -0.47782  -0.47657
 Alpha  occ. eigenvalues --   -0.47518  -0.47487  -0.47460  -0.46901  -0.46647
 Alpha  occ. eigenvalues --   -0.46496  -0.46323  -0.46198  -0.45933  -0.45862
 Alpha  occ. eigenvalues --   -0.45612  -0.45433  -0.45057  -0.45015  -0.44633
 Alpha  occ. eigenvalues --   -0.44538  -0.44441  -0.44305  -0.44190  -0.43923
 Alpha  occ. eigenvalues --   -0.43708  -0.43575  -0.43388  -0.43231  -0.43125
 Alpha  occ. eigenvalues --   -0.42996  -0.42356  -0.42266  -0.41761  -0.41455
 Alpha  occ. eigenvalues --   -0.41409  -0.41131  -0.41096  -0.40758  -0.40586
 Alpha  occ. eigenvalues --   -0.40410  -0.40347  -0.40135  -0.39692  -0.39120
 Alpha  occ. eigenvalues --   -0.39057  -0.38898  -0.38723  -0.38552  -0.37964
 Alpha  occ. eigenvalues --   -0.37452  -0.37094  -0.36249  -0.36124  -0.35831
 Alpha  occ. eigenvalues --   -0.35486  -0.35235  -0.34366  -0.33552  -0.33419
 Alpha  occ. eigenvalues --   -0.32894  -0.32785  -0.32322  -0.31532  -0.25525
 Alpha  occ. eigenvalues --   -0.22492
 Alpha virt. eigenvalues --   -0.06657   0.00833   0.02471   0.04551   0.06019
 Alpha virt. eigenvalues --    0.06407   0.07280   0.08348   0.08820   0.09453
 Alpha virt. eigenvalues --    0.10840   0.11777   0.11951   0.12355   0.12478

 Mulliken charges:
               1
     1  Mg   0.958305
     2  C   -0.006277
     3  C   -0.070647
     4  C   -0.040690
     5  C   -0.069708
     6  N   -0.385330
     7  C    0.035555
     8  C   -0.141482
     9  C   -0.056723
    10  C    0.036214
    11  C    0.043501
    12  C    0.014713
    13  C    0.031138
    14  C    0.187969
    15  O   -0.270231
    16  O   -0.370589
    17  N   -0.416709
    18  C    0.114516
    19  C   -0.151577
    20  C   -0.103172
    21  C    0.151422
    22  C    0.048710
    23  C    0.084961
    24  O   -0.225495
    25  C   -0.015178
    26  N   -0.270410
    27  C   -0.024105
    28  C   -0.078311
    29  C   -0.078063
    30  C    0.060850
    31  C    0.029170
    32  C   -0.001716
    33  C   -0.059070
    34  N   -0.420330
    35  C    0.084067
    36  C   -0.188144
    37  C    0.004074
    38  C    0.118327
    39  C    0.049411
    40  C    0.087386
    41  O   -0.220811
    42  C   -0.072639
    43  C    0.267899
    44  O   -0.284059
    45  O   -0.337430
    46  C    0.147510
    47  C    0.256859
    48  C   -0.133656
    49  C   -0.194516
    50  C    0.028721
    51  C    0.025779
    52  C   -0.020991
    53  C    0.013013
    54  C   -0.154891
    55  C   -0.016875
    56  C    0.000281
    57  C   -0.055890
    58  C    0.025186
    59  C   -0.160769
    60  C   -0.023803
    61  C   -0.001610
    62  C   -0.014723
    63  C   -0.010435
    64  C   -0.215331
    65  C    0.021810
    66  C    0.029753
    67  H   -0.016313
    68  H    0.014033
    69  H   -0.006118
    70  H    0.083884
    71  H    0.033256
    72  H    0.058396
    73  H    0.046003
    74  H    0.048035
    75  H    0.021112
    76  H    0.033134
    77  H    0.049055
    78  H    0.060139
    79  H    0.061460
    80  H    0.046677
    81  H    0.031050
    82  H    0.062527
    83  H    0.048419
    84  H    0.047391
    85  H    0.039642
    86  H    0.033438
    87  H    0.038042
    88  H    0.030370
    89  H    0.024973
    90  H    0.035820
    91  H    0.031223
    92  H    0.040893
    93  H    0.038139
    94  H    0.039347
    95  H    0.054815
    96  H    0.039199
    97  H    0.066576
    98  H    0.080410
    99  H    0.057272
   100  H    0.053888
   101  H    0.050463
   102  H    0.058498
   103  H    0.048400
   104  H    0.020970
   105  H    0.047276
   106  H    0.031390
   107  H    0.042971
   108  H    0.006698
   109  H    0.033468
   110  H    0.033248
   111  H    0.022025
   112  H    0.013626
   113  H    0.018866
   114  H    0.024965
   115  H    0.025020
   116  H    0.038581
   117  H    0.028418
   118  H    0.017426
   119  H    0.023202
   120  H    0.023711
   121  H    0.024579
   122  H    0.004807
   123  H    0.011848
   124  H    0.017936
   125  H    0.024908
   126  H    0.026232
   127  H    0.032406
   128  H    0.009605
   129  H    0.011465
   130  H    0.013121
   131  H    0.010427
   132  H    0.014961
   133  H    0.006830
   134  H    0.006958
   135  H    0.029989
   136  H    0.027687
   137  H    0.024480
   138  H    0.024728
   139  H    0.029008
   140  H    0.017900
 Sum of Mulliken charges =  -0.00000

 Dipole moment (field-independent basis, Debye):
    X=             -5.9244    Y=              2.6112    Z=              2.4777  Tot=              6.9322
 Quadrupole moment (field-independent basis, Debye-Ang):
   XX=           -374.1797   YY=           -420.7829   ZZ=           -403.0581
   XY=             22.4625   XZ=             17.4829   YZ=             -6.7708

 Normal termination of Gaussian 16 at Thu May  5 03:04:56 2022.
