 Gaussian 16, Revision A.03,
 Gaussian 16:  ES64L-G16RevA.03 25-Dec-2016

 --------------------
 #p ZINDO=(nstates=5)
 --------------------

 ----------------------------
 step_51_chromophore_24 ZINDO
 ----------------------------
 Symbolic Z-matrix:
 Charge =  0 Multiplicity = 1

                         Standard orientation:
 ---------------------------------------------------------------------
 Center     Atomic      Atomic             Coordinates (Angstroms)
 Number     Number       Type             X           Y           Z
 ---------------------------------------------------------------------
      1         12           0        5.431429    0.887304    0.130458
      2          6           0        4.306240   -2.436666    0.326791
      3          6           0        2.215723    1.916622   -0.699318
      4          6           0        6.633603    3.900359   -0.352108
      5          6           0        8.760954   -0.284033    0.521087
      6          7           0        3.445689   -0.098599    0.063910
      7          6           0        3.241222   -1.472259    0.188466
      8          6           0        1.713705   -1.820411    0.070081
      9          6           0        1.045962   -0.468724   -0.394579
     10          6           0        2.274525    0.565984   -0.363586
     11          6           0        0.313379   -0.465660   -1.764169
     12          6           0        1.214336   -2.291846    1.489507
     13          6           0       -0.221743   -2.946448    1.484177
     14          6           0       -0.907231   -3.240706    0.126894
     15          8           0       -0.432698   -3.950509   -0.742811
     16          8           0       -2.108615   -2.608801   -0.003806
     17          7           0        4.508679    2.725874   -0.325129
     18          6           0        3.187242    2.921707   -0.620819
     19          6           0        2.997528    4.387693   -0.820232
     20          6           0        4.295222    4.935261   -0.768056
     21          6           0        5.200638    3.833803   -0.461467
     22          6           0        1.605650    4.936713   -1.197677
     23          6           0        4.817703    6.371717   -1.081607
     24          8           0        5.973118    6.744429   -0.923333
     25          6           0        3.758079    7.347393   -1.432642
     26          7           0        7.439283    1.669555    0.004156
     27          6           0        7.632722    2.940572   -0.152003
     28          6           0        9.105320    3.356030   -0.001620
     29          6           0        9.804177    2.052096    0.504472
     30          6           0        8.561949    1.085096    0.335729
     31          6           0        9.766052    3.887347   -1.212199
     32          6           0       10.232159    2.225410    1.958263
     33          6           0        9.099071    2.455555    2.986889
     34          7           0        6.389227   -0.946574    0.234921
     35          6           0        7.684855   -1.229103    0.399842
     36          6           0        7.800494   -2.691422    0.481558
     37          6           0        6.492282   -3.259850    0.450365
     38          6           0        5.691031   -2.117554    0.304449
     39          6           0        9.004642   -3.452466    0.778600
     40          6           0        5.739560   -4.446909    0.484252
     41          8           0        6.130325   -5.612926    0.648572
     42          6           0        4.272525   -3.936096    0.466991
     43          6           0        3.514768   -4.712437   -0.492922
     44          8           0        3.481892   -4.470492   -1.712450
     45          8           0        2.927712   -5.792433    0.015482
     46          6           0        2.162264   -6.769080   -0.766436
     47          6           0       -2.873507   -2.857671   -1.311824
     48          6           0       -4.369718   -2.574299   -0.966223
     49          6           0       -5.439028   -3.339460   -0.866512
     50          6           0       -5.444352   -4.894269   -0.948095
     51          6           0       -6.759913   -2.642202   -0.477187
     52          6           0       -6.891304   -1.996915    0.899511
     53          6           0       -7.319421   -0.496024    0.805036
     54          6           0       -8.905809   -0.337813    0.882788
     55          6           0       -9.331024    0.218637    2.256472
     56          6           0       -9.480637    0.568733   -0.259355
     57          6           0      -10.701122   -0.176469   -0.898950
     58          6           0      -11.381538    0.880664   -1.830740
     59          6           0      -12.908878    0.720312   -1.963693
     60          6           0      -13.429185    0.813625   -3.469299
     61          6           0      -13.621607    1.748962   -1.088698
     62          6           0      -13.549630    1.388580    0.462756
     63          6           0      -12.516939    2.244836    1.271517
     64          6           0      -13.077115    3.194005    2.320486
     65          6           0      -11.979452    4.117135    2.765007
     66          6           0      -13.876468    2.545486    3.395969
     67          1           0        1.223958    2.318758   -0.917966
     68          1           0        7.172226    4.849416   -0.375477
     69          1           0        9.670119   -0.846707    0.741477
     70          1           0        1.606823   -2.661735   -0.613954
     71          1           0        0.536552   -0.076275    0.486103
     72          1           0        0.431952   -1.509063   -2.056080
     73          1           0        0.899916    0.165708   -2.431977
     74          1           0       -0.711326   -0.109277   -1.659684
     75          1           0        1.064630   -1.439879    2.152692
     76          1           0        2.005569   -2.795481    2.046284
     77          1           0       -0.952919   -2.427837    2.105378
     78          1           0       -0.086231   -3.904037    1.985409
     79          1           0        1.582524    5.161216   -2.263710
     80          1           0        1.315976    5.782787   -0.574284
     81          1           0        0.765054    4.257440   -1.059555
     82          1           0        3.105051    7.487756   -0.570921
     83          1           0        3.170400    7.032872   -2.296184
     84          1           0        4.162604    8.319665   -1.714035
     85          1           0        9.161971    4.130186    0.762797
     86          1           0       10.657052    1.752476   -0.105531
     87          1           0        9.115714    3.915339   -2.086809
     88          1           0       10.727010    3.479234   -1.523926
     89          1           0       10.026907    4.940782   -1.115465
     90          1           0       10.874013    3.105675    1.995167
     91          1           0       10.816484    1.319654    2.114843
     92          1           0        9.243871    3.395343    3.519451
     93          1           0        9.016546    1.655971    3.722357
     94          1           0        8.095892    2.467251    2.560282
     95          1           0        9.026882   -3.382983    1.866277
     96          1           0        9.878777   -2.932581    0.385883
     97          1           0        9.050985   -4.523467    0.578749
     98          1           0        4.023276   -4.152629    1.505799
     99          1           0        1.100935   -6.748940   -0.516549
    100          1           0        2.525468   -7.796460   -0.772683
    101          1           0        2.165679   -6.573831   -1.838861
    102          1           0       -2.763317   -3.847784   -1.752124
    103          1           0       -2.456478   -2.114654   -1.992439
    104          1           0       -4.543006   -1.508499   -0.815487
    105          1           0       -5.543657   -5.345626    0.037982
    106          1           0       -4.485643   -5.239367   -1.337134
    107          1           0       -6.287313   -5.310624   -1.500140
    108          1           0       -7.526603   -3.395819   -0.653351
    109          1           0       -6.966245   -1.931826   -1.277838
    110          1           0       -6.018215   -2.148953    1.534832
    111          1           0       -7.672140   -2.564155    1.407151
    112          1           0       -6.881459   -0.108625   -0.114392
    113          1           0       -6.788582    0.067955    1.572492
    114          1           0       -9.451091   -1.281057    0.881623
    115          1           0       -8.733215   -0.192702    3.070560
    116          1           0      -10.368900    0.013364    2.518970
    117          1           0       -9.247784    1.304636    2.265815
    118          1           0       -8.734143    0.650978   -1.049183
    119          1           0       -9.795345    1.562625    0.057267
    120          1           0      -11.320063   -0.677692   -0.154983
    121          1           0      -10.301024   -0.990393   -1.503853
    122          1           0      -10.913337    0.704661   -2.799275
    123          1           0      -11.125333    1.926428   -1.662658
    124          1           0      -13.168703   -0.298069   -1.674294
    125          1           0      -12.869467    0.072934   -4.040254
    126          1           0      -13.243819    1.747886   -3.999078
    127          1           0      -14.498883    0.607089   -3.490561
    128          1           0      -14.655295    1.826810   -1.427515
    129          1           0      -13.211661    2.746838   -1.245412
    130          1           0      -13.494391    0.317671    0.662260
    131          1           0      -14.595456    1.580743    0.700937
    132          1           0      -12.067070    2.821408    0.463958
    133          1           0      -11.828077    1.597083    1.813287
    134          1           0      -13.770622    3.814550    1.751437
    135          1           0      -12.309017    4.670271    3.644653
    136          1           0      -11.799812    4.784369    1.921761
    137          1           0      -11.112874    3.479037    2.932533
    138          1           0      -13.741026    1.464570    3.439999
    139          1           0      -14.941762    2.715340    3.236722
    140          1           0      -13.630449    3.027412    4.341047
 ---------------------------------------------------------------------

 SCF Done:  E(RZINDO/S) =  -474.281153200     A.U. after   18 cycles

 Excitation energies and oscillator strengths:

 Excited State   1:      Singlet-A      1.2366 eV 1002.61 nm  f=0.6183  <S**2>=0.000
     175 ->178         0.18986
     176 ->177         0.66154
 This state for optimization and/or second-order correction.
 Total Energy, E(CIS/TDA) =  -474.235708507
 Copying the excited state density for this state as the 1-particle RhoCI density.

 Excited State   2:      Singlet-A      1.9185 eV  646.25 nm  f=0.0395  <S**2>=0.000
     175 ->177         0.54516
     176 ->178        -0.41974

 Excited State   3:      Singlet-A      2.9066 eV  426.56 nm  f=0.3750  <S**2>=0.000
     175 ->177         0.24725
     176 ->178         0.42646
     176 ->179         0.44933

 Excited State   4:      Singlet-A      3.0045 eV  412.67 nm  f=0.0042  <S**2>=0.000
     169 ->177         0.33108
     169 ->178        -0.23285
     169 ->179        -0.35240
     169 ->180         0.25446
     169 ->186        -0.19292
     169 ->202         0.10568
     176 ->179        -0.10915

 Excited State   5:      Singlet-A      3.0475 eV  406.84 nm  f=0.0018  <S**2>=0.000
     167 ->180         0.11971
     168 ->177         0.26222
     168 ->179         0.33375
     168 ->180         0.39003
     168 ->184        -0.13036
     168 ->186         0.18128
     168 ->187         0.13961

 The electronic state is 1-A.
 Alpha  occ. eigenvalues --   -1.86035  -1.83074  -1.79144  -1.72227  -1.71858
 Alpha  occ. eigenvalues --   -1.68224  -1.66057  -1.60581  -1.59019  -1.58237
 Alpha  occ. eigenvalues --   -1.56030  -1.50887  -1.48284  -1.47575  -1.46761
 Alpha  occ. eigenvalues --   -1.42283  -1.41178  -1.40220  -1.37776  -1.37437
 Alpha  occ. eigenvalues --   -1.36112  -1.34415  -1.32325  -1.31251  -1.29550
 Alpha  occ. eigenvalues --   -1.28137  -1.24751  -1.22595  -1.20676  -1.18090
 Alpha  occ. eigenvalues --   -1.17799  -1.16656  -1.15028  -1.13475  -1.13134
 Alpha  occ. eigenvalues --   -1.11533  -1.10925  -1.10788  -1.05336  -1.04731
 Alpha  occ. eigenvalues --   -1.03288  -1.00611  -0.99432  -0.98738  -0.97156
 Alpha  occ. eigenvalues --   -0.96491  -0.94422  -0.94157  -0.93609  -0.92968
 Alpha  occ. eigenvalues --   -0.90463  -0.90011  -0.89170  -0.87600  -0.86405
 Alpha  occ. eigenvalues --   -0.85308  -0.84068  -0.82908  -0.81687  -0.80623
 Alpha  occ. eigenvalues --   -0.79837  -0.79076  -0.79019  -0.77105  -0.75705
 Alpha  occ. eigenvalues --   -0.75586  -0.75459  -0.75027  -0.74466  -0.74315
 Alpha  occ. eigenvalues --   -0.73472  -0.72633  -0.71738  -0.71231  -0.71025
 Alpha  occ. eigenvalues --   -0.69993  -0.69414  -0.69036  -0.67978  -0.67540
 Alpha  occ. eigenvalues --   -0.67165  -0.66600  -0.66268  -0.65543  -0.65276
 Alpha  occ. eigenvalues --   -0.65008  -0.64141  -0.63772  -0.63605  -0.63409
 Alpha  occ. eigenvalues --   -0.62985  -0.62349  -0.61935  -0.61726  -0.61646
 Alpha  occ. eigenvalues --   -0.61425  -0.61117  -0.60614  -0.60271  -0.59947
 Alpha  occ. eigenvalues --   -0.59576  -0.58641  -0.58601  -0.58146  -0.57942
 Alpha  occ. eigenvalues --   -0.57804  -0.57537  -0.57036  -0.56814  -0.56720
 Alpha  occ. eigenvalues --   -0.55878  -0.55507  -0.55164  -0.54929  -0.54844
 Alpha  occ. eigenvalues --   -0.54366  -0.54088  -0.53498  -0.53099  -0.52955
 Alpha  occ. eigenvalues --   -0.52749  -0.52559  -0.52109  -0.51572  -0.51422
 Alpha  occ. eigenvalues --   -0.51388  -0.51023  -0.50646  -0.50581  -0.50533
 Alpha  occ. eigenvalues --   -0.49865  -0.49725  -0.49655  -0.49319  -0.48963
 Alpha  occ. eigenvalues --   -0.48647  -0.48259  -0.48185  -0.48070  -0.47542
 Alpha  occ. eigenvalues --   -0.47065  -0.47044  -0.46798  -0.46758  -0.46385
 Alpha  occ. eigenvalues --   -0.46197  -0.45937  -0.45702  -0.45158  -0.45058
 Alpha  occ. eigenvalues --   -0.44853  -0.44644  -0.44396  -0.44223  -0.43845
 Alpha  occ. eigenvalues --   -0.43795  -0.42930  -0.42237  -0.42087  -0.41539
 Alpha  occ. eigenvalues --   -0.41413  -0.41045  -0.39969  -0.38952  -0.38423
 Alpha  occ. eigenvalues --   -0.37198  -0.36618  -0.35202  -0.34762  -0.34608
 Alpha  occ. eigenvalues --   -0.33866  -0.33361  -0.32493  -0.31533  -0.26213
 Alpha  occ. eigenvalues --   -0.21289
 Alpha virt. eigenvalues --   -0.08158  -0.01687  -0.00250   0.01324   0.01884
 Alpha virt. eigenvalues --    0.02728   0.03309   0.03511   0.04563   0.05117
 Alpha virt. eigenvalues --    0.06555   0.06960   0.07377   0.07715   0.08323

 Mulliken charges:
               1
     1  Mg   0.425864
     2  C   -0.057602
     3  C   -0.072595
     4  C   -0.079136
     5  C   -0.085035
     6  N   -0.302009
     7  C    0.124644
     8  C    0.006855
     9  C   -0.000633
    10  C    0.112195
    11  C   -0.050123
    12  C   -0.023067
    13  C    0.002521
    14  C    0.469276
    15  O   -0.519119
    16  O   -0.274474
    17  N   -0.300123
    18  C    0.096117
    19  C   -0.006096
    20  C   -0.048664
    21  C    0.138949
    22  C   -0.042405
    23  C    0.332976
    24  O   -0.514630
    25  C   -0.027879
    26  N   -0.237008
    27  C    0.137282
    28  C    0.011251
    29  C   -0.011059
    30  C    0.130264
    31  C   -0.048448
    32  C   -0.022609
    33  C   -0.054180
    34  N   -0.313370
    35  C    0.092296
    36  C    0.049911
    37  C   -0.068478
    38  C    0.113872
    39  C   -0.038000
    40  C    0.344968
    41  O   -0.538401
    42  C    0.074974
    43  C    0.503030
    44  O   -0.552032
    45  O   -0.258165
    46  C    0.076198
    47  C    0.102005
    48  C   -0.082353
    49  C    0.001106
    50  C   -0.044334
    51  C   -0.020514
    52  C   -0.025640
    53  C   -0.033925
    54  C   -0.015342
    55  C   -0.057915
    56  C   -0.040643
    57  C   -0.039324
    58  C   -0.036359
    59  C   -0.010795
    60  C   -0.065857
    61  C   -0.032331
    62  C   -0.052542
    63  C   -0.034476
    64  C   -0.004407
    65  C   -0.055071
    66  C   -0.049693
    67  H    0.020208
    68  H    0.041421
    69  H    0.041782
    70  H    0.060198
    71  H    0.033309
    72  H    0.039464
    73  H    0.029201
    74  H    0.028571
    75  H    0.014115
    76  H    0.033123
    77  H    0.032325
    78  H    0.038602
    79  H    0.031628
    80  H    0.025934
    81  H    0.022330
    82  H    0.041026
    83  H    0.031854
    84  H    0.029998
    85  H    0.031233
    86  H    0.034698
    87  H    0.020438
    88  H    0.019604
    89  H    0.010910
    90  H    0.018663
    91  H    0.018079
    92  H    0.020289
    93  H    0.016995
    94  H    0.025552
    95  H    0.032078
    96  H    0.021044
    97  H    0.042986
    98  H    0.052538
    99  H    0.038997
   100  H    0.043104
   101  H    0.043461
   102  H    0.060126
   103  H    0.044323
   104  H    0.019922
   105  H    0.027345
   106  H    0.025020
   107  H    0.028689
   108  H    0.010499
   109  H    0.022564
   110  H    0.023383
   111  H    0.013656
   112  H    0.020171
   113  H    0.017607
   114  H    0.028688
   115  H    0.013776
   116  H    0.014627
   117  H    0.015118
   118  H    0.018363
   119  H    0.029807
   120  H    0.028674
   121  H    0.016168
   122  H    0.007390
   123  H    0.025917
   124  H    0.020828
   125  H    0.012062
   126  H    0.020548
   127  H    0.019039
   128  H    0.011829
   129  H    0.020933
   130  H    0.022522
   131  H    0.010660
   132  H    0.021701
   133  H    0.024190
   134  H    0.006825
   135  H    0.020931
   136  H    0.016958
   137  H    0.022027
   138  H    0.020515
   139  H    0.014750
   140  H    0.016398
 Sum of Mulliken charges =  -0.00000

 Dipole moment (field-independent basis, Debye):
    X=             -6.6187    Y=              4.0668    Z=              4.2486  Tot=              8.8542
 N-N= 4.316134114152D+03 E-N= 0.000000000000D+00  KE=-9.306964097118D+03
 Leave Link  601 at Thu May  5 03:18:58 2022, MaxMem=  6710886400 cpu:               1.0 elap:               0.1
 (Enter /sw/apps/gaussian-16.0/g16/l9999.exe)
 1\1\GINC-BP1-COMPUTE132\SP\RZINDO CIS\STO-3G\C55H74Mg1N4O6\OF15641\05-
 May-2022\0\\#p ZINDO=(nstates=5)\\step_51_chromophore_24 ZINDO\\0,1\Mg
 ,0,-0.178,43.604,24.882\C,0,1.745,43.253,27.803\C,0,-3.017,42.65,26.64
 8\C,0,-1.825,43.637,22.046\C,0,2.819,44.115,23.047\N,0,-0.635,43.236,2
 7.021\C,0,0.323,43.156,28.031\C,0,-0.354,42.862,29.418\C,0,-1.852,42.5
 29,29.052\C,0,-1.903,42.804,27.47\C,0,-2.381,41.115,29.417\C,0,-0.216,
 44.157,30.307\C,0,-0.59,43.941,31.825\C,0,-0.856,42.503,32.335\O,0,-0.

 Normal termination of Gaussian 16 at Thu May  5 03:18:58 2022.
