 Gaussian 16, Revision A.03,
 Gaussian 16:  ES64L-G16RevA.03 25-Dec-2016

 ------------------------------
 #p blyp/Def2SVP td=(nstates=5)
 ------------------------------

 ---------------------------------------------------
 step_1551_chromophore_10 TDDFT with blyp functional
 ---------------------------------------------------
 Symbolic Z-matrix:
 Charge =  0 Multiplicity = 1

                         Standard orientation:
 ---------------------------------------------------------------------
 Center     Atomic      Atomic             Coordinates (Angstroms)
 Number     Number       Type             X           Y           Z
 ---------------------------------------------------------------------
      1         12           0        5.982404    0.704171    0.260174
      2          6           0        3.827008   -2.124682    0.365097
      3          6           0        3.649982    2.317028   -1.678958
      4          6           0        8.191733    2.964018   -0.238892
      5          6           0        8.409505   -1.356373    1.781177
      6          7           0        3.856353    0.191911   -0.357696
      7          6           0        3.268643   -1.054096   -0.311822
      8          6           0        1.843839   -0.892495   -0.863895
      9          6           0        1.803430    0.505698   -1.541372
     10          6           0        3.254486    1.023871   -1.221950
     11          6           0        1.420987    0.536079   -3.010912
     12          6           0        0.827475   -1.032718    0.264530
     13          6           0       -0.560441   -0.413553    0.052215
     14          6           0       -1.786634   -1.234257    0.456757
     15          8           0       -2.682294   -0.818268    1.201148
     16          8           0       -1.725690   -2.516525   -0.111359
     17          7           0        5.881976    2.420560   -0.734029
     18          6           0        4.890298    2.966424   -1.492898
     19          6           0        5.245386    4.355756   -1.869509
     20          6           0        6.524222    4.574853   -1.330879
     21          6           0        6.981699    3.301718   -0.831849
     22          6           0        4.311031    5.299005   -2.697697
     23          6           0        7.418757    5.887751   -1.369501
     24          8           0        8.600641    5.941668   -0.985499
     25          6           0        6.645501    7.175291   -1.706690
     26          7           0        8.099761    0.644254    0.385282
     27          6           0        8.707747    1.824399    0.333233
     28          6           0       10.123860    1.784435    0.923945
     29          6           0       10.098593    0.515929    1.778252
     30          6           0        8.787386   -0.142010    1.314831
     31          6           0       11.194203    1.764575   -0.137474
     32          6           0       10.104983    0.720686    3.285120
     33          6           0        9.115705    1.718668    3.887128
     34          7           0        6.129771   -1.312649    1.030183
     35          6           0        7.237066   -2.009155    1.485380
     36          6           0        6.795877   -3.454525    1.699872
     37          6           0        5.458547   -3.457627    1.371154
     38          6           0        5.143335   -2.182030    0.883688
     39          6           0        7.615423   -4.590483    2.110934
     40          6           0        4.404514   -4.417157    1.235785
     41          8           0        4.328609   -5.639907    1.445515
     42          6           0        3.269366   -3.573011    0.507795
     43          6           0        2.759413   -4.206847   -0.775685
     44          8           0        3.321670   -4.317012   -1.862451
     45          8           0        1.596228   -4.797586   -0.481308
     46          6           0        0.984137   -5.560275   -1.595488
     47          6           0       -2.936287   -3.306551   -0.030739
     48          6           0       -4.101806   -2.657981   -0.817499
     49          6           0       -5.357441   -3.173598   -1.061933
     50          6           0       -5.934196   -4.500404   -0.521703
     51          6           0       -6.300293   -2.370988   -1.908524
     52          6           0       -7.252214   -1.548617   -0.978828
     53          6           0       -7.783882   -0.289401   -1.655445
     54          6           0       -9.257869   -0.547672   -2.147259
     55          6           0       -9.442628   -0.481073   -3.713160
     56          6           0      -10.171298    0.323199   -1.294297
     57          6           0      -11.633802   -0.219665   -1.170801
     58          6           0      -12.749089    0.828290   -1.379525
     59          6           0      -14.011535    0.619826   -0.396550
     60          6           0      -15.085864   -0.123927   -1.172535
     61          6           0      -14.518798    1.946829    0.277152
     62          6           0      -13.651379    2.347689    1.462059
     63          6           0      -14.492924    3.291712    2.345735
     64          6           0      -13.969832    3.132035    3.868627
     65          6           0      -15.086868    2.398253    4.701747
     66          6           0      -13.528046    4.455477    4.589257
     67          1           0        2.851897    2.810308   -2.237231
     68          1           0        8.803812    3.864206   -0.142213
     69          1           0        9.186468   -1.928301    2.294705
     70          1           0        1.595474   -1.636027   -1.621105
     71          1           0        1.233237    1.208170   -0.933330
     72          1           0        2.333006    0.607069   -3.604114
     73          1           0        0.727912    1.353646   -3.211272
     74          1           0        0.969300   -0.422414   -3.265775
     75          1           0        1.270566   -0.538924    1.129345
     76          1           0        0.711183   -2.099829    0.458308
     77          1           0       -0.683385   -0.271934   -1.021949
     78          1           0       -0.569277    0.590383    0.477168
     79          1           0        4.902431    5.647975   -3.545181
     80          1           0        4.050311    6.207879   -2.156852
     81          1           0        3.413549    4.811066   -3.078625
     82          1           0        7.318139    7.970655   -1.384621
     83          1           0        5.734618    7.147853   -1.108197
     84          1           0        6.431107    7.243421   -2.772466
     85          1           0       10.204413    2.603993    1.638917
     86          1           0       10.956520   -0.135588    1.609114
     87          1           0       10.917134    2.372267   -0.999396
     88          1           0       11.512925    0.759957   -0.414850
     89          1           0       12.068136    2.214750    0.333127
     90          1           0       11.089690    1.144467    3.482918
     91          1           0        9.870471   -0.229868    3.761845
     92          1           0        8.633340    2.322323    3.118190
     93          1           0        9.633874    2.390367    4.571572
     94          1           0        8.220632    1.246926    4.293406
     95          1           0        7.266029   -5.098882    3.008981
     96          1           0        8.636377   -4.215946    2.187479
     97          1           0        7.590405   -5.205205    1.211875
     98          1           0        2.497477   -3.596761    1.276877
     99          1           0        1.307231   -5.191833   -2.568916
    100          1           0       -0.105054   -5.525951   -1.555404
    101          1           0        1.261521   -6.614122   -1.550422
    102          1           0       -3.289213   -3.576442    0.964771
    103          1           0       -2.796252   -4.218671   -0.610822
    104          1           0       -4.137080   -1.590513   -1.034223
    105          1           0       -6.260525   -5.204989   -1.286029
    106          1           0       -6.688689   -4.232114    0.217988
    107          1           0       -5.166630   -4.897063    0.142736
    108          1           0       -6.998001   -2.958477   -2.504800
    109          1           0       -5.936843   -1.742475   -2.721529
    110          1           0       -6.713630   -1.185846   -0.102909
    111          1           0       -8.081282   -2.176267   -0.652111
    112          1           0       -7.120654   -0.103266   -2.499694
    113          1           0       -7.634930    0.546696   -0.972598
    114          1           0       -9.591943   -1.559924   -1.920759
    115          1           0       -9.655597   -1.421575   -4.221232
    116          1           0       -8.505582   -0.175925   -4.178842
    117          1           0      -10.189182    0.239493   -4.049186
    118          1           0      -10.302656    1.345178   -1.647255
    119          1           0       -9.822110    0.333930   -0.261515
    120          1           0      -11.742991   -0.666874   -0.183294
    121          1           0      -11.774390   -0.995433   -1.923566
    122          1           0      -13.058363    0.700531   -2.417332
    123          1           0      -12.492510    1.881909   -1.272712
    124          1           0      -13.690573   -0.047317    0.404579
    125          1           0      -15.069587   -0.007564   -2.256382
    126          1           0      -16.077132    0.154884   -0.814522
    127          1           0      -14.976372   -1.205675   -1.090650
    128          1           0      -15.605731    2.027176    0.282857
    129          1           0      -14.188346    2.722030   -0.412801
    130          1           0      -12.870032    2.911491    0.952924
    131          1           0      -13.177488    1.457104    1.873731
    132          1           0      -15.558949    3.074270    2.280623
    133          1           0      -14.357594    4.350660    2.124536
    134          1           0      -13.101409    2.473901    3.891009
    135          1           0      -14.710710    1.911901    5.601659
    136          1           0      -15.643385    1.722271    4.052857
    137          1           0      -15.792727    3.131552    5.091959
    138          1           0      -14.297842    5.221838    4.504991
    139          1           0      -12.763477    4.913202    3.961771
    140          1           0      -13.284315    4.212790    5.624018
 ---------------------------------------------------------------------

 SCF Done:  E(RB-LYP) =  -3007.36886159     A.U. after   21 cycles

 Excitation energies and oscillator strengths:

 Excited State   1:      Singlet-A      1.7611 eV  704.02 nm  f=0.3139  <S**2>=0.000
     245 -> 248        0.13611
     245 -> 249       -0.11110
     246 -> 247        0.69661
     246 <- 247       -0.16093
 This state for optimization and/or second-order correction.
 Total Energy, E(TD-HF/TD-DFT) =  -3007.30414235
 Copying the excited state density for this state as the 1-particle RhoCI density.

 Excited State   2:      Singlet-A      1.9587 eV  632.99 nm  f=0.0269  <S**2>=0.000
     244 -> 247        0.48684
     245 -> 247        0.48280
     246 -> 248       -0.12307

 Excited State   3:      Singlet-A      2.0679 eV  599.57 nm  f=0.0332  <S**2>=0.000
     244 -> 247        0.50292
     245 -> 247       -0.42202
     246 -> 248        0.17977
     246 -> 249       -0.11374

 Excited State   4:      Singlet-A      2.0734 eV  597.97 nm  f=0.0006  <S**2>=0.000
     243 -> 247        0.70034

 Excited State   5:      Singlet-A      2.3095 eV  536.84 nm  f=0.0027  <S**2>=0.000
     242 -> 247        0.69990

 The electronic state is 1-A.
 Alpha  occ. eigenvalues --  -46.27518 -18.82838 -18.82330 -18.77498 -18.77300
 Alpha  occ. eigenvalues --  -18.76010 -18.75986 -14.03128 -14.03017 -14.01147
 Alpha  occ. eigenvalues --  -14.00940 -10.04925 -10.03601 -10.01534  -9.99649
 Alpha  occ. eigenvalues --   -9.98774  -9.97345  -9.96624  -9.96389  -9.96170
 Alpha  occ. eigenvalues --   -9.96005  -9.95922  -9.95840  -9.95463  -9.94928
 Alpha  occ. eigenvalues --   -9.94284  -9.94093  -9.93890  -9.93655  -9.93633
 Alpha  occ. eigenvalues --   -9.93599  -9.93557  -9.93483  -9.93418  -9.93116
 Alpha  occ. eigenvalues --   -9.93108  -9.93092  -9.93027  -9.92898  -9.92869
 Alpha  occ. eigenvalues --   -9.92589  -9.92550  -9.92465  -9.92182  -9.92152
 Alpha  occ. eigenvalues --   -9.92063  -9.92053  -9.91952  -9.91833  -9.91781
 Alpha  occ. eigenvalues --   -9.91609  -9.91605  -9.91520  -9.91349  -9.91178
 Alpha  occ. eigenvalues --   -9.91157  -9.91006  -9.90974  -9.90918  -9.90865
 Alpha  occ. eigenvalues --   -9.90856  -9.90845  -9.90505  -9.90430  -9.90353
 Alpha  occ. eigenvalues --   -9.90200  -2.92162  -1.72575  -1.72052  -1.71877
 Alpha  occ. eigenvalues --   -0.98196  -0.97327  -0.91632  -0.90262  -0.90004
 Alpha  occ. eigenvalues --   -0.88917  -0.86856  -0.86106  -0.85705  -0.84879
 Alpha  occ. eigenvalues --   -0.75112  -0.73509  -0.73351  -0.73229  -0.72473
 Alpha  occ. eigenvalues --   -0.71887  -0.71498  -0.71185  -0.70419  -0.70354
 Alpha  occ. eigenvalues --   -0.69905  -0.69249  -0.67958  -0.67896  -0.67312
 Alpha  occ. eigenvalues --   -0.66260  -0.65919  -0.65623  -0.65065  -0.64715
 Alpha  occ. eigenvalues --   -0.63786  -0.63012  -0.62640  -0.62135  -0.60729
 Alpha  occ. eigenvalues --   -0.60615  -0.59837  -0.59629  -0.59371  -0.58795
 Alpha  occ. eigenvalues --   -0.57965  -0.57501  -0.56855  -0.55858  -0.55497
 Alpha  occ. eigenvalues --   -0.54094  -0.53370  -0.52468  -0.51916  -0.51438
 Alpha  occ. eigenvalues --   -0.51014  -0.50639  -0.50490  -0.50100  -0.49813
 Alpha  occ. eigenvalues --   -0.49680  -0.49584  -0.48428  -0.48335  -0.46922
 Alpha  occ. eigenvalues --   -0.46438  -0.46108  -0.45460  -0.45210  -0.44688
 Alpha  occ. eigenvalues --   -0.44001  -0.43690  -0.43045  -0.42565  -0.42273
 Alpha  occ. eigenvalues --   -0.42011  -0.41765  -0.41506  -0.41334  -0.41154
 Alpha  occ. eigenvalues --   -0.41021  -0.40648  -0.40485  -0.40206  -0.39984
 Alpha  occ. eigenvalues --   -0.39828  -0.39602  -0.39522  -0.39221  -0.39037
 Alpha  occ. eigenvalues --   -0.38659  -0.38472  -0.38401  -0.38333  -0.38140
 Alpha  occ. eigenvalues --   -0.38079  -0.37885  -0.37543  -0.37369  -0.37254
 Alpha  occ. eigenvalues --   -0.37098  -0.37039  -0.36850  -0.36597  -0.36450
 Alpha  occ. eigenvalues --   -0.36381  -0.36254  -0.36183  -0.35845  -0.35705
 Alpha  occ. eigenvalues --   -0.35673  -0.35495  -0.35197  -0.35017  -0.34910
 Alpha  occ. eigenvalues --   -0.34821  -0.34450  -0.34164  -0.33892  -0.33858
 Alpha  occ. eigenvalues --   -0.33714  -0.33541  -0.33175  -0.33024  -0.32854
 Alpha  occ. eigenvalues --   -0.32747  -0.32681  -0.32479  -0.32447  -0.32383
 Alpha  occ. eigenvalues --   -0.32294  -0.32195  -0.31892  -0.31713  -0.31557
 Alpha  occ. eigenvalues --   -0.31473  -0.31429  -0.31174  -0.30922  -0.30887
 Alpha  occ. eigenvalues --   -0.30694  -0.30624  -0.30221  -0.29917  -0.29860
 Alpha  occ. eigenvalues --   -0.29652  -0.29445  -0.29224  -0.29058  -0.28768
 Alpha  occ. eigenvalues --   -0.28611  -0.28203  -0.28110  -0.27861  -0.27562
 Alpha  occ. eigenvalues --   -0.27538  -0.26928  -0.26923  -0.26863  -0.26659
 Alpha  occ. eigenvalues --   -0.26511  -0.26321  -0.25731  -0.25304  -0.25160
 Alpha  occ. eigenvalues --   -0.25086  -0.24903  -0.24332  -0.23997  -0.23235
 Alpha  occ. eigenvalues --   -0.23138  -0.22456  -0.21997  -0.21482  -0.21152
 Alpha  occ. eigenvalues --   -0.20707  -0.19880  -0.19129  -0.18794  -0.17436
 Alpha  occ. eigenvalues --   -0.15553
 Alpha virt. eigenvalues --   -0.11510  -0.07084  -0.06393  -0.05283  -0.03644
 Alpha virt. eigenvalues --   -0.02913  -0.02187  -0.02117  -0.01850   0.00073
 Alpha virt. eigenvalues --    0.01464   0.02127   0.02290   0.02578   0.02870

 Mulliken charges:
               1
     1  Mg   0.684200
     2  C    0.006828
     3  C   -0.078472
     4  C   -0.053957
     5  C   -0.120023
     6  N   -0.206388
     7  C   -0.074089
     8  C    0.003611
     9  C   -0.032884
    10  C   -0.002053
    11  C    0.162560
    12  C    0.096838
    13  C    0.151839
    14  C    0.094096
    15  O   -0.186066
    16  O   -0.280954
    17  N   -0.357158
    18  C    0.175293
    19  C   -0.134449
    20  C   -0.000596
    21  C    0.115682
    22  C    0.169088
    23  C   -0.030923
    24  O   -0.165824
    25  C    0.110381
    26  N   -0.225429
    27  C    0.007103
    28  C    0.065926
    29  C    0.013430
    30  C    0.049163
    31  C    0.163203
    32  C    0.084682
    33  C    0.046881
    34  N   -0.215912
    35  C    0.130776
    36  C   -0.189689
    37  C    0.061236
    38  C    0.102148
    39  C    0.197660
    40  C   -0.032863
    41  O   -0.144800
    42  C    0.030833
    43  C    0.126935
    44  O   -0.192062
    45  O   -0.247888
    46  C    0.202230
    47  C    0.337805
    48  C   -0.118012
    49  C   -0.171666
    50  C    0.155255
    51  C    0.130367
    52  C    0.024764
    53  C    0.127929
    54  C   -0.065820
    55  C    0.097394
    56  C    0.112245
    57  C    0.055536
    58  C    0.079575
    59  C   -0.084658
    60  C    0.112959
    61  C    0.079768
    62  C    0.074940
    63  C    0.115918
    64  C   -0.093968
    65  C    0.078180
    66  C    0.097002
    67  H   -0.069861
    68  H   -0.045369
    69  H   -0.048161
    70  H   -0.029688
    71  H   -0.015575
    72  H   -0.003046
    73  H   -0.004460
    74  H   -0.009151
    75  H   -0.023390
    76  H    0.002994
    77  H   -0.010299
    78  H   -0.006936
    79  H    0.000076
    80  H   -0.000345
    81  H   -0.002797
    82  H    0.001893
    83  H    0.019341
    84  H    0.015888
    85  H   -0.031717
    86  H   -0.037607
    87  H    0.001720
    88  H   -0.007093
    89  H   -0.016448
    90  H   -0.020271
    91  H   -0.016836
    92  H   -0.011486
    93  H    0.000368
    94  H   -0.010465
    95  H    0.023461
    96  H   -0.031446
    97  H    0.014383
    98  H    0.004087
    99  H    0.022540
   100  H    0.011350
   101  H    0.019364
   102  H    0.018371
   103  H    0.004734
   104  H   -0.019165
   105  H    0.014936
   106  H   -0.000237
   107  H   -0.036307
   108  H   -0.050205
   109  H   -0.032311
   110  H   -0.023724
   111  H   -0.018855
   112  H   -0.047494
   113  H   -0.026214
   114  H   -0.028102
   115  H   -0.016542
   116  H   -0.028376
   117  H   -0.016417
   118  H   -0.031737
   119  H   -0.033464
   120  H   -0.030313
   121  H   -0.031129
   122  H   -0.030389
   123  H   -0.032066
   124  H   -0.032926
   125  H   -0.024493
   126  H   -0.025354
   127  H   -0.027815
   128  H   -0.027797
   129  H   -0.049170
   130  H   -0.029797
   131  H   -0.016421
   132  H   -0.022415
   133  H   -0.039179
   134  H   -0.023987
   135  H   -0.018586
   136  H   -0.011671
   137  H   -0.023990
   138  H   -0.022488
   139  H   -0.019227
   140  H   -0.000355
 Sum of Mulliken charges =  -0.00000

 Dipole moment (field-independent basis, Debye):
    X=             -1.4668    Y=              3.0150    Z=             -0.9442  Tot=              3.4833
 Quadrupole moment (field-independent basis, Debye-Ang):
   XX=           -401.6370   YY=           -415.5350   ZZ=           -403.2231
   XY=             15.1437   XZ=             24.9046   YZ=             -0.6159

 Normal termination of Gaussian 16 at Wed May  4 09:49:01 2022.
