 Gaussian 16, Revision A.03,
 Gaussian 16:  ES64L-G16RevA.03 25-Dec-2016

 -----------------------------------
 #p cam-b3lyp/Def2SVP td=(nstates=5)
 -----------------------------------

 --------------------------------------------------------
 step_1551_chromophore_10 TDDFT with cam-b3lyp functional
 --------------------------------------------------------
 Symbolic Z-matrix:
 Charge =  0 Multiplicity = 1

                         Standard orientation:
 ---------------------------------------------------------------------
 Center     Atomic      Atomic             Coordinates (Angstroms)
 Number     Number       Type             X           Y           Z
 ---------------------------------------------------------------------
      1         12           0        5.982404    0.704171    0.260174
      2          6           0        3.827008   -2.124682    0.365097
      3          6           0        3.649982    2.317028   -1.678958
      4          6           0        8.191733    2.964018   -0.238892
      5          6           0        8.409505   -1.356373    1.781177
      6          7           0        3.856353    0.191911   -0.357696
      7          6           0        3.268643   -1.054096   -0.311822
      8          6           0        1.843839   -0.892495   -0.863895
      9          6           0        1.803430    0.505698   -1.541372
     10          6           0        3.254486    1.023871   -1.221950
     11          6           0        1.420987    0.536079   -3.010912
     12          6           0        0.827475   -1.032718    0.264530
     13          6           0       -0.560441   -0.413553    0.052215
     14          6           0       -1.786634   -1.234257    0.456757
     15          8           0       -2.682294   -0.818268    1.201148
     16          8           0       -1.725690   -2.516525   -0.111359
     17          7           0        5.881976    2.420560   -0.734029
     18          6           0        4.890298    2.966424   -1.492898
     19          6           0        5.245386    4.355756   -1.869509
     20          6           0        6.524222    4.574853   -1.330879
     21          6           0        6.981699    3.301718   -0.831849
     22          6           0        4.311031    5.299005   -2.697697
     23          6           0        7.418757    5.887751   -1.369501
     24          8           0        8.600641    5.941668   -0.985499
     25          6           0        6.645501    7.175291   -1.706690
     26          7           0        8.099761    0.644254    0.385282
     27          6           0        8.707747    1.824399    0.333233
     28          6           0       10.123860    1.784435    0.923945
     29          6           0       10.098593    0.515929    1.778252
     30          6           0        8.787386   -0.142010    1.314831
     31          6           0       11.194203    1.764575   -0.137474
     32          6           0       10.104983    0.720686    3.285120
     33          6           0        9.115705    1.718668    3.887128
     34          7           0        6.129771   -1.312649    1.030183
     35          6           0        7.237066   -2.009155    1.485380
     36          6           0        6.795877   -3.454525    1.699872
     37          6           0        5.458547   -3.457627    1.371154
     38          6           0        5.143335   -2.182030    0.883688
     39          6           0        7.615423   -4.590483    2.110934
     40          6           0        4.404514   -4.417157    1.235785
     41          8           0        4.328609   -5.639907    1.445515
     42          6           0        3.269366   -3.573011    0.507795
     43          6           0        2.759413   -4.206847   -0.775685
     44          8           0        3.321670   -4.317012   -1.862451
     45          8           0        1.596228   -4.797586   -0.481308
     46          6           0        0.984137   -5.560275   -1.595488
     47          6           0       -2.936287   -3.306551   -0.030739
     48          6           0       -4.101806   -2.657981   -0.817499
     49          6           0       -5.357441   -3.173598   -1.061933
     50          6           0       -5.934196   -4.500404   -0.521703
     51          6           0       -6.300293   -2.370988   -1.908524
     52          6           0       -7.252214   -1.548617   -0.978828
     53          6           0       -7.783882   -0.289401   -1.655445
     54          6           0       -9.257869   -0.547672   -2.147259
     55          6           0       -9.442628   -0.481073   -3.713160
     56          6           0      -10.171298    0.323199   -1.294297
     57          6           0      -11.633802   -0.219665   -1.170801
     58          6           0      -12.749089    0.828290   -1.379525
     59          6           0      -14.011535    0.619826   -0.396550
     60          6           0      -15.085864   -0.123927   -1.172535
     61          6           0      -14.518798    1.946829    0.277152
     62          6           0      -13.651379    2.347689    1.462059
     63          6           0      -14.492924    3.291712    2.345735
     64          6           0      -13.969832    3.132035    3.868627
     65          6           0      -15.086868    2.398253    4.701747
     66          6           0      -13.528046    4.455477    4.589257
     67          1           0        2.851897    2.810308   -2.237231
     68          1           0        8.803812    3.864206   -0.142213
     69          1           0        9.186468   -1.928301    2.294705
     70          1           0        1.595474   -1.636027   -1.621105
     71          1           0        1.233237    1.208170   -0.933330
     72          1           0        2.333006    0.607069   -3.604114
     73          1           0        0.727912    1.353646   -3.211272
     74          1           0        0.969300   -0.422414   -3.265775
     75          1           0        1.270566   -0.538924    1.129345
     76          1           0        0.711183   -2.099829    0.458308
     77          1           0       -0.683385   -0.271934   -1.021949
     78          1           0       -0.569277    0.590383    0.477168
     79          1           0        4.902431    5.647975   -3.545181
     80          1           0        4.050311    6.207879   -2.156852
     81          1           0        3.413549    4.811066   -3.078625
     82          1           0        7.318139    7.970655   -1.384621
     83          1           0        5.734618    7.147853   -1.108197
     84          1           0        6.431107    7.243421   -2.772466
     85          1           0       10.204413    2.603993    1.638917
     86          1           0       10.956520   -0.135588    1.609114
     87          1           0       10.917134    2.372267   -0.999396
     88          1           0       11.512925    0.759957   -0.414850
     89          1           0       12.068136    2.214750    0.333127
     90          1           0       11.089690    1.144467    3.482918
     91          1           0        9.870471   -0.229868    3.761845
     92          1           0        8.633340    2.322323    3.118190
     93          1           0        9.633874    2.390367    4.571572
     94          1           0        8.220632    1.246926    4.293406
     95          1           0        7.266029   -5.098882    3.008981
     96          1           0        8.636377   -4.215946    2.187479
     97          1           0        7.590405   -5.205205    1.211875
     98          1           0        2.497477   -3.596761    1.276877
     99          1           0        1.307231   -5.191833   -2.568916
    100          1           0       -0.105054   -5.525951   -1.555404
    101          1           0        1.261521   -6.614122   -1.550422
    102          1           0       -3.289213   -3.576442    0.964771
    103          1           0       -2.796252   -4.218671   -0.610822
    104          1           0       -4.137080   -1.590513   -1.034223
    105          1           0       -6.260525   -5.204989   -1.286029
    106          1           0       -6.688689   -4.232114    0.217988
    107          1           0       -5.166630   -4.897063    0.142736
    108          1           0       -6.998001   -2.958477   -2.504800
    109          1           0       -5.936843   -1.742475   -2.721529
    110          1           0       -6.713630   -1.185846   -0.102909
    111          1           0       -8.081282   -2.176267   -0.652111
    112          1           0       -7.120654   -0.103266   -2.499694
    113          1           0       -7.634930    0.546696   -0.972598
    114          1           0       -9.591943   -1.559924   -1.920759
    115          1           0       -9.655597   -1.421575   -4.221232
    116          1           0       -8.505582   -0.175925   -4.178842
    117          1           0      -10.189182    0.239493   -4.049186
    118          1           0      -10.302656    1.345178   -1.647255
    119          1           0       -9.822110    0.333930   -0.261515
    120          1           0      -11.742991   -0.666874   -0.183294
    121          1           0      -11.774390   -0.995433   -1.923566
    122          1           0      -13.058363    0.700531   -2.417332
    123          1           0      -12.492510    1.881909   -1.272712
    124          1           0      -13.690573   -0.047317    0.404579
    125          1           0      -15.069587   -0.007564   -2.256382
    126          1           0      -16.077132    0.154884   -0.814522
    127          1           0      -14.976372   -1.205675   -1.090650
    128          1           0      -15.605731    2.027176    0.282857
    129          1           0      -14.188346    2.722030   -0.412801
    130          1           0      -12.870032    2.911491    0.952924
    131          1           0      -13.177488    1.457104    1.873731
    132          1           0      -15.558949    3.074270    2.280623
    133          1           0      -14.357594    4.350660    2.124536
    134          1           0      -13.101409    2.473901    3.891009
    135          1           0      -14.710710    1.911901    5.601659
    136          1           0      -15.643385    1.722271    4.052857
    137          1           0      -15.792727    3.131552    5.091959
    138          1           0      -14.297842    5.221838    4.504991
    139          1           0      -12.763477    4.913202    3.961771
    140          1           0      -13.284315    4.212790    5.624018
 ---------------------------------------------------------------------

 SCF Done:  E(RCAM-B3LYP) =  -3007.16014112     A.U. after   19 cycles

 Excitation energies and oscillator strengths:

 Excited State   1:      Singlet-A      1.6667 eV  743.91 nm  f=0.3797  <S**2>=0.000
     245 -> 248        0.16396
     246 -> 247        0.68901
     245 <- 248        0.10283
 This state for optimization and/or second-order correction.
 Total Energy, E(TD-HF/TD-DFT) =  -3007.09889266
 Copying the excited state density for this state as the 1-particle RhoCI density.

 Excited State   2:      Singlet-A      2.2739 eV  545.25 nm  f=0.0762  <S**2>=0.000
     245 -> 247        0.62416
     246 -> 248       -0.31539

 Excited State   3:      Singlet-A      3.4285 eV  361.63 nm  f=0.5062  <S**2>=0.000
     241 -> 247        0.23588
     245 -> 247        0.27247
     246 -> 248        0.58471

 Excited State   4:      Singlet-A      3.5091 eV  353.33 nm  f=0.0033  <S**2>=0.000
     241 -> 247       -0.12122
     241 -> 249        0.10807
     241 -> 250       -0.10050
     242 -> 247        0.27579
     242 -> 249        0.12792
     242 -> 250       -0.13558
     243 -> 247        0.55735
     243 -> 249        0.10648

 Excited State   5:      Singlet-A      3.6546 eV  339.25 nm  f=0.0234  <S**2>=0.000
     241 -> 247        0.39908
     241 -> 249        0.10448
     242 -> 247        0.33783
     242 -> 249        0.20659
     242 -> 250       -0.18943
     243 -> 247       -0.26160
     246 -> 248       -0.11908

 The electronic state is 1-A.
 Alpha  occ. eigenvalues --  -46.89053 -19.25739 -19.25200 -19.20886 -19.20523
 Alpha  occ. eigenvalues --  -19.18977 -19.18899 -14.41915 -14.41895 -14.39745
 Alpha  occ. eigenvalues --  -14.39201 -10.40320 -10.38947 -10.37212 -10.34835
 Alpha  occ. eigenvalues --  -10.32799 -10.31357 -10.31306 -10.30934 -10.30662
 Alpha  occ. eigenvalues --  -10.30652 -10.30587 -10.30013 -10.29872 -10.29255
 Alpha  occ. eigenvalues --  -10.28435 -10.28353 -10.28226 -10.27921 -10.27862
 Alpha  occ. eigenvalues --  -10.27719 -10.27604 -10.27576 -10.27547 -10.27295
 Alpha  occ. eigenvalues --  -10.27272 -10.27168 -10.27013 -10.26857 -10.26701
 Alpha  occ. eigenvalues --  -10.26281 -10.26244 -10.26115 -10.26032 -10.25933
 Alpha  occ. eigenvalues --  -10.25883 -10.25849 -10.25577 -10.25507 -10.25468
 Alpha  occ. eigenvalues --  -10.25385 -10.25307 -10.25302 -10.25243 -10.24823
 Alpha  occ. eigenvalues --  -10.24788 -10.24732 -10.24608 -10.24529 -10.24529
 Alpha  occ. eigenvalues --  -10.24528 -10.24512 -10.24112 -10.24096 -10.24018
 Alpha  occ. eigenvalues --  -10.23793  -3.17600  -1.92489  -1.92056  -1.91911
 Alpha  occ. eigenvalues --   -1.16656  -1.15736  -1.10335  -1.08364  -1.07882
 Alpha  occ. eigenvalues --   -1.06763  -1.04520  -1.03716  -1.03286  -1.02499
 Alpha  occ. eigenvalues --   -0.92040  -0.90361  -0.90061  -0.90007  -0.89259
 Alpha  occ. eigenvalues --   -0.88550  -0.88173  -0.87805  -0.87326  -0.86813
 Alpha  occ. eigenvalues --   -0.86441  -0.85641  -0.84200  -0.83970  -0.83478
 Alpha  occ. eigenvalues --   -0.82300  -0.82169  -0.81668  -0.80937  -0.80545
 Alpha  occ. eigenvalues --   -0.79543  -0.78871  -0.78283  -0.77590  -0.76093
 Alpha  occ. eigenvalues --   -0.75975  -0.75098  -0.74957  -0.74646  -0.74037
 Alpha  occ. eigenvalues --   -0.72948  -0.72407  -0.71777  -0.70699  -0.70114
 Alpha  occ. eigenvalues --   -0.68573  -0.67910  -0.67191  -0.66272  -0.65575
 Alpha  occ. eigenvalues --   -0.65169  -0.64816  -0.64302  -0.63985  -0.63892
 Alpha  occ. eigenvalues --   -0.63656  -0.63347  -0.62232  -0.62120  -0.60744
 Alpha  occ. eigenvalues --   -0.60002  -0.59574  -0.58895  -0.58609  -0.58082
 Alpha  occ. eigenvalues --   -0.57456  -0.57043  -0.56420  -0.55487  -0.55395
 Alpha  occ. eigenvalues --   -0.55160  -0.54898  -0.54502  -0.54233  -0.54151
 Alpha  occ. eigenvalues --   -0.54102  -0.53465  -0.53233  -0.52956  -0.52882
 Alpha  occ. eigenvalues --   -0.52686  -0.52189  -0.52008  -0.51795  -0.51569
 Alpha  occ. eigenvalues --   -0.51167  -0.50906  -0.50843  -0.50738  -0.50500
 Alpha  occ. eigenvalues --   -0.50381  -0.50316  -0.50019  -0.49819  -0.49784
 Alpha  occ. eigenvalues --   -0.49543  -0.49478  -0.49233  -0.48990  -0.48792
 Alpha  occ. eigenvalues --   -0.48746  -0.48443  -0.48280  -0.48202  -0.47834
 Alpha  occ. eigenvalues --   -0.47786  -0.47642  -0.47240  -0.46990  -0.46825
 Alpha  occ. eigenvalues --   -0.46692  -0.46438  -0.45937  -0.45639  -0.45591
 Alpha  occ. eigenvalues --   -0.45462  -0.45441  -0.44957  -0.44857  -0.44655
 Alpha  occ. eigenvalues --   -0.44602  -0.44363  -0.44274  -0.44094  -0.44027
 Alpha  occ. eigenvalues --   -0.43736  -0.43663  -0.43483  -0.43363  -0.43031
 Alpha  occ. eigenvalues --   -0.43011  -0.42906  -0.42831  -0.42476  -0.42347
 Alpha  occ. eigenvalues --   -0.42162  -0.41980  -0.41640  -0.41301  -0.41203
 Alpha  occ. eigenvalues --   -0.41062  -0.40933  -0.40534  -0.40149  -0.39812
 Alpha  occ. eigenvalues --   -0.39663  -0.39349  -0.38983  -0.38790  -0.38453
 Alpha  occ. eigenvalues --   -0.38418  -0.38077  -0.37751  -0.37715  -0.37461
 Alpha  occ. eigenvalues --   -0.37165  -0.37052  -0.36761  -0.36362  -0.36250
 Alpha  occ. eigenvalues --   -0.36112  -0.35724  -0.34686  -0.34452  -0.34055
 Alpha  occ. eigenvalues --   -0.33858  -0.33524  -0.33295  -0.32172  -0.31688
 Alpha  occ. eigenvalues --   -0.30820  -0.30489  -0.29649  -0.28680  -0.24381
 Alpha  occ. eigenvalues --   -0.20711
 Alpha virt. eigenvalues --   -0.08475  -0.01635   0.00001   0.01613   0.02106
 Alpha virt. eigenvalues --    0.04337   0.05230   0.05463   0.05714   0.06671
 Alpha virt. eigenvalues --    0.08127   0.08523   0.08855   0.09026   0.09046

 Mulliken charges:
               1
     1  Mg   0.816221
     2  C   -0.016045
     3  C   -0.096691
     4  C   -0.077155
     5  C   -0.120077
     6  N   -0.275285
     7  C   -0.036569
     8  C   -0.039290
     9  C   -0.095034
    10  C    0.028785
    11  C    0.097329
    12  C    0.049307
    13  C    0.076121
    14  C    0.177469
    15  O   -0.226388
    16  O   -0.345180
    17  N   -0.446019
    18  C    0.187112
    19  C   -0.143836
    20  C   -0.059436
    21  C    0.138354
    22  C    0.116800
    23  C    0.053097
    24  O   -0.204498
    25  C    0.027742
    26  N   -0.289337
    27  C    0.023383
    28  C    0.004924
    29  C   -0.038674
    30  C    0.057420
    31  C    0.103796
    32  C    0.032966
    33  C   -0.014942
    34  N   -0.300375
    35  C    0.122223
    36  C   -0.183417
    37  C   -0.019973
    38  C    0.136484
    39  C    0.143653
    40  C    0.070684
    41  O   -0.185793
    42  C   -0.042889
    43  C    0.208710
    44  O   -0.231595
    45  O   -0.310178
    46  C    0.166736
    47  C    0.308763
    48  C   -0.136331
    49  C   -0.197397
    50  C    0.096673
    51  C    0.067550
    52  C   -0.023269
    53  C    0.068199
    54  C   -0.123205
    55  C    0.040979
    56  C    0.061738
    57  C    0.005698
    58  C    0.027762
    59  C   -0.139243
    60  C    0.057260
    61  C    0.023547
    62  C    0.022629
    63  C    0.059706
    64  C   -0.149842
    65  C    0.020962
    66  C    0.039728
    67  H   -0.035520
    68  H   -0.005109
    69  H   -0.014621
    70  H    0.003825
    71  H    0.019099
    72  H    0.024847
    73  H    0.019787
    74  H    0.016733
    75  H    0.009161
    76  H    0.032516
    77  H    0.020031
    78  H    0.026739
    79  H    0.026210
    80  H    0.026596
    81  H    0.026175
    82  H    0.037476
    83  H    0.045071
    84  H    0.043460
    85  H    0.004861
    86  H   -0.000961
    87  H    0.027102
    88  H    0.018766
    89  H    0.009220
    90  H    0.007207
    91  H    0.012144
    92  H    0.007073
    93  H    0.024755
    94  H    0.014655
    95  H    0.048188
    96  H   -0.007493
    97  H    0.040283
    98  H    0.046772
    99  H    0.048254
   100  H    0.031764
   101  H    0.041652
   102  H    0.045994
   103  H    0.031200
   104  H    0.009960
   105  H    0.039013
   106  H    0.024689
   107  H   -0.011686
   108  H   -0.019011
   109  H   -0.001015
   110  H    0.005638
   111  H    0.005911
   112  H   -0.018855
   113  H    0.004770
   114  H    0.002117
   115  H    0.007506
   116  H   -0.004322
   117  H    0.007095
   118  H   -0.003988
   119  H   -0.003956
   120  H   -0.003042
   121  H   -0.004260
   122  H   -0.002860
   123  H   -0.006073
   124  H   -0.002830
   125  H   -0.000714
   126  H   -0.000866
   127  H   -0.002356
   128  H    0.000419
   129  H   -0.019684
   130  H   -0.002870
   131  H    0.009062
   132  H    0.005435
   133  H   -0.009331
   134  H    0.005848
   135  H    0.005750
   136  H    0.011160
   137  H   -0.000744
   138  H    0.000247
   139  H    0.004705
   140  H    0.022680
 Sum of Mulliken charges =  -0.00000

 Dipole moment (field-independent basis, Debye):
    X=             -1.6782    Y=              4.1683    Z=             -1.4571  Tot=              4.7238
 Quadrupole moment (field-independent basis, Debye-Ang):
   XX=           -400.8624   YY=           -410.4408   ZZ=           -402.4798
   XY=             22.3212   XZ=             24.0053   YZ=             -2.2297

 Normal termination of Gaussian 16 at Wed May  4 08:48:36 2022.
