 Gaussian 16, Revision A.03,
 Gaussian 16:  ES64L-G16RevA.03 25-Dec-2016

 ---------------------------------
 #p PBE1PBE/Def2SVP td=(nstates=5)
 ---------------------------------

 ------------------------------------------------------
 step_1551_chromophore_10 TDDFT with PBE1PBE functional
 ------------------------------------------------------
 Symbolic Z-matrix:
 Charge =  0 Multiplicity = 1

                         Standard orientation:
 ---------------------------------------------------------------------
 Center     Atomic      Atomic             Coordinates (Angstroms)
 Number     Number       Type             X           Y           Z
 ---------------------------------------------------------------------
      1         12           0        5.982404    0.704171    0.260174
      2          6           0        3.827008   -2.124682    0.365097
      3          6           0        3.649982    2.317028   -1.678958
      4          6           0        8.191733    2.964018   -0.238892
      5          6           0        8.409505   -1.356373    1.781177
      6          7           0        3.856353    0.191911   -0.357696
      7          6           0        3.268643   -1.054096   -0.311822
      8          6           0        1.843839   -0.892495   -0.863895
      9          6           0        1.803430    0.505698   -1.541372
     10          6           0        3.254486    1.023871   -1.221950
     11          6           0        1.420987    0.536079   -3.010912
     12          6           0        0.827475   -1.032718    0.264530
     13          6           0       -0.560441   -0.413553    0.052215
     14          6           0       -1.786634   -1.234257    0.456757
     15          8           0       -2.682294   -0.818268    1.201148
     16          8           0       -1.725690   -2.516525   -0.111359
     17          7           0        5.881976    2.420560   -0.734029
     18          6           0        4.890298    2.966424   -1.492898
     19          6           0        5.245386    4.355756   -1.869509
     20          6           0        6.524222    4.574853   -1.330879
     21          6           0        6.981699    3.301718   -0.831849
     22          6           0        4.311031    5.299005   -2.697697
     23          6           0        7.418757    5.887751   -1.369501
     24          8           0        8.600641    5.941668   -0.985499
     25          6           0        6.645501    7.175291   -1.706690
     26          7           0        8.099761    0.644254    0.385282
     27          6           0        8.707747    1.824399    0.333233
     28          6           0       10.123860    1.784435    0.923945
     29          6           0       10.098593    0.515929    1.778252
     30          6           0        8.787386   -0.142010    1.314831
     31          6           0       11.194203    1.764575   -0.137474
     32          6           0       10.104983    0.720686    3.285120
     33          6           0        9.115705    1.718668    3.887128
     34          7           0        6.129771   -1.312649    1.030183
     35          6           0        7.237066   -2.009155    1.485380
     36          6           0        6.795877   -3.454525    1.699872
     37          6           0        5.458547   -3.457627    1.371154
     38          6           0        5.143335   -2.182030    0.883688
     39          6           0        7.615423   -4.590483    2.110934
     40          6           0        4.404514   -4.417157    1.235785
     41          8           0        4.328609   -5.639907    1.445515
     42          6           0        3.269366   -3.573011    0.507795
     43          6           0        2.759413   -4.206847   -0.775685
     44          8           0        3.321670   -4.317012   -1.862451
     45          8           0        1.596228   -4.797586   -0.481308
     46          6           0        0.984137   -5.560275   -1.595488
     47          6           0       -2.936287   -3.306551   -0.030739
     48          6           0       -4.101806   -2.657981   -0.817499
     49          6           0       -5.357441   -3.173598   -1.061933
     50          6           0       -5.934196   -4.500404   -0.521703
     51          6           0       -6.300293   -2.370988   -1.908524
     52          6           0       -7.252214   -1.548617   -0.978828
     53          6           0       -7.783882   -0.289401   -1.655445
     54          6           0       -9.257869   -0.547672   -2.147259
     55          6           0       -9.442628   -0.481073   -3.713160
     56          6           0      -10.171298    0.323199   -1.294297
     57          6           0      -11.633802   -0.219665   -1.170801
     58          6           0      -12.749089    0.828290   -1.379525
     59          6           0      -14.011535    0.619826   -0.396550
     60          6           0      -15.085864   -0.123927   -1.172535
     61          6           0      -14.518798    1.946829    0.277152
     62          6           0      -13.651379    2.347689    1.462059
     63          6           0      -14.492924    3.291712    2.345735
     64          6           0      -13.969832    3.132035    3.868627
     65          6           0      -15.086868    2.398253    4.701747
     66          6           0      -13.528046    4.455477    4.589257
     67          1           0        2.851897    2.810308   -2.237231
     68          1           0        8.803812    3.864206   -0.142213
     69          1           0        9.186468   -1.928301    2.294705
     70          1           0        1.595474   -1.636027   -1.621105
     71          1           0        1.233237    1.208170   -0.933330
     72          1           0        2.333006    0.607069   -3.604114
     73          1           0        0.727912    1.353646   -3.211272
     74          1           0        0.969300   -0.422414   -3.265775
     75          1           0        1.270566   -0.538924    1.129345
     76          1           0        0.711183   -2.099829    0.458308
     77          1           0       -0.683385   -0.271934   -1.021949
     78          1           0       -0.569277    0.590383    0.477168
     79          1           0        4.902431    5.647975   -3.545181
     80          1           0        4.050311    6.207879   -2.156852
     81          1           0        3.413549    4.811066   -3.078625
     82          1           0        7.318139    7.970655   -1.384621
     83          1           0        5.734618    7.147853   -1.108197
     84          1           0        6.431107    7.243421   -2.772466
     85          1           0       10.204413    2.603993    1.638917
     86          1           0       10.956520   -0.135588    1.609114
     87          1           0       10.917134    2.372267   -0.999396
     88          1           0       11.512925    0.759957   -0.414850
     89          1           0       12.068136    2.214750    0.333127
     90          1           0       11.089690    1.144467    3.482918
     91          1           0        9.870471   -0.229868    3.761845
     92          1           0        8.633340    2.322323    3.118190
     93          1           0        9.633874    2.390367    4.571572
     94          1           0        8.220632    1.246926    4.293406
     95          1           0        7.266029   -5.098882    3.008981
     96          1           0        8.636377   -4.215946    2.187479
     97          1           0        7.590405   -5.205205    1.211875
     98          1           0        2.497477   -3.596761    1.276877
     99          1           0        1.307231   -5.191833   -2.568916
    100          1           0       -0.105054   -5.525951   -1.555404
    101          1           0        1.261521   -6.614122   -1.550422
    102          1           0       -3.289213   -3.576442    0.964771
    103          1           0       -2.796252   -4.218671   -0.610822
    104          1           0       -4.137080   -1.590513   -1.034223
    105          1           0       -6.260525   -5.204989   -1.286029
    106          1           0       -6.688689   -4.232114    0.217988
    107          1           0       -5.166630   -4.897063    0.142736
    108          1           0       -6.998001   -2.958477   -2.504800
    109          1           0       -5.936843   -1.742475   -2.721529
    110          1           0       -6.713630   -1.185846   -0.102909
    111          1           0       -8.081282   -2.176267   -0.652111
    112          1           0       -7.120654   -0.103266   -2.499694
    113          1           0       -7.634930    0.546696   -0.972598
    114          1           0       -9.591943   -1.559924   -1.920759
    115          1           0       -9.655597   -1.421575   -4.221232
    116          1           0       -8.505582   -0.175925   -4.178842
    117          1           0      -10.189182    0.239493   -4.049186
    118          1           0      -10.302656    1.345178   -1.647255
    119          1           0       -9.822110    0.333930   -0.261515
    120          1           0      -11.742991   -0.666874   -0.183294
    121          1           0      -11.774390   -0.995433   -1.923566
    122          1           0      -13.058363    0.700531   -2.417332
    123          1           0      -12.492510    1.881909   -1.272712
    124          1           0      -13.690573   -0.047317    0.404579
    125          1           0      -15.069587   -0.007564   -2.256382
    126          1           0      -16.077132    0.154884   -0.814522
    127          1           0      -14.976372   -1.205675   -1.090650
    128          1           0      -15.605731    2.027176    0.282857
    129          1           0      -14.188346    2.722030   -0.412801
    130          1           0      -12.870032    2.911491    0.952924
    131          1           0      -13.177488    1.457104    1.873731
    132          1           0      -15.558949    3.074270    2.280623
    133          1           0      -14.357594    4.350660    2.124536
    134          1           0      -13.101409    2.473901    3.891009
    135          1           0      -14.710710    1.911901    5.601659
    136          1           0      -15.643385    1.722271    4.052857
    137          1           0      -15.792727    3.131552    5.091959
    138          1           0      -14.297842    5.221838    4.504991
    139          1           0      -12.763477    4.913202    3.961771
    140          1           0      -13.284315    4.212790    5.624018
 ---------------------------------------------------------------------

 SCF Done:  E(RPBE1PBE) =  -3005.34925614     A.U. after   15 cycles

 Excitation energies and oscillator strengths:

 Excited State   1:      Singlet-A      1.8098 eV  685.05 nm  f=0.3726  <S**2>=0.000
     245 -> 248        0.15091
     246 -> 247        0.69754
     246 <- 247       -0.11623
 This state for optimization and/or second-order correction.
 Total Energy, E(TD-HF/TD-DFT) =  -3005.28274541
 Copying the excited state density for this state as the 1-particle RhoCI density.

 Excited State   2:      Singlet-A      2.2647 eV  547.47 nm  f=0.0790  <S**2>=0.000
     245 -> 247        0.63971
     246 -> 248       -0.27746

 Excited State   3:      Singlet-A      3.0377 eV  408.15 nm  f=0.0016  <S**2>=0.000
     242 -> 247        0.18957
     243 -> 247        0.63835
     243 -> 249        0.11734
     246 -> 248        0.12102

 Excited State   4:      Singlet-A      3.1821 eV  389.64 nm  f=0.1548  <S**2>=0.000
     241 -> 247        0.25433
     243 -> 247       -0.12159
     245 -> 247        0.17964
     246 -> 248        0.53432
     246 -> 249        0.25728
     246 -> 250       -0.11172

 Excited State   5:      Singlet-A      3.2149 eV  385.65 nm  f=0.0001  <S**2>=0.000
     244 -> 247        0.70687

 The electronic state is 1-A.
 Alpha  occ. eigenvalues --  -46.92447 -19.26442 -19.25910 -19.20915 -19.20824
 Alpha  occ. eigenvalues --  -19.19343 -19.19297 -14.41467 -14.41374 -14.39335
 Alpha  occ. eigenvalues --  -14.38968 -10.37403 -10.36015 -10.34199 -10.32149
 Alpha  occ. eigenvalues --  -10.30219 -10.28931 -10.28587 -10.28558 -10.28350
 Alpha  occ. eigenvalues --  -10.28160 -10.28128 -10.27873 -10.27432 -10.27348
 Alpha  occ. eigenvalues --  -10.26125 -10.25875 -10.25681 -10.25602 -10.25516
 Alpha  occ. eigenvalues --  -10.25489 -10.25476 -10.25391 -10.25386 -10.24970
 Alpha  occ. eigenvalues --  -10.24799 -10.24783 -10.24752 -10.24408 -10.24340
 Alpha  occ. eigenvalues --  -10.23819 -10.23715 -10.23669 -10.23660 -10.23655
 Alpha  occ. eigenvalues --  -10.23553 -10.23474 -10.23125 -10.23061 -10.23044
 Alpha  occ. eigenvalues --  -10.23024 -10.22875 -10.22825 -10.22757 -10.22364
 Alpha  occ. eigenvalues --  -10.22329 -10.22193 -10.22192 -10.22141 -10.22074
 Alpha  occ. eigenvalues --  -10.22065 -10.21978 -10.21911 -10.21688 -10.21494
 Alpha  occ. eigenvalues --  -10.21181  -3.14575  -1.87404  -1.86949  -1.86809
 Alpha  occ. eigenvalues --   -1.11510  -1.10552  -1.04868  -1.03274  -1.02766
 Alpha  occ. eigenvalues --   -1.01648  -0.99180  -0.98374  -0.97972  -0.97108
 Alpha  occ. eigenvalues --   -0.86533  -0.84539  -0.84353  -0.84216  -0.83355
 Alpha  occ. eigenvalues --   -0.82894  -0.82297  -0.82146  -0.81404  -0.81255
 Alpha  occ. eigenvalues --   -0.80536  -0.79883  -0.78419  -0.78287  -0.77741
 Alpha  occ. eigenvalues --   -0.76487  -0.76228  -0.75921  -0.75228  -0.74825
 Alpha  occ. eigenvalues --   -0.73729  -0.73088  -0.72552  -0.71935  -0.70442
 Alpha  occ. eigenvalues --   -0.70169  -0.69459  -0.69035  -0.68810  -0.68201
 Alpha  occ. eigenvalues --   -0.67318  -0.66877  -0.66183  -0.64996  -0.64538
 Alpha  occ. eigenvalues --   -0.63176  -0.62166  -0.61483  -0.60499  -0.60109
 Alpha  occ. eigenvalues --   -0.59584  -0.59039  -0.58917  -0.58495  -0.58001
 Alpha  occ. eigenvalues --   -0.57898  -0.57765  -0.56738  -0.56449  -0.55177
 Alpha  occ. eigenvalues --   -0.54571  -0.54037  -0.53460  -0.53208  -0.52711
 Alpha  occ. eigenvalues --   -0.51951  -0.51506  -0.50921  -0.50048  -0.49941
 Alpha  occ. eigenvalues --   -0.49763  -0.49424  -0.49149  -0.48804  -0.48636
 Alpha  occ. eigenvalues --   -0.48513  -0.47866  -0.47702  -0.47561  -0.47434
 Alpha  occ. eigenvalues --   -0.47008  -0.46692  -0.46667  -0.46320  -0.46071
 Alpha  occ. eigenvalues --   -0.45819  -0.45550  -0.45388  -0.45347  -0.44989
 Alpha  occ. eigenvalues --   -0.44880  -0.44789  -0.44531  -0.44413  -0.44309
 Alpha  occ. eigenvalues --   -0.44120  -0.44029  -0.43792  -0.43538  -0.43449
 Alpha  occ. eigenvalues --   -0.43356  -0.43097  -0.42948  -0.42771  -0.42472
 Alpha  occ. eigenvalues --   -0.42361  -0.42307  -0.41896  -0.41751  -0.41541
 Alpha  occ. eigenvalues --   -0.41339  -0.41123  -0.40583  -0.40403  -0.40226
 Alpha  occ. eigenvalues --   -0.40190  -0.40175  -0.39738  -0.39605  -0.39407
 Alpha  occ. eigenvalues --   -0.39382  -0.39074  -0.38946  -0.38896  -0.38656
 Alpha  occ. eigenvalues --   -0.38538  -0.38334  -0.38262  -0.38174  -0.37925
 Alpha  occ. eigenvalues --   -0.37745  -0.37645  -0.37596  -0.37339  -0.37123
 Alpha  occ. eigenvalues --   -0.37070  -0.36684  -0.36514  -0.36209  -0.36083
 Alpha  occ. eigenvalues --   -0.35883  -0.35735  -0.35485  -0.34927  -0.34686
 Alpha  occ. eigenvalues --   -0.34455  -0.34271  -0.33959  -0.33573  -0.33369
 Alpha  occ. eigenvalues --   -0.33319  -0.33135  -0.32493  -0.32484  -0.32261
 Alpha  occ. eigenvalues --   -0.32232  -0.31877  -0.31745  -0.31366  -0.31202
 Alpha  occ. eigenvalues --   -0.31084  -0.30564  -0.29921  -0.29434  -0.29053
 Alpha  occ. eigenvalues --   -0.28823  -0.28595  -0.28539  -0.27207  -0.26917
 Alpha  occ. eigenvalues --   -0.26235  -0.25847  -0.25273  -0.23986  -0.21228
 Alpha  occ. eigenvalues --   -0.18404
 Alpha virt. eigenvalues --   -0.11028  -0.05219  -0.04211  -0.02775  -0.00724
 Alpha virt. eigenvalues --   -0.00375   0.00779   0.00945   0.00998   0.03025
 Alpha virt. eigenvalues --    0.04416   0.04879   0.05198   0.05590   0.05801

 Mulliken charges:
               1
     1  Mg   0.963765
     2  C   -0.021446
     3  C   -0.085706
     4  C   -0.073304
     5  C   -0.113993
     6  N   -0.373598
     7  C    0.030261
     8  C   -0.109038
     9  C   -0.174911
    10  C    0.068315
    11  C    0.036704
    12  C   -0.000896
    13  C   -0.006885
    14  C    0.244354
    15  O   -0.259042
    16  O   -0.375289
    17  N   -0.554587
    18  C    0.204200
    19  C   -0.174991
    20  C   -0.095995
    21  C    0.164302
    22  C    0.056755
    23  C    0.105772
    24  O   -0.242873
    25  C   -0.049545
    26  N   -0.387979
    27  C    0.040669
    28  C   -0.070556
    29  C   -0.113595
    30  C    0.091147
    31  C    0.048088
    32  C   -0.031109
    33  C   -0.085786
    34  N   -0.425547
    35  C    0.146791
    36  C   -0.201173
    37  C   -0.062048
    38  C    0.184503
    39  C    0.086333
    40  C    0.165003
    41  O   -0.231744
    42  C   -0.137882
    43  C    0.293398
    44  O   -0.267777
    45  O   -0.342344
    46  C    0.111190
    47  C    0.266548
    48  C   -0.143553
    49  C   -0.245617
    50  C    0.032638
    51  C    0.005976
    52  C   -0.083513
    53  C    0.011441
    54  C   -0.210215
    55  C   -0.015439
    56  C    0.008596
    57  C   -0.054870
    58  C   -0.024988
    59  C   -0.224503
    60  C    0.001759
    61  C   -0.034567
    62  C   -0.040467
    63  C    0.005219
    64  C   -0.236720
    65  C   -0.041227
    66  C   -0.025107
    67  H   -0.002087
    68  H    0.027519
    69  H    0.015566
    70  H    0.042418
    71  H    0.057946
    72  H    0.053162
    73  H    0.046351
    74  H    0.043563
    75  H    0.043398
    76  H    0.068857
    77  H    0.056693
    78  H    0.058486
    79  H    0.054059
    80  H    0.052742
    81  H    0.051973
    82  H    0.064207
    83  H    0.071646
    84  H    0.069573
    85  H    0.041567
    86  H    0.036196
    87  H    0.055734
    88  H    0.045194
    89  H    0.037959
    90  H    0.041516
    91  H    0.045842
    92  H    0.038537
    93  H    0.052689
    94  H    0.042726
    95  H    0.075198
    96  H    0.022854
    97  H    0.069795
    98  H    0.084035
    99  H    0.069166
   100  H    0.054468
   101  H    0.063849
   102  H    0.071923
   103  H    0.058967
   104  H    0.039430
   105  H    0.064913
   106  H    0.052882
   107  H    0.017507
   108  H    0.015567
   109  H    0.029020
   110  H    0.039093
   111  H    0.037967
   112  H    0.013827
   113  H    0.036206
   114  H    0.039875
   115  H    0.034101
   116  H    0.022842
   117  H    0.034230
   118  H    0.029011
   119  H    0.029834
   120  H    0.028958
   121  H    0.028586
   122  H    0.029863
   123  H    0.024367
   124  H    0.034866
   125  H    0.026120
   126  H    0.026460
   127  H    0.025774
   128  H    0.029862
   129  H    0.016676
   130  H    0.030894
   131  H    0.038724
   132  H    0.036229
   133  H    0.023542
   134  H    0.043470
   135  H    0.033567
   136  H    0.039254
   137  H    0.027376
   138  H    0.028190
   139  H    0.033496
   140  H    0.049832
 Sum of Mulliken charges =  -0.00000

 Dipole moment (field-independent basis, Debye):
    X=             -1.6290    Y=              3.6854    Z=             -1.1935  Tot=              4.2024
 Quadrupole moment (field-independent basis, Debye-Ang):
   XX=           -394.8360   YY=           -408.3342   ZZ=           -399.8021
   XY=             18.9608   XZ=             26.8263   YZ=             -2.0249

 Normal termination of Gaussian 16 at Wed May  4 09:08:45 2022.
