 Gaussian 16, Revision A.03,
 Gaussian 16:  ES64L-G16RevA.03 25-Dec-2016

 --------------------------------
 #p wB97XD/Def2SVP td=(nstates=5)
 --------------------------------

 -----------------------------------------------------
 step_1551_chromophore_10 TDDFT with wB97XD functional
 -----------------------------------------------------
 Symbolic Z-matrix:
 Charge =  0 Multiplicity = 1

                         Standard orientation:
 ---------------------------------------------------------------------
 Center     Atomic      Atomic             Coordinates (Angstroms)
 Number     Number       Type             X           Y           Z
 ---------------------------------------------------------------------
      1         12           0        5.982404    0.704171    0.260174
      2          6           0        3.827008   -2.124682    0.365097
      3          6           0        3.649982    2.317028   -1.678958
      4          6           0        8.191733    2.964018   -0.238892
      5          6           0        8.409505   -1.356373    1.781177
      6          7           0        3.856353    0.191911   -0.357696
      7          6           0        3.268643   -1.054096   -0.311822
      8          6           0        1.843839   -0.892495   -0.863895
      9          6           0        1.803430    0.505698   -1.541372
     10          6           0        3.254486    1.023871   -1.221950
     11          6           0        1.420987    0.536079   -3.010912
     12          6           0        0.827475   -1.032718    0.264530
     13          6           0       -0.560441   -0.413553    0.052215
     14          6           0       -1.786634   -1.234257    0.456757
     15          8           0       -2.682294   -0.818268    1.201148
     16          8           0       -1.725690   -2.516525   -0.111359
     17          7           0        5.881976    2.420560   -0.734029
     18          6           0        4.890298    2.966424   -1.492898
     19          6           0        5.245386    4.355756   -1.869509
     20          6           0        6.524222    4.574853   -1.330879
     21          6           0        6.981699    3.301718   -0.831849
     22          6           0        4.311031    5.299005   -2.697697
     23          6           0        7.418757    5.887751   -1.369501
     24          8           0        8.600641    5.941668   -0.985499
     25          6           0        6.645501    7.175291   -1.706690
     26          7           0        8.099761    0.644254    0.385282
     27          6           0        8.707747    1.824399    0.333233
     28          6           0       10.123860    1.784435    0.923945
     29          6           0       10.098593    0.515929    1.778252
     30          6           0        8.787386   -0.142010    1.314831
     31          6           0       11.194203    1.764575   -0.137474
     32          6           0       10.104983    0.720686    3.285120
     33          6           0        9.115705    1.718668    3.887128
     34          7           0        6.129771   -1.312649    1.030183
     35          6           0        7.237066   -2.009155    1.485380
     36          6           0        6.795877   -3.454525    1.699872
     37          6           0        5.458547   -3.457627    1.371154
     38          6           0        5.143335   -2.182030    0.883688
     39          6           0        7.615423   -4.590483    2.110934
     40          6           0        4.404514   -4.417157    1.235785
     41          8           0        4.328609   -5.639907    1.445515
     42          6           0        3.269366   -3.573011    0.507795
     43          6           0        2.759413   -4.206847   -0.775685
     44          8           0        3.321670   -4.317012   -1.862451
     45          8           0        1.596228   -4.797586   -0.481308
     46          6           0        0.984137   -5.560275   -1.595488
     47          6           0       -2.936287   -3.306551   -0.030739
     48          6           0       -4.101806   -2.657981   -0.817499
     49          6           0       -5.357441   -3.173598   -1.061933
     50          6           0       -5.934196   -4.500404   -0.521703
     51          6           0       -6.300293   -2.370988   -1.908524
     52          6           0       -7.252214   -1.548617   -0.978828
     53          6           0       -7.783882   -0.289401   -1.655445
     54          6           0       -9.257869   -0.547672   -2.147259
     55          6           0       -9.442628   -0.481073   -3.713160
     56          6           0      -10.171298    0.323199   -1.294297
     57          6           0      -11.633802   -0.219665   -1.170801
     58          6           0      -12.749089    0.828290   -1.379525
     59          6           0      -14.011535    0.619826   -0.396550
     60          6           0      -15.085864   -0.123927   -1.172535
     61          6           0      -14.518798    1.946829    0.277152
     62          6           0      -13.651379    2.347689    1.462059
     63          6           0      -14.492924    3.291712    2.345735
     64          6           0      -13.969832    3.132035    3.868627
     65          6           0      -15.086868    2.398253    4.701747
     66          6           0      -13.528046    4.455477    4.589257
     67          1           0        2.851897    2.810308   -2.237231
     68          1           0        8.803812    3.864206   -0.142213
     69          1           0        9.186468   -1.928301    2.294705
     70          1           0        1.595474   -1.636027   -1.621105
     71          1           0        1.233237    1.208170   -0.933330
     72          1           0        2.333006    0.607069   -3.604114
     73          1           0        0.727912    1.353646   -3.211272
     74          1           0        0.969300   -0.422414   -3.265775
     75          1           0        1.270566   -0.538924    1.129345
     76          1           0        0.711183   -2.099829    0.458308
     77          1           0       -0.683385   -0.271934   -1.021949
     78          1           0       -0.569277    0.590383    0.477168
     79          1           0        4.902431    5.647975   -3.545181
     80          1           0        4.050311    6.207879   -2.156852
     81          1           0        3.413549    4.811066   -3.078625
     82          1           0        7.318139    7.970655   -1.384621
     83          1           0        5.734618    7.147853   -1.108197
     84          1           0        6.431107    7.243421   -2.772466
     85          1           0       10.204413    2.603993    1.638917
     86          1           0       10.956520   -0.135588    1.609114
     87          1           0       10.917134    2.372267   -0.999396
     88          1           0       11.512925    0.759957   -0.414850
     89          1           0       12.068136    2.214750    0.333127
     90          1           0       11.089690    1.144467    3.482918
     91          1           0        9.870471   -0.229868    3.761845
     92          1           0        8.633340    2.322323    3.118190
     93          1           0        9.633874    2.390367    4.571572
     94          1           0        8.220632    1.246926    4.293406
     95          1           0        7.266029   -5.098882    3.008981
     96          1           0        8.636377   -4.215946    2.187479
     97          1           0        7.590405   -5.205205    1.211875
     98          1           0        2.497477   -3.596761    1.276877
     99          1           0        1.307231   -5.191833   -2.568916
    100          1           0       -0.105054   -5.525951   -1.555404
    101          1           0        1.261521   -6.614122   -1.550422
    102          1           0       -3.289213   -3.576442    0.964771
    103          1           0       -2.796252   -4.218671   -0.610822
    104          1           0       -4.137080   -1.590513   -1.034223
    105          1           0       -6.260525   -5.204989   -1.286029
    106          1           0       -6.688689   -4.232114    0.217988
    107          1           0       -5.166630   -4.897063    0.142736
    108          1           0       -6.998001   -2.958477   -2.504800
    109          1           0       -5.936843   -1.742475   -2.721529
    110          1           0       -6.713630   -1.185846   -0.102909
    111          1           0       -8.081282   -2.176267   -0.652111
    112          1           0       -7.120654   -0.103266   -2.499694
    113          1           0       -7.634930    0.546696   -0.972598
    114          1           0       -9.591943   -1.559924   -1.920759
    115          1           0       -9.655597   -1.421575   -4.221232
    116          1           0       -8.505582   -0.175925   -4.178842
    117          1           0      -10.189182    0.239493   -4.049186
    118          1           0      -10.302656    1.345178   -1.647255
    119          1           0       -9.822110    0.333930   -0.261515
    120          1           0      -11.742991   -0.666874   -0.183294
    121          1           0      -11.774390   -0.995433   -1.923566
    122          1           0      -13.058363    0.700531   -2.417332
    123          1           0      -12.492510    1.881909   -1.272712
    124          1           0      -13.690573   -0.047317    0.404579
    125          1           0      -15.069587   -0.007564   -2.256382
    126          1           0      -16.077132    0.154884   -0.814522
    127          1           0      -14.976372   -1.205675   -1.090650
    128          1           0      -15.605731    2.027176    0.282857
    129          1           0      -14.188346    2.722030   -0.412801
    130          1           0      -12.870032    2.911491    0.952924
    131          1           0      -13.177488    1.457104    1.873731
    132          1           0      -15.558949    3.074270    2.280623
    133          1           0      -14.357594    4.350660    2.124536
    134          1           0      -13.101409    2.473901    3.891009
    135          1           0      -14.710710    1.911901    5.601659
    136          1           0      -15.643385    1.722271    4.052857
    137          1           0      -15.792727    3.131552    5.091959
    138          1           0      -14.297842    5.221838    4.504991
    139          1           0      -12.763477    4.913202    3.961771
    140          1           0      -13.284315    4.212790    5.624018
 ---------------------------------------------------------------------

 SCF Done:  E(RwB97XD) =  -3007.85913142     A.U. after   20 cycles

 Excitation energies and oscillator strengths:

 Excited State   1:      Singlet-A      1.6169 eV  766.80 nm  f=0.3784  <S**2>=0.000
     245 -> 248        0.16920
     246 -> 247        0.68657
     245 <- 248        0.11120
 This state for optimization and/or second-order correction.
 Total Energy, E(TD-HF/TD-DFT) =  -3007.79971095
 Copying the excited state density for this state as the 1-particle RhoCI density.

 Excited State   2:      Singlet-A      2.2215 eV  558.11 nm  f=0.0741  <S**2>=0.000
     245 -> 247        0.62252
     246 -> 248       -0.31698

 Excited State   3:      Singlet-A      3.4421 eV  360.20 nm  f=0.5232  <S**2>=0.000
     240 -> 247        0.10009
     241 -> 247        0.27261
     245 -> 247        0.26829
     246 -> 248        0.57433
     245 <- 247       -0.10541

 Excited State   4:      Singlet-A      3.5445 eV  349.79 nm  f=0.0016  <S**2>=0.000
     241 -> 247       -0.21329
     242 -> 247        0.19891
     242 -> 249        0.14201
     242 -> 250        0.15793
     243 -> 247        0.54983
     243 -> 249        0.13660

 Excited State   5:      Singlet-A      3.6926 eV  335.77 nm  f=0.0600  <S**2>=0.000
     241 -> 247        0.35775
     242 -> 247        0.39186
     242 -> 249        0.24273
     242 -> 250        0.22428
     243 -> 247       -0.17206
     243 -> 250        0.11239
     246 -> 248       -0.15133

 The electronic state is 1-A.
 Alpha  occ. eigenvalues --  -46.95393 -19.30996 -19.30405 -19.25974 -19.25487
 Alpha  occ. eigenvalues --  -19.23936 -19.23914 -14.46503 -14.46496 -14.44402
 Alpha  occ. eigenvalues --  -14.43759 -10.44176 -10.42778 -10.41265 -10.38832
 Alpha  occ. eigenvalues --  -10.36690 -10.35423 -10.35046 -10.35036 -10.34764
 Alpha  occ. eigenvalues --  -10.34661 -10.34633 -10.34258 -10.33830 -10.33200
 Alpha  occ. eigenvalues --  -10.32600 -10.32354 -10.32146 -10.31960 -10.31792
 Alpha  occ. eigenvalues --  -10.31769 -10.31704 -10.31611 -10.31594 -10.31313
 Alpha  occ. eigenvalues --  -10.31256 -10.31194 -10.31047 -10.30876 -10.30670
 Alpha  occ. eigenvalues --  -10.30114 -10.30112 -10.30038 -10.30000 -10.29939
 Alpha  occ. eigenvalues --  -10.29850 -10.29813 -10.29587 -10.29436 -10.29384
 Alpha  occ. eigenvalues --  -10.29278 -10.29239 -10.29175 -10.29126 -10.28734
 Alpha  occ. eigenvalues --  -10.28676 -10.28620 -10.28533 -10.28470 -10.28445
 Alpha  occ. eigenvalues --  -10.28436 -10.28342 -10.28025 -10.27992 -10.27921
 Alpha  occ. eigenvalues --  -10.27612  -3.21383  -1.94961  -1.94510  -1.94359
 Alpha  occ. eigenvalues --   -1.18825  -1.17931  -1.12607  -1.10571  -1.10103
 Alpha  occ. eigenvalues --   -1.08937  -1.06512  -1.05710  -1.05328  -1.04552
 Alpha  occ. eigenvalues --   -0.93982  -0.92177  -0.91878  -0.91853  -0.91021
 Alpha  occ. eigenvalues --   -0.90497  -0.89962  -0.89749  -0.89308  -0.88728
 Alpha  occ. eigenvalues --   -0.88210  -0.87533  -0.86060  -0.85836  -0.85374
 Alpha  occ. eigenvalues --   -0.84218  -0.84055  -0.83566  -0.82882  -0.82444
 Alpha  occ. eigenvalues --   -0.81376  -0.80865  -0.80180  -0.79492  -0.77991
 Alpha  occ. eigenvalues --   -0.77837  -0.77048  -0.76739  -0.76479  -0.75867
 Alpha  occ. eigenvalues --   -0.74877  -0.74367  -0.73732  -0.72624  -0.72040
 Alpha  occ. eigenvalues --   -0.70569  -0.69788  -0.69236  -0.68131  -0.67544
 Alpha  occ. eigenvalues --   -0.67141  -0.66679  -0.66283  -0.65935  -0.65690
 Alpha  occ. eigenvalues --   -0.65484  -0.65310  -0.64092  -0.64073  -0.62777
 Alpha  occ. eigenvalues --   -0.61931  -0.61495  -0.60878  -0.60603  -0.60055
 Alpha  occ. eigenvalues --   -0.59375  -0.58962  -0.58423  -0.57428  -0.57319
 Alpha  occ. eigenvalues --   -0.57135  -0.56812  -0.56458  -0.56131  -0.56055
 Alpha  occ. eigenvalues --   -0.55973  -0.55362  -0.55163  -0.54902  -0.54790
 Alpha  occ. eigenvalues --   -0.54617  -0.54084  -0.53911  -0.53699  -0.53440
 Alpha  occ. eigenvalues --   -0.53095  -0.52800  -0.52751  -0.52632  -0.52437
 Alpha  occ. eigenvalues --   -0.52289  -0.52221  -0.51984  -0.51767  -0.51748
 Alpha  occ. eigenvalues --   -0.51455  -0.51375  -0.51130  -0.50864  -0.50726
 Alpha  occ. eigenvalues --   -0.50644  -0.50385  -0.50188  -0.50071  -0.49762
 Alpha  occ. eigenvalues --   -0.49685  -0.49555  -0.49143  -0.48939  -0.48729
 Alpha  occ. eigenvalues --   -0.48570  -0.48371  -0.47811  -0.47562  -0.47456
 Alpha  occ. eigenvalues --   -0.47383  -0.47372  -0.46862  -0.46760  -0.46602
 Alpha  occ. eigenvalues --   -0.46531  -0.46297  -0.46134  -0.45999  -0.45872
 Alpha  occ. eigenvalues --   -0.45639  -0.45511  -0.45401  -0.45311  -0.45067
 Alpha  occ. eigenvalues --   -0.44939  -0.44801  -0.44698  -0.44418  -0.44220
 Alpha  occ. eigenvalues --   -0.44107  -0.43827  -0.43583  -0.43230  -0.43119
 Alpha  occ. eigenvalues --   -0.42956  -0.42809  -0.42458  -0.42007  -0.41692
 Alpha  occ. eigenvalues --   -0.41529  -0.41246  -0.40864  -0.40621  -0.40335
 Alpha  occ. eigenvalues --   -0.40310  -0.39991  -0.39577  -0.39552  -0.39325
 Alpha  occ. eigenvalues --   -0.39289  -0.38890  -0.38742  -0.38366  -0.38114
 Alpha  occ. eigenvalues --   -0.38032  -0.37570  -0.36739  -0.36318  -0.36032
 Alpha  occ. eigenvalues --   -0.35777  -0.35399  -0.35366  -0.34194  -0.33902
 Alpha  occ. eigenvalues --   -0.32991  -0.32520  -0.31756  -0.30699  -0.26334
 Alpha  occ. eigenvalues --   -0.22517
 Alpha virt. eigenvalues --   -0.06811   0.00287   0.02035   0.03747   0.05203
 Alpha virt. eigenvalues --    0.06515   0.07467   0.07760   0.07841   0.09490
 Alpha virt. eigenvalues --    0.10814   0.11573   0.11988   0.12335   0.12509

 Mulliken charges:
               1
     1  Mg   0.954260
     2  C   -0.026150
     3  C   -0.107119
     4  C   -0.087948
     5  C   -0.128418
     6  N   -0.342390
     7  C    0.001412
     8  C   -0.083660
     9  C   -0.146967
    10  C    0.057469
    11  C    0.046108
    12  C    0.013591
    13  C    0.013212
    14  C    0.233673
    15  O   -0.256220
    16  O   -0.375235
    17  N   -0.528941
    18  C    0.203410
    19  C   -0.165180
    20  C   -0.092037
    21  C    0.159202
    22  C    0.071060
    23  C    0.099630
    24  O   -0.235432
    25  C   -0.034364
    26  N   -0.357066
    27  C    0.037358
    28  C   -0.046063
    29  C   -0.086392
    30  C    0.076718
    31  C    0.055649
    32  C   -0.014239
    33  C   -0.068386
    34  N   -0.386017
    35  C    0.133104
    36  C   -0.196989
    37  C   -0.061010
    38  C    0.166877
    39  C    0.098531
    40  C    0.146398
    41  O   -0.222421
    42  C   -0.105012
    43  C    0.269999
    44  O   -0.261948
    45  O   -0.340934
    46  C    0.127196
    47  C    0.282461
    48  C   -0.154800
    49  C   -0.228887
    50  C    0.047144
    51  C    0.022735
    52  C   -0.066565
    53  C    0.028608
    54  C   -0.178664
    55  C   -0.004877
    56  C    0.021359
    57  C   -0.037526
    58  C   -0.008804
    59  C   -0.194534
    60  C    0.013225
    61  C   -0.014317
    62  C   -0.023079
    63  C    0.018080
    64  C   -0.210161
    65  C   -0.027434
    66  C   -0.010834
    67  H   -0.010344
    68  H    0.021531
    69  H    0.009749
    70  H    0.030607
    71  H    0.044118
    72  H    0.047261
    73  H    0.041973
    74  H    0.038546
    75  H    0.035065
    76  H    0.055798
    77  H    0.045553
    78  H    0.053901
    79  H    0.048249
    80  H    0.048381
    81  H    0.050052
    82  H    0.063672
    83  H    0.064747
    84  H    0.065171
    85  H    0.030257
    86  H    0.026694
    87  H    0.049449
    88  H    0.040533
    89  H    0.032443
    90  H    0.032725
    91  H    0.036908
    92  H    0.024456
    93  H    0.048375
    94  H    0.037289
    95  H    0.070993
    96  H    0.014837
    97  H    0.063522
    98  H    0.076688
    99  H    0.064646
   100  H    0.051432
   101  H    0.059737
   102  H    0.067738
   103  H    0.053673
   104  H    0.033903
   105  H    0.061121
   106  H    0.046928
   107  H    0.010491
   108  H    0.006603
   109  H    0.021467
   110  H    0.030211
   111  H    0.027002
   112  H    0.001865
   113  H    0.029644
   114  H    0.024041
   115  H    0.029216
   116  H    0.015968
   117  H    0.028331
   118  H    0.019424
   119  H    0.021013
   120  H    0.019967
   121  H    0.018837
   122  H    0.020075
   123  H    0.012723
   124  H    0.019704
   125  H    0.019287
   126  H    0.020286
   127  H    0.020065
   128  H    0.021802
   129  H    0.003940
   130  H    0.021674
   131  H    0.028712
   132  H    0.026699
   133  H    0.016391
   134  H    0.031631
   135  H    0.028263
   136  H    0.032157
   137  H    0.019979
   138  H    0.020901
   139  H    0.026886
   140  H    0.044921
 Sum of Mulliken charges =  -0.00000

 Dipole moment (field-independent basis, Debye):
    X=             -1.7125    Y=              4.3704    Z=             -1.4875  Tot=              4.9240
 Quadrupole moment (field-independent basis, Debye-Ang):
   XX=           -396.1216   YY=           -405.6840   ZZ=           -399.2928
   XY=             23.6069   XZ=             24.7136   YZ=             -2.6373

 Normal termination of Gaussian 16 at Wed May  4 09:36:15 2022.
