 Gaussian 16, Revision A.03,
 Gaussian 16:  ES64L-G16RevA.03 25-Dec-2016

 --------------------
 #p ZINDO=(nstates=5)
 --------------------

 ------------------------------
 step_1551_chromophore_10 ZINDO
 ------------------------------
 Symbolic Z-matrix:
 Charge =  0 Multiplicity = 1

                         Standard orientation:
 ---------------------------------------------------------------------
 Center     Atomic      Atomic             Coordinates (Angstroms)
 Number     Number       Type             X           Y           Z
 ---------------------------------------------------------------------
      1         12           0        5.982404    0.704171    0.260174
      2          6           0        3.827008   -2.124682    0.365097
      3          6           0        3.649982    2.317028   -1.678958
      4          6           0        8.191733    2.964018   -0.238892
      5          6           0        8.409505   -1.356373    1.781177
      6          7           0        3.856353    0.191911   -0.357696
      7          6           0        3.268643   -1.054096   -0.311822
      8          6           0        1.843839   -0.892495   -0.863895
      9          6           0        1.803430    0.505698   -1.541372
     10          6           0        3.254486    1.023871   -1.221950
     11          6           0        1.420987    0.536079   -3.010912
     12          6           0        0.827475   -1.032718    0.264530
     13          6           0       -0.560441   -0.413553    0.052215
     14          6           0       -1.786634   -1.234257    0.456757
     15          8           0       -2.682294   -0.818268    1.201148
     16          8           0       -1.725690   -2.516525   -0.111359
     17          7           0        5.881976    2.420560   -0.734029
     18          6           0        4.890298    2.966424   -1.492898
     19          6           0        5.245386    4.355756   -1.869509
     20          6           0        6.524222    4.574853   -1.330879
     21          6           0        6.981699    3.301718   -0.831849
     22          6           0        4.311031    5.299005   -2.697697
     23          6           0        7.418757    5.887751   -1.369501
     24          8           0        8.600641    5.941668   -0.985499
     25          6           0        6.645501    7.175291   -1.706690
     26          7           0        8.099761    0.644254    0.385282
     27          6           0        8.707747    1.824399    0.333233
     28          6           0       10.123860    1.784435    0.923945
     29          6           0       10.098593    0.515929    1.778252
     30          6           0        8.787386   -0.142010    1.314831
     31          6           0       11.194203    1.764575   -0.137474
     32          6           0       10.104983    0.720686    3.285120
     33          6           0        9.115705    1.718668    3.887128
     34          7           0        6.129771   -1.312649    1.030183
     35          6           0        7.237066   -2.009155    1.485380
     36          6           0        6.795877   -3.454525    1.699872
     37          6           0        5.458547   -3.457627    1.371154
     38          6           0        5.143335   -2.182030    0.883688
     39          6           0        7.615423   -4.590483    2.110934
     40          6           0        4.404514   -4.417157    1.235785
     41          8           0        4.328609   -5.639907    1.445515
     42          6           0        3.269366   -3.573011    0.507795
     43          6           0        2.759413   -4.206847   -0.775685
     44          8           0        3.321670   -4.317012   -1.862451
     45          8           0        1.596228   -4.797586   -0.481308
     46          6           0        0.984137   -5.560275   -1.595488
     47          6           0       -2.936287   -3.306551   -0.030739
     48          6           0       -4.101806   -2.657981   -0.817499
     49          6           0       -5.357441   -3.173598   -1.061933
     50          6           0       -5.934196   -4.500404   -0.521703
     51          6           0       -6.300293   -2.370988   -1.908524
     52          6           0       -7.252214   -1.548617   -0.978828
     53          6           0       -7.783882   -0.289401   -1.655445
     54          6           0       -9.257869   -0.547672   -2.147259
     55          6           0       -9.442628   -0.481073   -3.713160
     56          6           0      -10.171298    0.323199   -1.294297
     57          6           0      -11.633802   -0.219665   -1.170801
     58          6           0      -12.749089    0.828290   -1.379525
     59          6           0      -14.011535    0.619826   -0.396550
     60          6           0      -15.085864   -0.123927   -1.172535
     61          6           0      -14.518798    1.946829    0.277152
     62          6           0      -13.651379    2.347689    1.462059
     63          6           0      -14.492924    3.291712    2.345735
     64          6           0      -13.969832    3.132035    3.868627
     65          6           0      -15.086868    2.398253    4.701747
     66          6           0      -13.528046    4.455477    4.589257
     67          1           0        2.851897    2.810308   -2.237231
     68          1           0        8.803812    3.864206   -0.142213
     69          1           0        9.186468   -1.928301    2.294705
     70          1           0        1.595474   -1.636027   -1.621105
     71          1           0        1.233237    1.208170   -0.933330
     72          1           0        2.333006    0.607069   -3.604114
     73          1           0        0.727912    1.353646   -3.211272
     74          1           0        0.969300   -0.422414   -3.265775
     75          1           0        1.270566   -0.538924    1.129345
     76          1           0        0.711183   -2.099829    0.458308
     77          1           0       -0.683385   -0.271934   -1.021949
     78          1           0       -0.569277    0.590383    0.477168
     79          1           0        4.902431    5.647975   -3.545181
     80          1           0        4.050311    6.207879   -2.156852
     81          1           0        3.413549    4.811066   -3.078625
     82          1           0        7.318139    7.970655   -1.384621
     83          1           0        5.734618    7.147853   -1.108197
     84          1           0        6.431107    7.243421   -2.772466
     85          1           0       10.204413    2.603993    1.638917
     86          1           0       10.956520   -0.135588    1.609114
     87          1           0       10.917134    2.372267   -0.999396
     88          1           0       11.512925    0.759957   -0.414850
     89          1           0       12.068136    2.214750    0.333127
     90          1           0       11.089690    1.144467    3.482918
     91          1           0        9.870471   -0.229868    3.761845
     92          1           0        8.633340    2.322323    3.118190
     93          1           0        9.633874    2.390367    4.571572
     94          1           0        8.220632    1.246926    4.293406
     95          1           0        7.266029   -5.098882    3.008981
     96          1           0        8.636377   -4.215946    2.187479
     97          1           0        7.590405   -5.205205    1.211875
     98          1           0        2.497477   -3.596761    1.276877
     99          1           0        1.307231   -5.191833   -2.568916
    100          1           0       -0.105054   -5.525951   -1.555404
    101          1           0        1.261521   -6.614122   -1.550422
    102          1           0       -3.289213   -3.576442    0.964771
    103          1           0       -2.796252   -4.218671   -0.610822
    104          1           0       -4.137080   -1.590513   -1.034223
    105          1           0       -6.260525   -5.204989   -1.286029
    106          1           0       -6.688689   -4.232114    0.217988
    107          1           0       -5.166630   -4.897063    0.142736
    108          1           0       -6.998001   -2.958477   -2.504800
    109          1           0       -5.936843   -1.742475   -2.721529
    110          1           0       -6.713630   -1.185846   -0.102909
    111          1           0       -8.081282   -2.176267   -0.652111
    112          1           0       -7.120654   -0.103266   -2.499694
    113          1           0       -7.634930    0.546696   -0.972598
    114          1           0       -9.591943   -1.559924   -1.920759
    115          1           0       -9.655597   -1.421575   -4.221232
    116          1           0       -8.505582   -0.175925   -4.178842
    117          1           0      -10.189182    0.239493   -4.049186
    118          1           0      -10.302656    1.345178   -1.647255
    119          1           0       -9.822110    0.333930   -0.261515
    120          1           0      -11.742991   -0.666874   -0.183294
    121          1           0      -11.774390   -0.995433   -1.923566
    122          1           0      -13.058363    0.700531   -2.417332
    123          1           0      -12.492510    1.881909   -1.272712
    124          1           0      -13.690573   -0.047317    0.404579
    125          1           0      -15.069587   -0.007564   -2.256382
    126          1           0      -16.077132    0.154884   -0.814522
    127          1           0      -14.976372   -1.205675   -1.090650
    128          1           0      -15.605731    2.027176    0.282857
    129          1           0      -14.188346    2.722030   -0.412801
    130          1           0      -12.870032    2.911491    0.952924
    131          1           0      -13.177488    1.457104    1.873731
    132          1           0      -15.558949    3.074270    2.280623
    133          1           0      -14.357594    4.350660    2.124536
    134          1           0      -13.101409    2.473901    3.891009
    135          1           0      -14.710710    1.911901    5.601659
    136          1           0      -15.643385    1.722271    4.052857
    137          1           0      -15.792727    3.131552    5.091959
    138          1           0      -14.297842    5.221838    4.504991
    139          1           0      -12.763477    4.913202    3.961771
    140          1           0      -13.284315    4.212790    5.624018
 ---------------------------------------------------------------------

 SCF Done:  E(RZINDO/S) =  -474.245654128     A.U. after   19 cycles

 Excitation energies and oscillator strengths:

 Excited State   1:      Singlet-A      1.2174 eV 1018.40 nm  f=0.5739  <S**2>=0.000
     175 ->178         0.17932
     176 ->177         0.66669
 This state for optimization and/or second-order correction.
 Total Energy, E(CIS/TDA) =  -474.200913872
 Copying the excited state density for this state as the 1-particle RhoCI density.

 Excited State   2:      Singlet-A      1.9396 eV  639.24 nm  f=0.0040  <S**2>=0.000
     175 ->177         0.49756
     176 ->178        -0.47910

 Excited State   3:      Singlet-A      2.8754 eV  431.18 nm  f=0.0977  <S**2>=0.000
     175 ->177        -0.12967
     176 ->178        -0.15093
     176 ->179         0.57028
     176 ->180         0.25736

 Excited State   4:      Singlet-A      2.9443 eV  421.10 nm  f=0.6694  <S**2>=0.000
     168 ->179         0.14215
     171 ->177         0.11909
     175 ->177         0.36112
     176 ->178         0.40939
     176 ->179         0.21069
     176 ->180        -0.11614
     176 ->182         0.20307

 Excited State   5:      Singlet-A      3.0501 eV  406.49 nm  f=0.1169  <S**2>=0.000
     168 ->177        -0.10505
     168 ->179         0.21191
     168 ->180        -0.10598
     168 ->185         0.10370
     169 ->177         0.17619
     169 ->179         0.14711
     169 ->180         0.26263
     170 ->177         0.12735
     170 ->179         0.21781
     170 ->180         0.21480
     170 ->185         0.10855
     171 ->180         0.10031
     175 ->177        -0.12141
     176 ->178        -0.13235
     176 ->182        -0.11131

 The electronic state is 1-A.
 Alpha  occ. eigenvalues --   -1.84922  -1.82674  -1.80995  -1.73164  -1.72814
 Alpha  occ. eigenvalues --   -1.70445  -1.64223  -1.60695  -1.56999  -1.56852
 Alpha  occ. eigenvalues --   -1.53397  -1.50147  -1.48918  -1.47424  -1.46720
 Alpha  occ. eigenvalues --   -1.45889  -1.43263  -1.41062  -1.38761  -1.38444
 Alpha  occ. eigenvalues --   -1.36960  -1.34677  -1.33113  -1.32295  -1.30025
 Alpha  occ. eigenvalues --   -1.26040  -1.25135  -1.22147  -1.20355  -1.18494
 Alpha  occ. eigenvalues --   -1.17415  -1.15708  -1.15012  -1.14597  -1.13922
 Alpha  occ. eigenvalues --   -1.12382  -1.11622  -1.10264  -1.04816  -1.03593
 Alpha  occ. eigenvalues --   -1.02021  -1.00785  -0.99072  -0.98301  -0.96064
 Alpha  occ. eigenvalues --   -0.95260  -0.94415  -0.94105  -0.93380  -0.92638
 Alpha  occ. eigenvalues --   -0.91497  -0.90580  -0.90173  -0.88318  -0.85811
 Alpha  occ. eigenvalues --   -0.85486  -0.84181  -0.83443  -0.82110  -0.80885
 Alpha  occ. eigenvalues --   -0.79292  -0.78482  -0.76758  -0.76380  -0.75755
 Alpha  occ. eigenvalues --   -0.75163  -0.74997  -0.74438  -0.73872  -0.73617
 Alpha  occ. eigenvalues --   -0.72916  -0.72039  -0.71350  -0.71022  -0.70735
 Alpha  occ. eigenvalues --   -0.70471  -0.69341  -0.68894  -0.68173  -0.67251
 Alpha  occ. eigenvalues --   -0.67116  -0.66834  -0.66503  -0.66155  -0.65804
 Alpha  occ. eigenvalues --   -0.65302  -0.64389  -0.64224  -0.64004  -0.63264
 Alpha  occ. eigenvalues --   -0.63143  -0.62436  -0.62340  -0.61983  -0.61658
 Alpha  occ. eigenvalues --   -0.61375  -0.61313  -0.60769  -0.60436  -0.60290
 Alpha  occ. eigenvalues --   -0.59606  -0.59003  -0.58735  -0.58424  -0.58318
 Alpha  occ. eigenvalues --   -0.57875  -0.57391  -0.56769  -0.56602  -0.56525
 Alpha  occ. eigenvalues --   -0.56350  -0.55608  -0.55159  -0.54954  -0.54861
 Alpha  occ. eigenvalues --   -0.54599  -0.54162  -0.54126  -0.53470  -0.53054
 Alpha  occ. eigenvalues --   -0.52653  -0.52340  -0.52169  -0.51912  -0.51463
 Alpha  occ. eigenvalues --   -0.51369  -0.51298  -0.50681  -0.50599  -0.50252
 Alpha  occ. eigenvalues --   -0.49839  -0.49653  -0.49475  -0.49263  -0.49132
 Alpha  occ. eigenvalues --   -0.48824  -0.48446  -0.48152  -0.48027  -0.47691
 Alpha  occ. eigenvalues --   -0.47484  -0.47139  -0.46623  -0.46586  -0.46388
 Alpha  occ. eigenvalues --   -0.46250  -0.46001  -0.45619  -0.45569  -0.45321
 Alpha  occ. eigenvalues --   -0.45137  -0.44843  -0.44778  -0.44565  -0.43394
 Alpha  occ. eigenvalues --   -0.43138  -0.42893  -0.42400  -0.42176  -0.41810
 Alpha  occ. eigenvalues --   -0.41750  -0.41432  -0.41143  -0.39317  -0.39103
 Alpha  occ. eigenvalues --   -0.38134  -0.37442  -0.36782  -0.34962  -0.34471
 Alpha  occ. eigenvalues --   -0.33985  -0.32655  -0.32085  -0.30826  -0.27046
 Alpha  occ. eigenvalues --   -0.21218
 Alpha virt. eigenvalues --   -0.08104  -0.02008  -0.00641   0.00849   0.01373
 Alpha virt. eigenvalues --    0.01791   0.02648   0.02819   0.04488   0.04569
 Alpha virt. eigenvalues --    0.05936   0.06198   0.07440   0.07863   0.08216

 Mulliken charges:
               1
     1  Mg   0.437206
     2  C   -0.048239
     3  C   -0.103070
     4  C   -0.070412
     5  C   -0.042334
     6  N   -0.287865
     7  C    0.105560
     8  C    0.010733
     9  C   -0.004878
    10  C    0.152529
    11  C   -0.047015
    12  C   -0.017507
    13  C    0.005281
    14  C    0.470683
    15  O   -0.510989
    16  O   -0.270439
    17  N   -0.340706
    18  C    0.136015
    19  C    0.009001
    20  C   -0.027826
    21  C    0.134424
    22  C   -0.042379
    23  C    0.319932
    24  O   -0.506664
    25  C   -0.032241
    26  N   -0.266926
    27  C    0.173348
    28  C    0.012016
    29  C   -0.000067
    30  C    0.090305
    31  C   -0.042748
    32  C   -0.027418
    33  C   -0.060764
    34  N   -0.312140
    35  C    0.057220
    36  C    0.030992
    37  C   -0.056778
    38  C    0.119053
    39  C   -0.035608
    40  C    0.329382
    41  O   -0.528957
    42  C    0.046167
    43  C    0.491867
    44  O   -0.527932
    45  O   -0.253252
    46  C    0.071878
    47  C    0.111254
    48  C   -0.110852
    49  C   -0.003907
    50  C   -0.047285
    51  C   -0.022912
    52  C   -0.033256
    53  C   -0.037589
    54  C   -0.006612
    55  C   -0.061261
    56  C   -0.034112
    57  C   -0.042749
    58  C   -0.042066
    59  C   -0.021167
    60  C   -0.057652
    61  C   -0.049287
    62  C   -0.030609
    63  C   -0.032600
    64  C   -0.029321
    65  C   -0.062693
    66  C   -0.060687
    67  H    0.023300
    68  H    0.033809
    69  H    0.022829
    70  H    0.031381
    71  H    0.032896
    72  H    0.027296
    73  H    0.023202
    74  H    0.021919
    75  H    0.025694
    76  H    0.027448
    77  H    0.036307
    78  H    0.037883
    79  H    0.026523
    80  H    0.033267
    81  H    0.031089
    82  H    0.039679
    83  H    0.039084
    84  H    0.045259
    85  H    0.032735
    86  H    0.024714
    87  H    0.028716
    88  H    0.027567
    89  H    0.013871
    90  H    0.015685
    91  H    0.026219
    92  H    0.014626
    93  H    0.023984
    94  H    0.021376
    95  H    0.047157
    96  H    0.015830
    97  H    0.042358
    98  H    0.049925
    99  H    0.048809
   100  H    0.029645
   101  H    0.042931
   102  H    0.059802
   103  H    0.035568
   104  H    0.041484
   105  H    0.039239
   106  H    0.033210
   107  H    0.015767
   108  H    0.009537
   109  H    0.027704
   110  H    0.018072
   111  H    0.022272
   112  H    0.015950
   113  H    0.023913
   114  H    0.021699
   115  H    0.020146
   116  H    0.012519
   117  H    0.019341
   118  H    0.022804
   119  H    0.017503
   120  H    0.018456
   121  H    0.018271
   122  H    0.016871
   123  H    0.022448
   124  H    0.019481
   125  H    0.017149
   126  H    0.013053
   127  H    0.011119
   128  H    0.034114
   129  H    0.007458
   130  H    0.018355
   131  H    0.033636
   132  H    0.028592
   133  H    0.022544
   134  H    0.019830
   135  H    0.017370
   136  H    0.019427
   137  H    0.012951
   138  H    0.016645
   139  H    0.016981
   140  H    0.030629
 Sum of Mulliken charges =  -0.00000

 Dipole moment (field-independent basis, Debye):
    X=             -2.9506    Y=              7.0439    Z=             -2.6298  Tot=              8.0770
 N-N= 4.224551490822D+03 E-N= 0.000000000000D+00  KE=-9.123504666551D+03
 Leave Link  601 at Wed May  4 09:49:07 2022, MaxMem=  6710886400 cpu:               1.0 elap:               0.1
 (Enter /sw/apps/gaussian-16.0/g16/l9999.exe)
 1\1\GINC-BP1-COMPUTE092\SP\RZINDO CIS\STO-3G\C55H74Mg1N4O6\OF15641\04-
 May-2022\0\\#p ZINDO=(nstates=5)\\step_1551_chromophore_10 ZINDO\\0,1\
 Mg,0,41.221,7.39,29.128\C,0,43.129,8.937,31.702\C,0,39.237,5.976,31.55
 \C,0,39.92,5.617,26.804\C,0,43.716,8.511,26.899\N,0,41.088,7.664,31.38
 \C,0,42.048,8.226,32.194\C,0,41.509,8.152,33.631\C,0,40.294,7.184,33.5
 83\C,0,40.243,6.86,32.044\C,0,40.359,5.969,34.492\C,0,41.135,9.547,34.
 121\C,0,40.131,9.649,35.277\C,0,40.43,10.635,36.408\O,0,39.635,11.496,

 Normal termination of Gaussian 16 at Wed May  4 09:49:08 2022.
