 Gaussian 16, Revision A.03,
 Gaussian 16:  ES64L-G16RevA.03 25-Dec-2016

 ------------------------------
 #p blyp/Def2SVP td=(nstates=5)
 ------------------------------

 -------------------------------------------------
 step_401_chromophore_4 TDDFT with blyp functional
 -------------------------------------------------
 Symbolic Z-matrix:
 Charge =  0 Multiplicity = 1

                         Standard orientation:
 ---------------------------------------------------------------------
 Center     Atomic      Atomic             Coordinates (Angstroms)
 Number     Number       Type             X           Y           Z
 ---------------------------------------------------------------------
      1         12           0        6.003837    0.393844    0.155924
      2          6           0        3.651925   -2.181347   -0.021814
      3          6           0        3.411488    2.630062   -0.610130
      4          6           0        8.304637    2.985816   -0.207218
      5          6           0        8.543987   -1.879715    0.457489
      6          7           0        3.803956    0.184013   -0.479447
      7          6           0        3.018613   -0.959273   -0.292647
      8          6           0        1.565176   -0.658381   -0.606918
      9          6           0        1.488411    0.938481   -0.819229
     10          6           0        3.030322    1.294052   -0.613342
     11          6           0        0.790771    1.390033   -2.183820
     12          6           0        0.633181   -1.118813    0.586375
     13          6           0       -0.791618   -0.543639    0.548131
     14          6           0       -1.882371   -1.596924    0.698407
     15          8           0       -1.964690   -2.305912    1.703151
     16          8           0       -2.769070   -1.588019   -0.344833
     17          7           0        5.867743    2.518917   -0.223613
     18          6           0        4.671770    3.254974   -0.410015
     19          6           0        5.011798    4.659965   -0.520746
     20          6           0        6.438660    4.776063   -0.378596
     21          6           0        6.958640    3.408714   -0.213912
     22          6           0        3.981990    5.769003   -0.730982
     23          6           0        7.282563    6.025610   -0.538092
     24          8           0        8.465103    5.964553   -0.871857
     25          6           0        6.736539    7.387959   -0.558753
     26          7           0        8.106289    0.585753    0.139399
     27          6           0        8.857769    1.736712   -0.002585
     28          6           0       10.372473    1.501962    0.246198
     29          6           0       10.370079   -0.061765    0.519541
     30          6           0        8.918708   -0.540003    0.279519
     31          6           0       11.235832    2.031600   -0.981510
     32          6           0       10.871560   -0.471921    1.971932
     33          6           0       12.247349   -1.019080    2.029956
     34          7           0        6.211727   -1.568092    0.212967
     35          6           0        7.270959   -2.386568    0.469410
     36          6           0        6.874030   -3.720215    0.810214
     37          6           0        5.476136   -3.674153    0.551466
     38          6           0        5.112550   -2.359826    0.170401
     39          6           0        7.674503   -4.891022    1.159374
     40          6           0        4.310147   -4.526590    0.563867
     41          8           0        4.194029   -5.774775    0.739557
     42          6           0        3.081527   -3.572677    0.245139
     43          6           0        2.223450   -3.950501   -0.892294
     44          8           0        2.581401   -3.800946   -2.065541
     45          8           0        0.983280   -4.318004   -0.450196
     46          6           0       -0.090905   -4.449319   -1.458469
     47          6           0       -3.666513   -2.746418   -0.276723
     48          6           0       -5.070600   -2.286741    0.096514
     49          6           0       -6.243934   -2.856128   -0.340479
     50          6           0       -6.306017   -4.223290   -1.028209
     51          6           0       -7.582974   -2.205944   -0.097134
     52          6           0       -8.174568   -1.414636   -1.316974
     53          6           0       -8.150507    0.113443   -1.171613
     54          6           0       -9.413103    0.704078   -0.599549
     55          6           0      -10.347287    1.295344   -1.704523
     56          6           0       -9.139665    1.752424    0.608330
     57          6           0       -9.899296    1.412355    1.909695
     58          6           0      -10.754708    2.661527    2.537176
     59          6           0      -12.255257    2.312816    2.767861
     60          6           0      -12.741722    3.233816    3.947274
     61          6           0      -13.113814    2.434591    1.515871
     62          6           0      -13.785021    1.078168    1.147379
     63          6           0      -14.783806    1.307261   -0.071141
     64          6           0      -14.485266    0.291044   -1.298264
     65          6           0      -14.583982    1.112395   -2.607383
     66          6           0      -15.395025   -0.924123   -1.441500
     67          1           0        2.509402    3.229306   -0.755323
     68          1           0        9.127709    3.702651   -0.245878
     69          1           0        9.358435   -2.532065    0.778154
     70          1           0        1.455786   -1.182801   -1.555979
     71          1           0        0.930860    1.415989   -0.014023
     72          1           0        0.082543    0.581458   -2.369260
     73          1           0        1.552096    1.333547   -2.962030
     74          1           0        0.233686    2.321181   -2.086124
     75          1           0        1.148061   -0.876483    1.516108
     76          1           0        0.613228   -2.194208    0.410903
     77          1           0       -1.107265   -0.013058   -0.350142
     78          1           0       -0.901375    0.160587    1.372284
     79          1           0        4.215377    6.231604   -1.689395
     80          1           0        3.972165    6.521442    0.057828
     81          1           0        3.073384    5.169449   -0.784420
     82          1           0        5.953734    7.603802    0.168488
     83          1           0        6.319046    7.356054   -1.565241
     84          1           0        7.423116    8.228903   -0.465124
     85          1           0       10.636679    2.023036    1.166502
     86          1           0       10.913449   -0.624195   -0.240157
     87          1           0       12.185614    1.527044   -1.157067
     88          1           0       11.413441    3.082803   -0.759906
     89          1           0       10.652319    1.869051   -1.887820
     90          1           0       10.238414   -1.219423    2.450417
     91          1           0       10.771863    0.372442    2.654779
     92          1           0       12.156499   -1.985106    2.527536
     93          1           0       12.824431   -0.425165    2.739195
     94          1           0       12.702802   -1.153791    1.048943
     95          1           0        7.187322   -5.726504    1.661646
     96          1           0        8.482336   -4.608332    1.835346
     97          1           0        7.983551   -5.145344    0.144826
     98          1           0        2.536890   -3.514688    1.187294
     99          1           0        0.280593   -4.098934   -2.421257
    100          1           0       -0.936814   -3.846212   -1.128160
    101          1           0       -0.428436   -5.485299   -1.474815
    102          1           0       -3.384719   -3.630809    0.294327
    103          1           0       -3.807501   -3.065016   -1.309089
    104          1           0       -5.158657   -1.331459    0.614039
    105          1           0       -5.416819   -4.853314   -1.009430
    106          1           0       -6.546720   -3.929187   -2.049443
    107          1           0       -7.094065   -4.808009   -0.554177
    108          1           0       -7.377982   -1.460837    0.671631
    109          1           0       -8.360478   -2.844567    0.322088
    110          1           0       -9.193329   -1.797509   -1.381991
    111          1           0       -7.663064   -1.779381   -2.207766
    112          1           0       -7.921743    0.599119   -2.120223
    113          1           0       -7.312690    0.413928   -0.542260
    114          1           0      -10.035162   -0.142450   -0.308605
    115          1           0      -11.324383    1.644914   -1.372271
    116          1           0      -10.614449    0.414924   -2.288149
    117          1           0       -9.846953    2.017155   -2.350526
    118          1           0       -9.238321    2.783821    0.271122
    119          1           0       -8.071369    1.651839    0.801098
    120          1           0       -9.109188    1.351680    2.658556
    121          1           0      -10.356012    0.423131    1.928432
    122          1           0      -10.794338    3.569288    1.935469
    123          1           0      -10.282435    2.959668    3.473445
    124          1           0      -12.244781    1.323024    3.223616
    125          1           0      -13.816822    3.415601    3.947779
    126          1           0      -12.257282    4.207252    4.027432
    127          1           0      -12.662833    2.691243    4.889407
    128          1           0      -12.461195    2.692254    0.682174
    129          1           0      -13.886293    3.195292    1.631551
    130          1           0      -14.259206    0.492794    1.935110
    131          1           0      -12.980661    0.407024    0.845521
    132          1           0      -14.733216    2.344427   -0.402845
    133          1           0      -15.774524    1.195760    0.370129
    134          1           0      -13.501079   -0.160815   -1.178414
    135          1           0      -13.764110    0.884481   -3.288729
    136          1           0      -14.755434    2.188413   -2.625761
    137          1           0      -15.389198    0.734869   -3.237092
    138          1           0      -14.957714   -1.594533   -2.181070
    139          1           0      -16.465052   -0.802597   -1.610933
    140          1           0      -15.193143   -1.373139   -0.468483
 ---------------------------------------------------------------------

 SCF Done:  E(RB-LYP) =  -3007.37213982     A.U. after   21 cycles

 Excitation energies and oscillator strengths:

 Excited State   1:      Singlet-A      1.7275 eV  717.69 nm  f=0.0852  <S**2>=0.000
     244 -> 247        0.57943
     246 -> 247       -0.38670
 This state for optimization and/or second-order correction.
 Total Energy, E(TD-HF/TD-DFT) =  -3007.30865407
 Copying the excited state density for this state as the 1-particle RhoCI density.

 Excited State   2:      Singlet-A      1.7891 eV  693.01 nm  f=0.1961  <S**2>=0.000
     244 -> 247        0.39566
     245 -> 248        0.15714
     246 -> 247        0.56554
     246 <- 247       -0.13037

 Excited State   3:      Singlet-A      1.8806 eV  659.29 nm  f=0.0324  <S**2>=0.000
     243 -> 247        0.63955
     245 -> 247        0.26618
     246 -> 247       -0.11463

 Excited State   4:      Singlet-A      2.0206 eV  613.61 nm  f=0.0868  <S**2>=0.000
     243 -> 247       -0.27602
     245 -> 247        0.58967
     246 -> 248       -0.23461

 Excited State   5:      Singlet-A      2.2334 eV  555.12 nm  f=0.0000  <S**2>=0.000
     242 -> 247        0.70709

 The electronic state is 1-A.
 Alpha  occ. eigenvalues --  -46.26792 -18.83901 -18.82890 -18.76913 -18.76802
 Alpha  occ. eigenvalues --  -18.75539 -18.74767 -14.03234 -14.02891 -14.01079
 Alpha  occ. eigenvalues --  -14.00979 -10.04420 -10.04209  -9.99685  -9.99552
 Alpha  occ. eigenvalues --   -9.98589  -9.98286  -9.96863  -9.96530  -9.96321
 Alpha  occ. eigenvalues --   -9.96067  -9.96043  -9.95979  -9.95305  -9.95117
 Alpha  occ. eigenvalues --   -9.94685  -9.94531  -9.94469  -9.94341  -9.93995
 Alpha  occ. eigenvalues --   -9.93897  -9.93860  -9.93803  -9.93766  -9.93546
 Alpha  occ. eigenvalues --   -9.93376  -9.93216  -9.93188  -9.92986  -9.92835
 Alpha  occ. eigenvalues --   -9.92744  -9.92653  -9.92562  -9.92497  -9.92407
 Alpha  occ. eigenvalues --   -9.92371  -9.92209  -9.92204  -9.92192  -9.92141
 Alpha  occ. eigenvalues --   -9.91931  -9.91885  -9.91771  -9.91585  -9.91495
 Alpha  occ. eigenvalues --   -9.91471  -9.91462  -9.91433  -9.91309  -9.91293
 Alpha  occ. eigenvalues --   -9.91199  -9.91101  -9.91029  -9.90973  -9.90539
 Alpha  occ. eigenvalues --   -9.90289  -2.91467  -1.71877  -1.71336  -1.71205
 Alpha  occ. eigenvalues --   -0.98850  -0.97753  -0.90995  -0.90164  -0.89820
 Alpha  occ. eigenvalues --   -0.88776  -0.86632  -0.84782  -0.84273  -0.82914
 Alpha  occ. eigenvalues --   -0.75079  -0.73725  -0.72718  -0.72306  -0.71997
 Alpha  occ. eigenvalues --   -0.71643  -0.71213  -0.70891  -0.70573  -0.70518
 Alpha  occ. eigenvalues --   -0.69732  -0.68918  -0.67981  -0.67637  -0.67165
 Alpha  occ. eigenvalues --   -0.66426  -0.66084  -0.65641  -0.65186  -0.64781
 Alpha  occ. eigenvalues --   -0.64069  -0.62794  -0.62515  -0.61792  -0.60915
 Alpha  occ. eigenvalues --   -0.60640  -0.60030  -0.59749  -0.59197  -0.58843
 Alpha  occ. eigenvalues --   -0.58396  -0.57870  -0.56574  -0.55952  -0.54305
 Alpha  occ. eigenvalues --   -0.53894  -0.53659  -0.52638  -0.52346  -0.51433
 Alpha  occ. eigenvalues --   -0.51232  -0.51032  -0.50591  -0.50503  -0.49980
 Alpha  occ. eigenvalues --   -0.49798  -0.49556  -0.48716  -0.48588  -0.46625
 Alpha  occ. eigenvalues --   -0.46179  -0.45872  -0.45478  -0.45008  -0.44874
 Alpha  occ. eigenvalues --   -0.44366  -0.43823  -0.42951  -0.42572  -0.42170
 Alpha  occ. eigenvalues --   -0.41946  -0.41653  -0.41532  -0.41080  -0.40729
 Alpha  occ. eigenvalues --   -0.40689  -0.40425  -0.40293  -0.40159  -0.40089
 Alpha  occ. eigenvalues --   -0.40082  -0.39879  -0.39513  -0.39371  -0.39252
 Alpha  occ. eigenvalues --   -0.39090  -0.38900  -0.38715  -0.38489  -0.38128
 Alpha  occ. eigenvalues --   -0.38112  -0.37948  -0.37688  -0.37412  -0.37354
 Alpha  occ. eigenvalues --   -0.37306  -0.37011  -0.36893  -0.36679  -0.36450
 Alpha  occ. eigenvalues --   -0.36244  -0.36142  -0.35938  -0.35920  -0.35551
 Alpha  occ. eigenvalues --   -0.35431  -0.35145  -0.35057  -0.34758  -0.34612
 Alpha  occ. eigenvalues --   -0.34491  -0.34347  -0.34284  -0.34212  -0.33904
 Alpha  occ. eigenvalues --   -0.33753  -0.33556  -0.33506  -0.33224  -0.32966
 Alpha  occ. eigenvalues --   -0.32849  -0.32743  -0.32712  -0.32323  -0.32218
 Alpha  occ. eigenvalues --   -0.31994  -0.31855  -0.31687  -0.31573  -0.31482
 Alpha  occ. eigenvalues --   -0.31161  -0.31121  -0.31015  -0.30834  -0.30680
 Alpha  occ. eigenvalues --   -0.30497  -0.30352  -0.30042  -0.29987  -0.29895
 Alpha  occ. eigenvalues --   -0.29818  -0.29447  -0.29233  -0.29192  -0.29110
 Alpha  occ. eigenvalues --   -0.28918  -0.28499  -0.28456  -0.28255  -0.28022
 Alpha  occ. eigenvalues --   -0.27481  -0.27360  -0.27013  -0.26944  -0.26583
 Alpha  occ. eigenvalues --   -0.26388  -0.26271  -0.25758  -0.25707  -0.25233
 Alpha  occ. eigenvalues --   -0.25194  -0.24521  -0.24049  -0.23932  -0.23894
 Alpha  occ. eigenvalues --   -0.23036  -0.22211  -0.21942  -0.21834  -0.20589
 Alpha  occ. eigenvalues --   -0.20132  -0.19922  -0.18572  -0.18022  -0.17285
 Alpha  occ. eigenvalues --   -0.15826
 Alpha virt. eigenvalues --   -0.11714  -0.06723  -0.06155  -0.04463  -0.03614
 Alpha virt. eigenvalues --   -0.03260  -0.02531  -0.02185  -0.01535   0.00159
 Alpha virt. eigenvalues --    0.01232   0.01601   0.01975   0.02319   0.02438

 Mulliken charges:
               1
     1  Mg   0.696873
     2  C   -0.023336
     3  C   -0.023994
     4  C   -0.003372
     5  C   -0.117003
     6  N   -0.209555
     7  C   -0.081931
     8  C    0.009792
     9  C   -0.034036
    10  C   -0.025264
    11  C    0.122824
    12  C    0.089305
    13  C    0.168337
    14  C    0.047733
    15  O   -0.202217
    16  O   -0.257609
    17  N   -0.307393
    18  C    0.165936
    19  C   -0.170686
    20  C    0.052402
    21  C    0.130551
    22  C    0.187239
    23  C   -0.074054
    24  O   -0.189086
    25  C    0.142874
    26  N   -0.256121
    27  C   -0.033865
    28  C    0.035908
    29  C    0.042699
    30  C    0.040088
    31  C    0.108948
    32  C    0.062346
    33  C    0.094372
    34  N   -0.302431
    35  C    0.153880
    36  C   -0.161465
    37  C    0.072336
    38  C    0.102217
    39  C    0.173009
    40  C   -0.022865
    41  O   -0.172879
    42  C    0.076166
    43  C    0.131142
    44  O   -0.191280
    45  O   -0.268109
    46  C    0.193858
    47  C    0.301848
    48  C   -0.082375
    49  C   -0.171981
    50  C    0.138611
    51  C    0.114972
    52  C    0.075991
    53  C    0.134281
    54  C   -0.085682
    55  C    0.073079
    56  C    0.123025
    57  C    0.087718
    58  C    0.061192
    59  C   -0.059999
    60  C    0.082876
    61  C    0.141733
    62  C    0.006925
    63  C    0.101097
    64  C   -0.073900
    65  C    0.094733
    66  C    0.102937
    67  H   -0.067623
    68  H   -0.055046
    69  H   -0.061782
    70  H   -0.000798
    71  H   -0.019093
    72  H   -0.003314
    73  H    0.005579
    74  H    0.003206
    75  H   -0.012619
    76  H    0.020244
    77  H   -0.018475
    78  H    0.001634
    79  H    0.002633
    80  H    0.014771
    81  H   -0.020350
    82  H   -0.013191
    83  H    0.013166
    84  H   -0.001212
    85  H   -0.012382
    86  H   -0.030078
    87  H   -0.005771
    88  H    0.017982
    89  H    0.001452
    90  H   -0.025125
    91  H   -0.031363
    92  H   -0.020582
    93  H   -0.013000
    94  H   -0.000136
    95  H    0.011924
    96  H   -0.006908
    97  H    0.023878
    98  H    0.009439
    99  H    0.029931
   100  H    0.014070
   101  H    0.026809
   102  H    0.029111
   103  H   -0.007924
   104  H   -0.037164
   105  H   -0.011209
   106  H    0.001615
   107  H    0.001729
   108  H   -0.033430
   109  H   -0.027808
   110  H   -0.031393
   111  H   -0.032757
   112  H   -0.043038
   113  H   -0.040678
   114  H   -0.035887
   115  H    0.000163
   116  H   -0.027316
   117  H   -0.010477
   118  H   -0.030723
   119  H   -0.046461
   120  H   -0.036178
   121  H   -0.016712
   122  H   -0.028579
   123  H   -0.032516
   124  H   -0.036930
   125  H   -0.034942
   126  H   -0.010932
   127  H   -0.025927
   128  H   -0.025388
   129  H   -0.024421
   130  H   -0.025286
   131  H   -0.030759
   132  H   -0.022970
   133  H   -0.029045
   134  H   -0.026213
   135  H   -0.028370
   136  H   -0.012959
   137  H   -0.039337
   138  H   -0.016484
   139  H   -0.001085
   140  H   -0.028553
 Sum of Mulliken charges =  -0.00000

 Dipole moment (field-independent basis, Debye):
    X=             -2.6816    Y=              2.9277    Z=              0.6305  Tot=              4.0200
 Quadrupole moment (field-independent basis, Debye-Ang):
   XX=           -379.9580   YY=           -426.4505   ZZ=           -411.5113
   XY=              3.8759   XZ=             26.3122   YZ=              8.5002

 Normal termination of Gaussian 16 at Wed May  4 21:09:23 2022.
