 Gaussian 16, Revision A.03,
 Gaussian 16:  ES64L-G16RevA.03 25-Dec-2016

 -----------------------------------
 #p cam-b3lyp/Def2SVP td=(nstates=5)
 -----------------------------------

 ------------------------------------------------------
 step_401_chromophore_4 TDDFT with cam-b3lyp functional
 ------------------------------------------------------
 Symbolic Z-matrix:
 Charge =  0 Multiplicity = 1

                         Standard orientation:
 ---------------------------------------------------------------------
 Center     Atomic      Atomic             Coordinates (Angstroms)
 Number     Number       Type             X           Y           Z
 ---------------------------------------------------------------------
      1         12           0        6.003837    0.393844    0.155924
      2          6           0        3.651925   -2.181347   -0.021814
      3          6           0        3.411488    2.630062   -0.610130
      4          6           0        8.304637    2.985816   -0.207218
      5          6           0        8.543987   -1.879715    0.457489
      6          7           0        3.803956    0.184013   -0.479447
      7          6           0        3.018613   -0.959273   -0.292647
      8          6           0        1.565176   -0.658381   -0.606918
      9          6           0        1.488411    0.938481   -0.819229
     10          6           0        3.030322    1.294052   -0.613342
     11          6           0        0.790771    1.390033   -2.183820
     12          6           0        0.633181   -1.118813    0.586375
     13          6           0       -0.791618   -0.543639    0.548131
     14          6           0       -1.882371   -1.596924    0.698407
     15          8           0       -1.964690   -2.305912    1.703151
     16          8           0       -2.769070   -1.588019   -0.344833
     17          7           0        5.867743    2.518917   -0.223613
     18          6           0        4.671770    3.254974   -0.410015
     19          6           0        5.011798    4.659965   -0.520746
     20          6           0        6.438660    4.776063   -0.378596
     21          6           0        6.958640    3.408714   -0.213912
     22          6           0        3.981990    5.769003   -0.730982
     23          6           0        7.282563    6.025610   -0.538092
     24          8           0        8.465103    5.964553   -0.871857
     25          6           0        6.736539    7.387959   -0.558753
     26          7           0        8.106289    0.585753    0.139399
     27          6           0        8.857769    1.736712   -0.002585
     28          6           0       10.372473    1.501962    0.246198
     29          6           0       10.370079   -0.061765    0.519541
     30          6           0        8.918708   -0.540003    0.279519
     31          6           0       11.235832    2.031600   -0.981510
     32          6           0       10.871560   -0.471921    1.971932
     33          6           0       12.247349   -1.019080    2.029956
     34          7           0        6.211727   -1.568092    0.212967
     35          6           0        7.270959   -2.386568    0.469410
     36          6           0        6.874030   -3.720215    0.810214
     37          6           0        5.476136   -3.674153    0.551466
     38          6           0        5.112550   -2.359826    0.170401
     39          6           0        7.674503   -4.891022    1.159374
     40          6           0        4.310147   -4.526590    0.563867
     41          8           0        4.194029   -5.774775    0.739557
     42          6           0        3.081527   -3.572677    0.245139
     43          6           0        2.223450   -3.950501   -0.892294
     44          8           0        2.581401   -3.800946   -2.065541
     45          8           0        0.983280   -4.318004   -0.450196
     46          6           0       -0.090905   -4.449319   -1.458469
     47          6           0       -3.666513   -2.746418   -0.276723
     48          6           0       -5.070600   -2.286741    0.096514
     49          6           0       -6.243934   -2.856128   -0.340479
     50          6           0       -6.306017   -4.223290   -1.028209
     51          6           0       -7.582974   -2.205944   -0.097134
     52          6           0       -8.174568   -1.414636   -1.316974
     53          6           0       -8.150507    0.113443   -1.171613
     54          6           0       -9.413103    0.704078   -0.599549
     55          6           0      -10.347287    1.295344   -1.704523
     56          6           0       -9.139665    1.752424    0.608330
     57          6           0       -9.899296    1.412355    1.909695
     58          6           0      -10.754708    2.661527    2.537176
     59          6           0      -12.255257    2.312816    2.767861
     60          6           0      -12.741722    3.233816    3.947274
     61          6           0      -13.113814    2.434591    1.515871
     62          6           0      -13.785021    1.078168    1.147379
     63          6           0      -14.783806    1.307261   -0.071141
     64          6           0      -14.485266    0.291044   -1.298264
     65          6           0      -14.583982    1.112395   -2.607383
     66          6           0      -15.395025   -0.924123   -1.441500
     67          1           0        2.509402    3.229306   -0.755323
     68          1           0        9.127709    3.702651   -0.245878
     69          1           0        9.358435   -2.532065    0.778154
     70          1           0        1.455786   -1.182801   -1.555979
     71          1           0        0.930860    1.415989   -0.014023
     72          1           0        0.082543    0.581458   -2.369260
     73          1           0        1.552096    1.333547   -2.962030
     74          1           0        0.233686    2.321181   -2.086124
     75          1           0        1.148061   -0.876483    1.516108
     76          1           0        0.613228   -2.194208    0.410903
     77          1           0       -1.107265   -0.013058   -0.350142
     78          1           0       -0.901375    0.160587    1.372284
     79          1           0        4.215377    6.231604   -1.689395
     80          1           0        3.972165    6.521442    0.057828
     81          1           0        3.073384    5.169449   -0.784420
     82          1           0        5.953734    7.603802    0.168488
     83          1           0        6.319046    7.356054   -1.565241
     84          1           0        7.423116    8.228903   -0.465124
     85          1           0       10.636679    2.023036    1.166502
     86          1           0       10.913449   -0.624195   -0.240157
     87          1           0       12.185614    1.527044   -1.157067
     88          1           0       11.413441    3.082803   -0.759906
     89          1           0       10.652319    1.869051   -1.887820
     90          1           0       10.238414   -1.219423    2.450417
     91          1           0       10.771863    0.372442    2.654779
     92          1           0       12.156499   -1.985106    2.527536
     93          1           0       12.824431   -0.425165    2.739195
     94          1           0       12.702802   -1.153791    1.048943
     95          1           0        7.187322   -5.726504    1.661646
     96          1           0        8.482336   -4.608332    1.835346
     97          1           0        7.983551   -5.145344    0.144826
     98          1           0        2.536890   -3.514688    1.187294
     99          1           0        0.280593   -4.098934   -2.421257
    100          1           0       -0.936814   -3.846212   -1.128160
    101          1           0       -0.428436   -5.485299   -1.474815
    102          1           0       -3.384719   -3.630809    0.294327
    103          1           0       -3.807501   -3.065016   -1.309089
    104          1           0       -5.158657   -1.331459    0.614039
    105          1           0       -5.416819   -4.853314   -1.009430
    106          1           0       -6.546720   -3.929187   -2.049443
    107          1           0       -7.094065   -4.808009   -0.554177
    108          1           0       -7.377982   -1.460837    0.671631
    109          1           0       -8.360478   -2.844567    0.322088
    110          1           0       -9.193329   -1.797509   -1.381991
    111          1           0       -7.663064   -1.779381   -2.207766
    112          1           0       -7.921743    0.599119   -2.120223
    113          1           0       -7.312690    0.413928   -0.542260
    114          1           0      -10.035162   -0.142450   -0.308605
    115          1           0      -11.324383    1.644914   -1.372271
    116          1           0      -10.614449    0.414924   -2.288149
    117          1           0       -9.846953    2.017155   -2.350526
    118          1           0       -9.238321    2.783821    0.271122
    119          1           0       -8.071369    1.651839    0.801098
    120          1           0       -9.109188    1.351680    2.658556
    121          1           0      -10.356012    0.423131    1.928432
    122          1           0      -10.794338    3.569288    1.935469
    123          1           0      -10.282435    2.959668    3.473445
    124          1           0      -12.244781    1.323024    3.223616
    125          1           0      -13.816822    3.415601    3.947779
    126          1           0      -12.257282    4.207252    4.027432
    127          1           0      -12.662833    2.691243    4.889407
    128          1           0      -12.461195    2.692254    0.682174
    129          1           0      -13.886293    3.195292    1.631551
    130          1           0      -14.259206    0.492794    1.935110
    131          1           0      -12.980661    0.407024    0.845521
    132          1           0      -14.733216    2.344427   -0.402845
    133          1           0      -15.774524    1.195760    0.370129
    134          1           0      -13.501079   -0.160815   -1.178414
    135          1           0      -13.764110    0.884481   -3.288729
    136          1           0      -14.755434    2.188413   -2.625761
    137          1           0      -15.389198    0.734869   -3.237092
    138          1           0      -14.957714   -1.594533   -2.181070
    139          1           0      -16.465052   -0.802597   -1.610933
    140          1           0      -15.193143   -1.373139   -0.468483
 ---------------------------------------------------------------------

 SCF Done:  E(RCAM-B3LYP) =  -3007.14988194     A.U. after   19 cycles

 Excitation energies and oscillator strengths:

 Excited State   1:      Singlet-A      1.6572 eV  748.16 nm  f=0.3723  <S**2>=0.000
     245 -> 248        0.17326
     246 -> 247        0.68803
     245 <- 248        0.10892
 This state for optimization and/or second-order correction.
 Total Energy, E(TD-HF/TD-DFT) =  -3007.08898104
 Copying the excited state density for this state as the 1-particle RhoCI density.

 Excited State   2:      Singlet-A      2.1922 eV  565.56 nm  f=0.1452  <S**2>=0.000
     245 -> 247        0.64567
     246 -> 248       -0.27259

 Excited State   3:      Singlet-A      3.2160 eV  385.52 nm  f=0.0006  <S**2>=0.000
     242 -> 247        0.10269
     244 -> 247        0.67025
     246 -> 248        0.13048

 Excited State   4:      Singlet-A      3.4198 eV  362.55 nm  f=0.0077  <S**2>=0.000
     241 -> 247        0.34095
     241 -> 249       -0.22802
     241 -> 251        0.12045
     242 -> 247        0.49459
     246 -> 248        0.17208

 Excited State   5:      Singlet-A      3.5058 eV  353.66 nm  f=0.0070  <S**2>=0.000
     239 -> 247        0.16015
     240 -> 247       -0.17385
     241 -> 247       -0.40170
     241 -> 249        0.23839
     241 -> 251       -0.11688
     242 -> 247        0.40439

 The electronic state is 1-A.
 Alpha  occ. eigenvalues --  -46.88324 -19.26864 -19.25878 -19.19945 -19.19880
 Alpha  occ. eigenvalues --  -19.18547 -19.18090 -14.42100 -14.41822 -14.39657
 Alpha  occ. eigenvalues --  -14.39306 -10.39762 -10.39706 -10.35034 -10.34857
 Alpha  occ. eigenvalues --  -10.32685 -10.32392 -10.31322 -10.31205 -10.30713
 Alpha  occ. eigenvalues --  -10.30627 -10.30625 -10.30600 -10.29595 -10.29053
 Alpha  occ. eigenvalues --  -10.28905 -10.28856 -10.28732 -10.28619 -10.28348
 Alpha  occ. eigenvalues --  -10.28167 -10.27919 -10.27813 -10.27777 -10.27662
 Alpha  occ. eigenvalues --  -10.27581 -10.27499 -10.27321 -10.27142 -10.27014
 Alpha  occ. eigenvalues --  -10.26530 -10.26431 -10.26425 -10.26247 -10.26114
 Alpha  occ. eigenvalues --  -10.26098 -10.26082 -10.26027 -10.26002 -10.25935
 Alpha  occ. eigenvalues --  -10.25911 -10.25897 -10.25490 -10.25309 -10.25250
 Alpha  occ. eigenvalues --  -10.25204 -10.25188 -10.25014 -10.24992 -10.24977
 Alpha  occ. eigenvalues --  -10.24931 -10.24856 -10.24652 -10.24543 -10.24154
 Alpha  occ. eigenvalues --  -10.23886  -3.16904  -1.91789  -1.91337  -1.91239
 Alpha  occ. eigenvalues --   -1.17335  -1.16283  -1.09524  -1.08106  -1.07797
 Alpha  occ. eigenvalues --   -1.06912  -1.04155  -1.02425  -1.01881  -1.00498
 Alpha  occ. eigenvalues --   -0.92155  -0.90615  -0.89516  -0.89072  -0.88682
 Alpha  occ. eigenvalues --   -0.88311  -0.87772  -0.87428  -0.87137  -0.87072
 Alpha  occ. eigenvalues --   -0.86514  -0.85231  -0.84168  -0.83873  -0.83350
 Alpha  occ. eigenvalues --   -0.82462  -0.82283  -0.81662  -0.81064  -0.80683
 Alpha  occ. eigenvalues --   -0.79838  -0.78434  -0.78297  -0.77353  -0.76360
 Alpha  occ. eigenvalues --   -0.76016  -0.75372  -0.75021  -0.74466  -0.74060
 Alpha  occ. eigenvalues --   -0.73495  -0.72896  -0.71485  -0.70791  -0.68955
 Alpha  occ. eigenvalues --   -0.68437  -0.68123  -0.67127  -0.66778  -0.65631
 Alpha  occ. eigenvalues --   -0.65324  -0.65220  -0.64714  -0.64341  -0.63964
 Alpha  occ. eigenvalues --   -0.63739  -0.63502  -0.62615  -0.62291  -0.60180
 Alpha  occ. eigenvalues --   -0.59837  -0.59469  -0.59005  -0.58601  -0.58396
 Alpha  occ. eigenvalues --   -0.57645  -0.57207  -0.56191  -0.55708  -0.55450
 Alpha  occ. eigenvalues --   -0.55057  -0.54863  -0.54684  -0.54036  -0.53654
 Alpha  occ. eigenvalues --   -0.53497  -0.53166  -0.53000  -0.52779  -0.52700
 Alpha  occ. eigenvalues --   -0.52648  -0.52546  -0.52171  -0.52027  -0.51721
 Alpha  occ. eigenvalues --   -0.51499  -0.51392  -0.51130  -0.50840  -0.50529
 Alpha  occ. eigenvalues --   -0.50431  -0.50313  -0.50218  -0.50083  -0.49544
 Alpha  occ. eigenvalues --   -0.49505  -0.49294  -0.49168  -0.48825  -0.48744
 Alpha  occ. eigenvalues --   -0.48698  -0.48512  -0.48210  -0.48077  -0.47973
 Alpha  occ. eigenvalues --   -0.47421  -0.47316  -0.46929  -0.46780  -0.46725
 Alpha  occ. eigenvalues --   -0.46442  -0.46125  -0.46084  -0.46000  -0.45875
 Alpha  occ. eigenvalues --   -0.45587  -0.45408  -0.45238  -0.45177  -0.44701
 Alpha  occ. eigenvalues --   -0.44581  -0.44380  -0.44272  -0.44180  -0.44055
 Alpha  occ. eigenvalues --   -0.43720  -0.43610  -0.43493  -0.43096  -0.42887
 Alpha  occ. eigenvalues --   -0.42630  -0.42432  -0.42373  -0.42263  -0.42179
 Alpha  occ. eigenvalues --   -0.42038  -0.41752  -0.41453  -0.41362  -0.41103
 Alpha  occ. eigenvalues --   -0.41043  -0.40773  -0.40699  -0.40492  -0.40289
 Alpha  occ. eigenvalues --   -0.39951  -0.39537  -0.39520  -0.39123  -0.39003
 Alpha  occ. eigenvalues --   -0.38461  -0.38371  -0.37838  -0.37766  -0.37670
 Alpha  occ. eigenvalues --   -0.37419  -0.37019  -0.36901  -0.36422  -0.36406
 Alpha  occ. eigenvalues --   -0.36277  -0.34983  -0.34583  -0.34451  -0.34443
 Alpha  occ. eigenvalues --   -0.34247  -0.33952  -0.32929  -0.31211  -0.30637
 Alpha  occ. eigenvalues --   -0.30564  -0.29743  -0.29503  -0.29473  -0.24046
 Alpha  occ. eigenvalues --   -0.21163
 Alpha virt. eigenvalues --   -0.08966  -0.01528   0.00402   0.02406   0.02498
 Alpha virt. eigenvalues --    0.04076   0.04491   0.05208   0.05770   0.06878
 Alpha virt. eigenvalues --    0.07655   0.08101   0.08414   0.08677   0.08895

 Mulliken charges:
               1
     1  Mg   0.828862
     2  C   -0.045386
     3  C   -0.049124
     4  C   -0.024359
     5  C   -0.118229
     6  N   -0.277810
     7  C   -0.035989
     8  C   -0.042507
     9  C   -0.086958
    10  C    0.003440
    11  C    0.066968
    12  C    0.040558
    13  C    0.095431
    14  C    0.129579
    15  O   -0.241421
    16  O   -0.320864
    17  N   -0.390855
    18  C    0.176152
    19  C   -0.175048
    20  C   -0.013249
    21  C    0.155603
    22  C    0.135744
    23  C    0.001757
    24  O   -0.227583
    25  C    0.061695
    26  N   -0.326820
    27  C   -0.008804
    28  C   -0.019323
    29  C   -0.015022
    30  C    0.059001
    31  C    0.052939
    32  C    0.006312
    33  C    0.029152
    34  N   -0.394561
    35  C    0.151839
    36  C   -0.152929
    37  C   -0.015107
    38  C    0.137604
    39  C    0.118106
    40  C    0.082006
    41  O   -0.214062
    42  C   -0.004215
    43  C    0.215743
    44  O   -0.229297
    45  O   -0.332408
    46  C    0.165985
    47  C    0.257705
    48  C   -0.093492
    49  C   -0.196683
    50  C    0.077931
    51  C    0.060045
    52  C    0.019989
    53  C    0.077829
    54  C   -0.138910
    55  C    0.029741
    56  C    0.069994
    57  C    0.026473
    58  C    0.015687
    59  C   -0.118341
    60  C    0.025789
    61  C    0.086577
    62  C   -0.037228
    63  C    0.047025
    64  C   -0.131190
    65  C    0.031132
    66  C    0.045696
    67  H   -0.034009
    68  H   -0.014571
    69  H   -0.025984
    70  H    0.032002
    71  H    0.013831
    72  H    0.019081
    73  H    0.031827
    74  H    0.026714
    75  H    0.019804
    76  H    0.044702
    77  H    0.015651
    78  H    0.034885
    79  H    0.029275
    80  H    0.040214
    81  H    0.006334
    82  H    0.015339
    83  H    0.038597
    84  H    0.034496
    85  H    0.021743
    86  H    0.004614
    87  H    0.019176
    88  H    0.039433
    89  H    0.026454
    90  H    0.005097
    91  H   -0.002379
    92  H    0.003520
    93  H    0.011676
    94  H    0.022200
    95  H    0.040440
    96  H    0.016004
    97  H    0.049481
    98  H    0.053358
    99  H    0.056846
   100  H    0.026403
   101  H    0.049279
   102  H    0.059927
   103  H    0.020515
   104  H   -0.004781
   105  H    0.013281
   106  H    0.023954
   107  H    0.026234
   108  H   -0.004663
   109  H    0.003128
   110  H   -0.003283
   111  H   -0.003890
   112  H   -0.011747
   113  H   -0.012679
   114  H   -0.008328
   115  H    0.016991
   116  H   -0.006218
   117  H    0.011886
   118  H   -0.002349
   119  H   -0.016675
   120  H   -0.005629
   121  H    0.009591
   122  H   -0.002456
   123  H   -0.002353
   124  H   -0.005206
   125  H   -0.009272
   126  H    0.012108
   127  H   -0.000764
   128  H   -0.000539
   129  H    0.003730
   130  H    0.002088
   131  H   -0.008691
   132  H    0.005059
   133  H   -0.000286
   134  H    0.002106
   135  H   -0.004193
   136  H    0.011727
   137  H   -0.013098
   138  H    0.008024
   139  H    0.022073
   140  H   -0.005170
 Sum of Mulliken charges =  -0.00000

 Dipole moment (field-independent basis, Debye):
    X=             -2.9077    Y=              3.8334    Z=              0.6390  Tot=              4.8536
 Quadrupole moment (field-independent basis, Debye-Ang):
   XX=           -379.3147   YY=           -422.0539   ZZ=           -411.8960
   XY=              8.2251   XZ=             27.6453   YZ=              8.9381

 Normal termination of Gaussian 16 at Wed May  4 19:51:12 2022.
