 Gaussian 16, Revision A.03,
 Gaussian 16:  ES64L-G16RevA.03 25-Dec-2016

 ---------------------------------
 #p PBE1PBE/Def2SVP td=(nstates=5)
 ---------------------------------

 ----------------------------------------------------
 step_401_chromophore_4 TDDFT with PBE1PBE functional
 ----------------------------------------------------
 Symbolic Z-matrix:
 Charge =  0 Multiplicity = 1

                         Standard orientation:
 ---------------------------------------------------------------------
 Center     Atomic      Atomic             Coordinates (Angstroms)
 Number     Number       Type             X           Y           Z
 ---------------------------------------------------------------------
      1         12           0        6.003837    0.393844    0.155924
      2          6           0        3.651925   -2.181347   -0.021814
      3          6           0        3.411488    2.630062   -0.610130
      4          6           0        8.304637    2.985816   -0.207218
      5          6           0        8.543987   -1.879715    0.457489
      6          7           0        3.803956    0.184013   -0.479447
      7          6           0        3.018613   -0.959273   -0.292647
      8          6           0        1.565176   -0.658381   -0.606918
      9          6           0        1.488411    0.938481   -0.819229
     10          6           0        3.030322    1.294052   -0.613342
     11          6           0        0.790771    1.390033   -2.183820
     12          6           0        0.633181   -1.118813    0.586375
     13          6           0       -0.791618   -0.543639    0.548131
     14          6           0       -1.882371   -1.596924    0.698407
     15          8           0       -1.964690   -2.305912    1.703151
     16          8           0       -2.769070   -1.588019   -0.344833
     17          7           0        5.867743    2.518917   -0.223613
     18          6           0        4.671770    3.254974   -0.410015
     19          6           0        5.011798    4.659965   -0.520746
     20          6           0        6.438660    4.776063   -0.378596
     21          6           0        6.958640    3.408714   -0.213912
     22          6           0        3.981990    5.769003   -0.730982
     23          6           0        7.282563    6.025610   -0.538092
     24          8           0        8.465103    5.964553   -0.871857
     25          6           0        6.736539    7.387959   -0.558753
     26          7           0        8.106289    0.585753    0.139399
     27          6           0        8.857769    1.736712   -0.002585
     28          6           0       10.372473    1.501962    0.246198
     29          6           0       10.370079   -0.061765    0.519541
     30          6           0        8.918708   -0.540003    0.279519
     31          6           0       11.235832    2.031600   -0.981510
     32          6           0       10.871560   -0.471921    1.971932
     33          6           0       12.247349   -1.019080    2.029956
     34          7           0        6.211727   -1.568092    0.212967
     35          6           0        7.270959   -2.386568    0.469410
     36          6           0        6.874030   -3.720215    0.810214
     37          6           0        5.476136   -3.674153    0.551466
     38          6           0        5.112550   -2.359826    0.170401
     39          6           0        7.674503   -4.891022    1.159374
     40          6           0        4.310147   -4.526590    0.563867
     41          8           0        4.194029   -5.774775    0.739557
     42          6           0        3.081527   -3.572677    0.245139
     43          6           0        2.223450   -3.950501   -0.892294
     44          8           0        2.581401   -3.800946   -2.065541
     45          8           0        0.983280   -4.318004   -0.450196
     46          6           0       -0.090905   -4.449319   -1.458469
     47          6           0       -3.666513   -2.746418   -0.276723
     48          6           0       -5.070600   -2.286741    0.096514
     49          6           0       -6.243934   -2.856128   -0.340479
     50          6           0       -6.306017   -4.223290   -1.028209
     51          6           0       -7.582974   -2.205944   -0.097134
     52          6           0       -8.174568   -1.414636   -1.316974
     53          6           0       -8.150507    0.113443   -1.171613
     54          6           0       -9.413103    0.704078   -0.599549
     55          6           0      -10.347287    1.295344   -1.704523
     56          6           0       -9.139665    1.752424    0.608330
     57          6           0       -9.899296    1.412355    1.909695
     58          6           0      -10.754708    2.661527    2.537176
     59          6           0      -12.255257    2.312816    2.767861
     60          6           0      -12.741722    3.233816    3.947274
     61          6           0      -13.113814    2.434591    1.515871
     62          6           0      -13.785021    1.078168    1.147379
     63          6           0      -14.783806    1.307261   -0.071141
     64          6           0      -14.485266    0.291044   -1.298264
     65          6           0      -14.583982    1.112395   -2.607383
     66          6           0      -15.395025   -0.924123   -1.441500
     67          1           0        2.509402    3.229306   -0.755323
     68          1           0        9.127709    3.702651   -0.245878
     69          1           0        9.358435   -2.532065    0.778154
     70          1           0        1.455786   -1.182801   -1.555979
     71          1           0        0.930860    1.415989   -0.014023
     72          1           0        0.082543    0.581458   -2.369260
     73          1           0        1.552096    1.333547   -2.962030
     74          1           0        0.233686    2.321181   -2.086124
     75          1           0        1.148061   -0.876483    1.516108
     76          1           0        0.613228   -2.194208    0.410903
     77          1           0       -1.107265   -0.013058   -0.350142
     78          1           0       -0.901375    0.160587    1.372284
     79          1           0        4.215377    6.231604   -1.689395
     80          1           0        3.972165    6.521442    0.057828
     81          1           0        3.073384    5.169449   -0.784420
     82          1           0        5.953734    7.603802    0.168488
     83          1           0        6.319046    7.356054   -1.565241
     84          1           0        7.423116    8.228903   -0.465124
     85          1           0       10.636679    2.023036    1.166502
     86          1           0       10.913449   -0.624195   -0.240157
     87          1           0       12.185614    1.527044   -1.157067
     88          1           0       11.413441    3.082803   -0.759906
     89          1           0       10.652319    1.869051   -1.887820
     90          1           0       10.238414   -1.219423    2.450417
     91          1           0       10.771863    0.372442    2.654779
     92          1           0       12.156499   -1.985106    2.527536
     93          1           0       12.824431   -0.425165    2.739195
     94          1           0       12.702802   -1.153791    1.048943
     95          1           0        7.187322   -5.726504    1.661646
     96          1           0        8.482336   -4.608332    1.835346
     97          1           0        7.983551   -5.145344    0.144826
     98          1           0        2.536890   -3.514688    1.187294
     99          1           0        0.280593   -4.098934   -2.421257
    100          1           0       -0.936814   -3.846212   -1.128160
    101          1           0       -0.428436   -5.485299   -1.474815
    102          1           0       -3.384719   -3.630809    0.294327
    103          1           0       -3.807501   -3.065016   -1.309089
    104          1           0       -5.158657   -1.331459    0.614039
    105          1           0       -5.416819   -4.853314   -1.009430
    106          1           0       -6.546720   -3.929187   -2.049443
    107          1           0       -7.094065   -4.808009   -0.554177
    108          1           0       -7.377982   -1.460837    0.671631
    109          1           0       -8.360478   -2.844567    0.322088
    110          1           0       -9.193329   -1.797509   -1.381991
    111          1           0       -7.663064   -1.779381   -2.207766
    112          1           0       -7.921743    0.599119   -2.120223
    113          1           0       -7.312690    0.413928   -0.542260
    114          1           0      -10.035162   -0.142450   -0.308605
    115          1           0      -11.324383    1.644914   -1.372271
    116          1           0      -10.614449    0.414924   -2.288149
    117          1           0       -9.846953    2.017155   -2.350526
    118          1           0       -9.238321    2.783821    0.271122
    119          1           0       -8.071369    1.651839    0.801098
    120          1           0       -9.109188    1.351680    2.658556
    121          1           0      -10.356012    0.423131    1.928432
    122          1           0      -10.794338    3.569288    1.935469
    123          1           0      -10.282435    2.959668    3.473445
    124          1           0      -12.244781    1.323024    3.223616
    125          1           0      -13.816822    3.415601    3.947779
    126          1           0      -12.257282    4.207252    4.027432
    127          1           0      -12.662833    2.691243    4.889407
    128          1           0      -12.461195    2.692254    0.682174
    129          1           0      -13.886293    3.195292    1.631551
    130          1           0      -14.259206    0.492794    1.935110
    131          1           0      -12.980661    0.407024    0.845521
    132          1           0      -14.733216    2.344427   -0.402845
    133          1           0      -15.774524    1.195760    0.370129
    134          1           0      -13.501079   -0.160815   -1.178414
    135          1           0      -13.764110    0.884481   -3.288729
    136          1           0      -14.755434    2.188413   -2.625761
    137          1           0      -15.389198    0.734869   -3.237092
    138          1           0      -14.957714   -1.594533   -2.181070
    139          1           0      -16.465052   -0.802597   -1.610933
    140          1           0      -15.193143   -1.373139   -0.468483
 ---------------------------------------------------------------------

 SCF Done:  E(RPBE1PBE) =  -3005.33897461     A.U. after   16 cycles

 Excitation energies and oscillator strengths:

 Excited State   1:      Singlet-A      1.8158 eV  682.79 nm  f=0.3566  <S**2>=0.000
     245 -> 248        0.16716
     246 -> 247        0.69567
     246 <- 247       -0.11402
 This state for optimization and/or second-order correction.
 Total Energy, E(TD-HF/TD-DFT) =  -3005.27224368
 Copying the excited state density for this state as the 1-particle RhoCI density.

 Excited State   2:      Singlet-A      2.2041 eV  562.51 nm  f=0.1383  <S**2>=0.000
     245 -> 247        0.65452
     246 -> 248       -0.25144

 Excited State   3:      Singlet-A      2.8683 eV  432.26 nm  f=0.0050  <S**2>=0.000
     241 -> 247        0.11858
     243 -> 247        0.67755

 Excited State   4:      Singlet-A      2.9357 eV  422.33 nm  f=0.0006  <S**2>=0.000
     240 -> 247       -0.26567
     241 -> 249        0.10958
     242 -> 247        0.61531

 Excited State   5:      Singlet-A      2.9844 eV  415.44 nm  f=0.0010  <S**2>=0.000
     240 -> 247        0.21752
     241 -> 247        0.60470
     242 -> 247        0.20017
     243 -> 247       -0.11631

 The electronic state is 1-A.
 Alpha  occ. eigenvalues --  -46.91745 -19.27584 -19.26545 -19.20263 -19.20145
 Alpha  occ. eigenvalues --  -19.18950 -19.18214 -14.41645 -14.41352 -14.39311
 Alpha  occ. eigenvalues --  -14.39046 -10.36844 -10.36717 -10.32300 -10.31877
 Alpha  occ. eigenvalues --  -10.30127 -10.29605 -10.29154 -10.28813 -10.28503
 Alpha  occ. eigenvalues --  -10.28288 -10.28276 -10.28161 -10.27449 -10.26929
 Alpha  occ. eigenvalues --  -10.26721 -10.26663 -10.26472 -10.26383 -10.26171
 Alpha  occ. eigenvalues --  -10.25848 -10.25630 -10.25575 -10.25441 -10.25429
 Alpha  occ. eigenvalues --  -10.25251 -10.25055 -10.24762 -10.24635 -10.24469
 Alpha  occ. eigenvalues --  -10.24180 -10.24103 -10.23825 -10.23813 -10.23690
 Alpha  occ. eigenvalues --  -10.23631 -10.23628 -10.23608 -10.23599 -10.23496
 Alpha  occ. eigenvalues --  -10.23480 -10.23259 -10.23065 -10.23005 -10.22904
 Alpha  occ. eigenvalues --  -10.22844 -10.22784 -10.22778 -10.22561 -10.22492
 Alpha  occ. eigenvalues --  -10.22423 -10.22385 -10.22036 -10.21919 -10.21567
 Alpha  occ. eigenvalues --  -10.21283  -3.13905  -1.86730  -1.86256  -1.86163
 Alpha  occ. eigenvalues --   -1.12186  -1.11051  -1.04150  -1.02989  -1.02609
 Alpha  occ. eigenvalues --   -1.01752  -0.98964  -0.97013  -0.96458  -0.95042
 Alpha  occ. eigenvalues --   -0.86562  -0.84734  -0.83707  -0.83155  -0.82993
 Alpha  occ. eigenvalues --   -0.82436  -0.82085  -0.81811  -0.81408  -0.81224
 Alpha  occ. eigenvalues --   -0.80672  -0.79473  -0.78491  -0.78085  -0.77580
 Alpha  occ. eigenvalues --   -0.76680  -0.76426  -0.75910  -0.75295  -0.74969
 Alpha  occ. eigenvalues --   -0.74005  -0.72778  -0.72545  -0.71680  -0.70702
 Alpha  occ. eigenvalues --   -0.70183  -0.69461  -0.69372  -0.68594  -0.68239
 Alpha  occ. eigenvalues --   -0.67825  -0.67335  -0.65863  -0.65142  -0.63439
 Alpha  occ. eigenvalues --   -0.62739  -0.62491  -0.61504  -0.61020  -0.60000
 Alpha  occ. eigenvalues --   -0.59762  -0.59545  -0.59232  -0.58959  -0.58284
 Alpha  occ. eigenvalues --   -0.58007  -0.57713  -0.56901  -0.56807  -0.54528
 Alpha  occ. eigenvalues --   -0.54357  -0.54029  -0.53602  -0.53069  -0.52898
 Alpha  occ. eigenvalues --   -0.52151  -0.51776  -0.50779  -0.50263  -0.50036
 Alpha  occ. eigenvalues --   -0.49578  -0.49419  -0.49243  -0.48565  -0.48079
 Alpha  occ. eigenvalues --   -0.47938  -0.47755  -0.47563  -0.47299  -0.47143
 Alpha  occ. eigenvalues --   -0.47082  -0.47065  -0.46683  -0.46581  -0.46205
 Alpha  occ. eigenvalues --   -0.46119  -0.45926  -0.45697  -0.45512  -0.45082
 Alpha  occ. eigenvalues --   -0.45024  -0.44835  -0.44742  -0.44646  -0.44205
 Alpha  occ. eigenvalues --   -0.44098  -0.43851  -0.43775  -0.43410  -0.43326
 Alpha  occ. eigenvalues --   -0.43257  -0.43206  -0.42805  -0.42721  -0.42648
 Alpha  occ. eigenvalues --   -0.42113  -0.42050  -0.41533  -0.41445  -0.41333
 Alpha  occ. eigenvalues --   -0.41199  -0.40854  -0.40718  -0.40673  -0.40570
 Alpha  occ. eigenvalues --   -0.40357  -0.40125  -0.39967  -0.39834  -0.39503
 Alpha  occ. eigenvalues --   -0.39224  -0.39179  -0.39029  -0.38930  -0.38830
 Alpha  occ. eigenvalues --   -0.38451  -0.38419  -0.38142  -0.37872  -0.37700
 Alpha  occ. eigenvalues --   -0.37460  -0.37270  -0.37169  -0.37105  -0.37000
 Alpha  occ. eigenvalues --   -0.36795  -0.36517  -0.36377  -0.36253  -0.35927
 Alpha  occ. eigenvalues --   -0.35850  -0.35635  -0.35610  -0.35368  -0.35034
 Alpha  occ. eigenvalues --   -0.34721  -0.34505  -0.34294  -0.33913  -0.33856
 Alpha  occ. eigenvalues --   -0.33394  -0.33105  -0.32769  -0.32667  -0.32579
 Alpha  occ. eigenvalues --   -0.32316  -0.32064  -0.31865  -0.31453  -0.31349
 Alpha  occ. eigenvalues --   -0.31214  -0.29921  -0.29670  -0.29416  -0.29332
 Alpha  occ. eigenvalues --   -0.29243  -0.28861  -0.28496  -0.26863  -0.25683
 Alpha  occ. eigenvalues --   -0.25454  -0.25303  -0.24885  -0.24820  -0.20990
 Alpha  occ. eigenvalues --   -0.18796
 Alpha virt. eigenvalues --   -0.11383  -0.05063  -0.03858  -0.01903  -0.00501
 Alpha virt. eigenvalues --   -0.00371  -0.00105   0.00805   0.01270   0.03118
 Alpha virt. eigenvalues --    0.04330   0.04390   0.04639   0.05171   0.05341

 Mulliken charges:
               1
     1  Mg   0.977378
     2  C   -0.049754
     3  C   -0.051913
     4  C   -0.021059
     5  C   -0.104828
     6  N   -0.376367
     7  C    0.033661
     8  C   -0.118165
     9  C   -0.156896
    10  C    0.044878
    11  C    0.005461
    12  C   -0.016656
    13  C    0.017374
    14  C    0.196622
    15  O   -0.271271
    16  O   -0.351142
    17  N   -0.495887
    18  C    0.200908
    19  C   -0.198191
    20  C   -0.065310
    21  C    0.186942
    22  C    0.071280
    23  C    0.046725
    24  O   -0.261654
    25  C   -0.009653
    26  N   -0.429075
    27  C    0.029268
    28  C   -0.097735
    29  C   -0.088072
    30  C    0.100039
    31  C   -0.005832
    32  C   -0.052536
    33  C   -0.042535
    34  N   -0.525345
    35  C    0.162121
    36  C   -0.164825
    37  C   -0.070184
    38  C    0.190930
    39  C    0.063628
    40  C    0.176935
    41  O   -0.257930
    42  C   -0.109564
    43  C    0.301459
    44  O   -0.263608
    45  O   -0.365670
    46  C    0.106121
    47  C    0.203893
    48  C   -0.095408
    49  C   -0.241369
    50  C    0.015763
    51  C   -0.001680
    52  C   -0.044733
    53  C    0.023455
    54  C   -0.221895
    55  C   -0.035241
    56  C    0.017686
    57  C   -0.038814
    58  C   -0.035823
    59  C   -0.203538
    60  C   -0.032746
    61  C    0.026033
    62  C   -0.099350
    63  C   -0.003479
    64  C   -0.226484
    65  C   -0.027335
    66  C   -0.018790
    67  H   -0.001359
    68  H    0.018057
    69  H    0.006106
    70  H    0.069455
    71  H    0.051174
    72  H    0.046397
    73  H    0.060081
    74  H    0.052830
    75  H    0.051717
    76  H    0.088345
    77  H    0.049606
    78  H    0.067295
    79  H    0.057378
    80  H    0.066577
    81  H    0.037459
    82  H    0.041291
    83  H    0.066259
    84  H    0.060863
    85  H    0.058161
    86  H    0.042092
    87  H    0.046848
    88  H    0.065834
    89  H    0.054413
    90  H    0.037680
    91  H    0.030462
    92  H    0.031352
    93  H    0.039978
    94  H    0.048727
    95  H    0.067422
    96  H    0.042963
    97  H    0.078454
    98  H    0.090146
    99  H    0.076378
   100  H    0.056255
   101  H    0.070706
   102  H    0.085291
   103  H    0.049145
   104  H    0.024519
   105  H    0.039740
   106  H    0.052087
   107  H    0.053483
   108  H    0.029514
   109  H    0.034259
   110  H    0.028688
   111  H    0.029621
   112  H    0.021018
   113  H    0.019760
   114  H    0.029879
   115  H    0.050707
   116  H    0.022875
   117  H    0.039062
   118  H    0.028342
   119  H    0.015744
   120  H    0.029025
   121  H    0.037993
   122  H    0.028834
   123  H    0.029758
   124  H    0.032908
   125  H    0.019026
   126  H    0.038668
   127  H    0.027505
   128  H    0.035995
   129  H    0.035526
   130  H    0.033007
   131  H    0.026107
   132  H    0.035977
   133  H    0.032153
   134  H    0.039217
   135  H    0.023663
   136  H    0.037524
   137  H    0.014945
   138  H    0.036861
   139  H    0.048637
   140  H    0.025321
 Sum of Mulliken charges =  -0.00000

 Dipole moment (field-independent basis, Debye):
    X=             -2.8241    Y=              3.5226    Z=              0.6839  Tot=              4.5664
 Quadrupole moment (field-independent basis, Debye-Ang):
   XX=           -372.5581   YY=           -419.7797   ZZ=           -409.3574
   XY=              5.8064   XZ=             28.5455   YZ=              8.7300

 Normal termination of Gaussian 16 at Wed May  4 20:13:13 2022.
