 Gaussian 16, Revision A.03,
 Gaussian 16:  ES64L-G16RevA.03 25-Dec-2016

 --------------------------------
 #p wB97XD/Def2SVP td=(nstates=5)
 --------------------------------

 ---------------------------------------------------
 step_401_chromophore_4 TDDFT with wB97XD functional
 ---------------------------------------------------
 Symbolic Z-matrix:
 Charge =  0 Multiplicity = 1

                         Standard orientation:
 ---------------------------------------------------------------------
 Center     Atomic      Atomic             Coordinates (Angstroms)
 Number     Number       Type             X           Y           Z
 ---------------------------------------------------------------------
      1         12           0        6.003837    0.393844    0.155924
      2          6           0        3.651925   -2.181347   -0.021814
      3          6           0        3.411488    2.630062   -0.610130
      4          6           0        8.304637    2.985816   -0.207218
      5          6           0        8.543987   -1.879715    0.457489
      6          7           0        3.803956    0.184013   -0.479447
      7          6           0        3.018613   -0.959273   -0.292647
      8          6           0        1.565176   -0.658381   -0.606918
      9          6           0        1.488411    0.938481   -0.819229
     10          6           0        3.030322    1.294052   -0.613342
     11          6           0        0.790771    1.390033   -2.183820
     12          6           0        0.633181   -1.118813    0.586375
     13          6           0       -0.791618   -0.543639    0.548131
     14          6           0       -1.882371   -1.596924    0.698407
     15          8           0       -1.964690   -2.305912    1.703151
     16          8           0       -2.769070   -1.588019   -0.344833
     17          7           0        5.867743    2.518917   -0.223613
     18          6           0        4.671770    3.254974   -0.410015
     19          6           0        5.011798    4.659965   -0.520746
     20          6           0        6.438660    4.776063   -0.378596
     21          6           0        6.958640    3.408714   -0.213912
     22          6           0        3.981990    5.769003   -0.730982
     23          6           0        7.282563    6.025610   -0.538092
     24          8           0        8.465103    5.964553   -0.871857
     25          6           0        6.736539    7.387959   -0.558753
     26          7           0        8.106289    0.585753    0.139399
     27          6           0        8.857769    1.736712   -0.002585
     28          6           0       10.372473    1.501962    0.246198
     29          6           0       10.370079   -0.061765    0.519541
     30          6           0        8.918708   -0.540003    0.279519
     31          6           0       11.235832    2.031600   -0.981510
     32          6           0       10.871560   -0.471921    1.971932
     33          6           0       12.247349   -1.019080    2.029956
     34          7           0        6.211727   -1.568092    0.212967
     35          6           0        7.270959   -2.386568    0.469410
     36          6           0        6.874030   -3.720215    0.810214
     37          6           0        5.476136   -3.674153    0.551466
     38          6           0        5.112550   -2.359826    0.170401
     39          6           0        7.674503   -4.891022    1.159374
     40          6           0        4.310147   -4.526590    0.563867
     41          8           0        4.194029   -5.774775    0.739557
     42          6           0        3.081527   -3.572677    0.245139
     43          6           0        2.223450   -3.950501   -0.892294
     44          8           0        2.581401   -3.800946   -2.065541
     45          8           0        0.983280   -4.318004   -0.450196
     46          6           0       -0.090905   -4.449319   -1.458469
     47          6           0       -3.666513   -2.746418   -0.276723
     48          6           0       -5.070600   -2.286741    0.096514
     49          6           0       -6.243934   -2.856128   -0.340479
     50          6           0       -6.306017   -4.223290   -1.028209
     51          6           0       -7.582974   -2.205944   -0.097134
     52          6           0       -8.174568   -1.414636   -1.316974
     53          6           0       -8.150507    0.113443   -1.171613
     54          6           0       -9.413103    0.704078   -0.599549
     55          6           0      -10.347287    1.295344   -1.704523
     56          6           0       -9.139665    1.752424    0.608330
     57          6           0       -9.899296    1.412355    1.909695
     58          6           0      -10.754708    2.661527    2.537176
     59          6           0      -12.255257    2.312816    2.767861
     60          6           0      -12.741722    3.233816    3.947274
     61          6           0      -13.113814    2.434591    1.515871
     62          6           0      -13.785021    1.078168    1.147379
     63          6           0      -14.783806    1.307261   -0.071141
     64          6           0      -14.485266    0.291044   -1.298264
     65          6           0      -14.583982    1.112395   -2.607383
     66          6           0      -15.395025   -0.924123   -1.441500
     67          1           0        2.509402    3.229306   -0.755323
     68          1           0        9.127709    3.702651   -0.245878
     69          1           0        9.358435   -2.532065    0.778154
     70          1           0        1.455786   -1.182801   -1.555979
     71          1           0        0.930860    1.415989   -0.014023
     72          1           0        0.082543    0.581458   -2.369260
     73          1           0        1.552096    1.333547   -2.962030
     74          1           0        0.233686    2.321181   -2.086124
     75          1           0        1.148061   -0.876483    1.516108
     76          1           0        0.613228   -2.194208    0.410903
     77          1           0       -1.107265   -0.013058   -0.350142
     78          1           0       -0.901375    0.160587    1.372284
     79          1           0        4.215377    6.231604   -1.689395
     80          1           0        3.972165    6.521442    0.057828
     81          1           0        3.073384    5.169449   -0.784420
     82          1           0        5.953734    7.603802    0.168488
     83          1           0        6.319046    7.356054   -1.565241
     84          1           0        7.423116    8.228903   -0.465124
     85          1           0       10.636679    2.023036    1.166502
     86          1           0       10.913449   -0.624195   -0.240157
     87          1           0       12.185614    1.527044   -1.157067
     88          1           0       11.413441    3.082803   -0.759906
     89          1           0       10.652319    1.869051   -1.887820
     90          1           0       10.238414   -1.219423    2.450417
     91          1           0       10.771863    0.372442    2.654779
     92          1           0       12.156499   -1.985106    2.527536
     93          1           0       12.824431   -0.425165    2.739195
     94          1           0       12.702802   -1.153791    1.048943
     95          1           0        7.187322   -5.726504    1.661646
     96          1           0        8.482336   -4.608332    1.835346
     97          1           0        7.983551   -5.145344    0.144826
     98          1           0        2.536890   -3.514688    1.187294
     99          1           0        0.280593   -4.098934   -2.421257
    100          1           0       -0.936814   -3.846212   -1.128160
    101          1           0       -0.428436   -5.485299   -1.474815
    102          1           0       -3.384719   -3.630809    0.294327
    103          1           0       -3.807501   -3.065016   -1.309089
    104          1           0       -5.158657   -1.331459    0.614039
    105          1           0       -5.416819   -4.853314   -1.009430
    106          1           0       -6.546720   -3.929187   -2.049443
    107          1           0       -7.094065   -4.808009   -0.554177
    108          1           0       -7.377982   -1.460837    0.671631
    109          1           0       -8.360478   -2.844567    0.322088
    110          1           0       -9.193329   -1.797509   -1.381991
    111          1           0       -7.663064   -1.779381   -2.207766
    112          1           0       -7.921743    0.599119   -2.120223
    113          1           0       -7.312690    0.413928   -0.542260
    114          1           0      -10.035162   -0.142450   -0.308605
    115          1           0      -11.324383    1.644914   -1.372271
    116          1           0      -10.614449    0.414924   -2.288149
    117          1           0       -9.846953    2.017155   -2.350526
    118          1           0       -9.238321    2.783821    0.271122
    119          1           0       -8.071369    1.651839    0.801098
    120          1           0       -9.109188    1.351680    2.658556
    121          1           0      -10.356012    0.423131    1.928432
    122          1           0      -10.794338    3.569288    1.935469
    123          1           0      -10.282435    2.959668    3.473445
    124          1           0      -12.244781    1.323024    3.223616
    125          1           0      -13.816822    3.415601    3.947779
    126          1           0      -12.257282    4.207252    4.027432
    127          1           0      -12.662833    2.691243    4.889407
    128          1           0      -12.461195    2.692254    0.682174
    129          1           0      -13.886293    3.195292    1.631551
    130          1           0      -14.259206    0.492794    1.935110
    131          1           0      -12.980661    0.407024    0.845521
    132          1           0      -14.733216    2.344427   -0.402845
    133          1           0      -15.774524    1.195760    0.370129
    134          1           0      -13.501079   -0.160815   -1.178414
    135          1           0      -13.764110    0.884481   -3.288729
    136          1           0      -14.755434    2.188413   -2.625761
    137          1           0      -15.389198    0.734869   -3.237092
    138          1           0      -14.957714   -1.594533   -2.181070
    139          1           0      -16.465052   -0.802597   -1.610933
    140          1           0      -15.193143   -1.373139   -0.468483
 ---------------------------------------------------------------------

 SCF Done:  E(RwB97XD) =  -3007.85070025     A.U. after   19 cycles

 Excitation energies and oscillator strengths:

 Excited State   1:      Singlet-A      1.6006 eV  774.63 nm  f=0.3718  <S**2>=0.000
     245 -> 248        0.17885
     246 -> 247        0.68584
     245 <- 248        0.11814
 This state for optimization and/or second-order correction.
 Total Energy, E(TD-HF/TD-DFT) =  -3007.79188056
 Copying the excited state density for this state as the 1-particle RhoCI density.

 Excited State   2:      Singlet-A      2.1352 eV  580.66 nm  f=0.1414  <S**2>=0.000
     245 -> 247        0.64342
     246 -> 248       -0.27498

 Excited State   3:      Singlet-A      3.2291 eV  383.96 nm  f=0.0009  <S**2>=0.000
     240 -> 247        0.11196
     242 -> 247        0.16502
     243 -> 247        0.64652
     246 -> 248        0.14526

 Excited State   4:      Singlet-A      3.4565 eV  358.70 nm  f=0.0200  <S**2>=0.000
     241 -> 247        0.27534
     241 -> 249       -0.22367
     241 -> 250        0.12082
     242 -> 247        0.49352
     243 -> 247       -0.16904
     246 -> 248        0.21141

 Excited State   5:      Singlet-A      3.5398 eV  350.26 nm  f=0.0013  <S**2>=0.000
     240 -> 247        0.45314
     240 -> 248        0.11747
     240 -> 249        0.21235
     240 -> 250        0.22068
     241 -> 247        0.26243
     241 -> 249       -0.17947
     242 -> 247       -0.20162

 The electronic state is 1-A.
 Alpha  occ. eigenvalues --  -46.94678 -19.32128 -19.31084 -19.24933 -19.24815
 Alpha  occ. eigenvalues --  -19.23615 -19.23157 -14.46705 -14.46449 -14.44325
 Alpha  occ. eigenvalues --  -14.43893 -10.43617 -10.43530 -10.39063 -10.38846
 Alpha  occ. eigenvalues --  -10.36610 -10.36119 -10.35351 -10.35271 -10.34818
 Alpha  occ. eigenvalues --  -10.34744 -10.34684 -10.34584 -10.33599 -10.33058
 Alpha  occ. eigenvalues --  -10.33009 -10.32996 -10.32870 -10.32696 -10.32406
 Alpha  occ. eigenvalues --  -10.32191 -10.31893 -10.31874 -10.31789 -10.31709
 Alpha  occ. eigenvalues --  -10.31655 -10.31597 -10.31296 -10.31213 -10.30903
 Alpha  occ. eigenvalues --  -10.30536 -10.30387 -10.30273 -10.30200 -10.30097
 Alpha  occ. eigenvalues --  -10.29990 -10.29965 -10.29941 -10.29918 -10.29901
 Alpha  occ. eigenvalues --  -10.29870 -10.29836 -10.29428 -10.29288 -10.29199
 Alpha  occ. eigenvalues --  -10.29145 -10.29130 -10.29017 -10.28929 -10.28857
 Alpha  occ. eigenvalues --  -10.28775 -10.28763 -10.28481 -10.28355 -10.27990
 Alpha  occ. eigenvalues --  -10.27700  -3.20698  -1.94273  -1.93803  -1.93698
 Alpha  occ. eigenvalues --   -1.19555  -1.18435  -1.11767  -1.10333  -1.09965
 Alpha  occ. eigenvalues --   -1.09131  -1.06173  -1.04433  -1.03886  -1.02570
 Alpha  occ. eigenvalues --   -0.94113  -0.92415  -0.91362  -0.90836  -0.90589
 Alpha  occ. eigenvalues --   -0.90103  -0.89657  -0.89354  -0.89016  -0.88896
 Alpha  occ. eigenvalues --   -0.88491  -0.87126  -0.86086  -0.85743  -0.85238
 Alpha  occ. eigenvalues --   -0.84349  -0.84174  -0.83589  -0.82954  -0.82609
 Alpha  occ. eigenvalues --   -0.81672  -0.80384  -0.80251  -0.79286  -0.78306
 Alpha  occ. eigenvalues --   -0.77860  -0.77152  -0.76962  -0.76282  -0.75903
 Alpha  occ. eigenvalues --   -0.75423  -0.74877  -0.73447  -0.72742  -0.70951
 Alpha  occ. eigenvalues --   -0.70340  -0.70021  -0.69129  -0.68660  -0.67561
 Alpha  occ. eigenvalues --   -0.67260  -0.67132  -0.66721  -0.66351  -0.65823
 Alpha  occ. eigenvalues --   -0.65639  -0.65351  -0.64446  -0.64272  -0.62076
 Alpha  occ. eigenvalues --   -0.61831  -0.61469  -0.60984  -0.60537  -0.60345
 Alpha  occ. eigenvalues --   -0.59589  -0.59188  -0.58166  -0.57644  -0.57438
 Alpha  occ. eigenvalues --   -0.57005  -0.56794  -0.56657  -0.55986  -0.55582
 Alpha  occ. eigenvalues --   -0.55389  -0.55088  -0.54934  -0.54678  -0.54566
 Alpha  occ. eigenvalues --   -0.54494  -0.54491  -0.54095  -0.53952  -0.53589
 Alpha  occ. eigenvalues --   -0.53416  -0.53293  -0.53026  -0.52762  -0.52461
 Alpha  occ. eigenvalues --   -0.52341  -0.52205  -0.52119  -0.51988  -0.51455
 Alpha  occ. eigenvalues --   -0.51400  -0.51208  -0.51099  -0.50780  -0.50651
 Alpha  occ. eigenvalues --   -0.50616  -0.50456  -0.50106  -0.50000  -0.49910
 Alpha  occ. eigenvalues --   -0.49331  -0.49253  -0.48891  -0.48696  -0.48654
 Alpha  occ. eigenvalues --   -0.48368  -0.48027  -0.47932  -0.47901  -0.47769
 Alpha  occ. eigenvalues --   -0.47513  -0.47335  -0.47155  -0.47065  -0.46639
 Alpha  occ. eigenvalues --   -0.46436  -0.46312  -0.46151  -0.46090  -0.46010
 Alpha  occ. eigenvalues --   -0.45600  -0.45518  -0.45419  -0.44993  -0.44826
 Alpha  occ. eigenvalues --   -0.44572  -0.44368  -0.44253  -0.44181  -0.44131
 Alpha  occ. eigenvalues --   -0.43926  -0.43661  -0.43454  -0.43304  -0.42967
 Alpha  occ. eigenvalues --   -0.42943  -0.42756  -0.42591  -0.42445  -0.42146
 Alpha  occ. eigenvalues --   -0.41808  -0.41415  -0.41393  -0.40958  -0.40896
 Alpha  occ. eigenvalues --   -0.40373  -0.40201  -0.39690  -0.39662  -0.39574
 Alpha  occ. eigenvalues --   -0.39345  -0.39127  -0.38844  -0.38445  -0.38242
 Alpha  occ. eigenvalues --   -0.38202  -0.36837  -0.36513  -0.36433  -0.36301
 Alpha  occ. eigenvalues --   -0.36082  -0.35910  -0.35162  -0.33435  -0.32615
 Alpha  occ. eigenvalues --   -0.32549  -0.31899  -0.31663  -0.31541  -0.25966
 Alpha  occ. eigenvalues --   -0.22972
 Alpha virt. eigenvalues --   -0.07329   0.00385   0.02467   0.04573   0.05502
 Alpha virt. eigenvalues --    0.06338   0.06668   0.07513   0.08040   0.09649
 Alpha virt. eigenvalues --    0.10894   0.11008   0.11255   0.11848   0.11999

 Mulliken charges:
               1
     1  Mg   0.967136
     2  C   -0.052434
     3  C   -0.065629
     4  C   -0.036237
     5  C   -0.122136
     6  N   -0.344429
     7  C    0.004587
     8  C   -0.092240
     9  C   -0.132413
    10  C    0.030590
    11  C    0.016791
    12  C    0.006836
    13  C    0.033699
    14  C    0.185928
    15  O   -0.268994
    16  O   -0.349879
    17  N   -0.468132
    18  C    0.194947
    19  C   -0.190359
    20  C   -0.056835
    21  C    0.179264
    22  C    0.086997
    23  C    0.046022
    24  O   -0.256271
    25  C    0.000686
    26  N   -0.397600
    27  C    0.017947
    28  C   -0.073286
    29  C   -0.063503
    30  C    0.084827
    31  C    0.004900
    32  C   -0.037073
    33  C   -0.028025
    34  N   -0.487845
    35  C    0.156805
    36  C   -0.160333
    37  C   -0.065206
    38  C    0.170982
    39  C    0.072982
    40  C    0.156245
    41  O   -0.248962
    42  C   -0.074156
    43  C    0.280183
    44  O   -0.258511
    45  O   -0.363593
    46  C    0.127826
    47  C    0.221929
    48  C   -0.107631
    49  C   -0.227230
    50  C    0.027888
    51  C    0.018370
    52  C   -0.028319
    53  C    0.040774
    54  C   -0.192234
    55  C   -0.014300
    56  C    0.031779
    57  C   -0.023756
    58  C   -0.019488
    59  C   -0.176586
    60  C   -0.020747
    61  C    0.045515
    62  C   -0.077708
    63  C    0.007847
    64  C   -0.194102
    65  C   -0.016255
    66  C   -0.005382
    67  H   -0.009610
    68  H    0.011846
    69  H   -0.000771
    70  H    0.058158
    71  H    0.039113
    72  H    0.039395
    73  H    0.054948
    74  H    0.048818
    75  H    0.046023
    76  H    0.063764
    77  H    0.040327
    78  H    0.062426
    79  H    0.052273
    80  H    0.062428
    81  H    0.031347
    82  H    0.036426
    83  H    0.059460
    84  H    0.061043
    85  H    0.048314
    86  H    0.030294
    87  H    0.042171
    88  H    0.060331
    89  H    0.048113
    90  H    0.028047
    91  H    0.022167
    92  H    0.025429
    93  H    0.034324
    94  H    0.042536
    95  H    0.064729
    96  H    0.036945
    97  H    0.072380
    98  H    0.083707
    99  H    0.072940
   100  H    0.045429
   101  H    0.067368
   102  H    0.081371
   103  H    0.042530
   104  H    0.020989
   105  H    0.035337
   106  H    0.044995
   107  H    0.048470
   108  H    0.016813
   109  H    0.028869
   110  H    0.019942
   111  H    0.021044
   112  H    0.013756
   113  H    0.006711
   114  H    0.012232
   115  H    0.037272
   116  H    0.014037
   117  H    0.033121
   118  H    0.020932
   119  H    0.006692
   120  H    0.021321
   121  H    0.030575
   122  H    0.018476
   123  H    0.022201
   124  H    0.020212
   125  H    0.012548
   126  H    0.032748
   127  H    0.021748
   128  H    0.020098
   129  H    0.026863
   130  H    0.026194
   131  H    0.009909
   132  H    0.025653
   133  H    0.025154
   134  H    0.026374
   135  H    0.017663
   136  H    0.032547
   137  H    0.007947
   138  H    0.030908
   139  H    0.043699
   140  H    0.016948
 Sum of Mulliken charges =  -0.00000

 Dipole moment (field-independent basis, Debye):
    X=             -2.9567    Y=              4.0138    Z=              0.6365  Tot=              5.0257
 Quadrupole moment (field-independent basis, Debye-Ang):
   XX=           -373.9495   YY=           -417.5407   ZZ=           -409.0926
   XY=              8.9179   XZ=             28.4285   YZ=              8.8491

 Normal termination of Gaussian 16 at Wed May  4 20:52:50 2022.
