 Gaussian 16, Revision A.03,
 Gaussian 16:  ES64L-G16RevA.03 25-Dec-2016

 --------------------
 #p ZINDO=(nstates=5)
 --------------------

 ----------------------------
 step_401_chromophore_4 ZINDO
 ----------------------------
 Symbolic Z-matrix:
 Charge =  0 Multiplicity = 1

                         Standard orientation:
 ---------------------------------------------------------------------
 Center     Atomic      Atomic             Coordinates (Angstroms)
 Number     Number       Type             X           Y           Z
 ---------------------------------------------------------------------
      1         12           0        6.003837    0.393844    0.155924
      2          6           0        3.651925   -2.181347   -0.021814
      3          6           0        3.411488    2.630062   -0.610130
      4          6           0        8.304637    2.985816   -0.207218
      5          6           0        8.543987   -1.879715    0.457489
      6          7           0        3.803956    0.184013   -0.479447
      7          6           0        3.018613   -0.959273   -0.292647
      8          6           0        1.565176   -0.658381   -0.606918
      9          6           0        1.488411    0.938481   -0.819229
     10          6           0        3.030322    1.294052   -0.613342
     11          6           0        0.790771    1.390033   -2.183820
     12          6           0        0.633181   -1.118813    0.586375
     13          6           0       -0.791618   -0.543639    0.548131
     14          6           0       -1.882371   -1.596924    0.698407
     15          8           0       -1.964690   -2.305912    1.703151
     16          8           0       -2.769070   -1.588019   -0.344833
     17          7           0        5.867743    2.518917   -0.223613
     18          6           0        4.671770    3.254974   -0.410015
     19          6           0        5.011798    4.659965   -0.520746
     20          6           0        6.438660    4.776063   -0.378596
     21          6           0        6.958640    3.408714   -0.213912
     22          6           0        3.981990    5.769003   -0.730982
     23          6           0        7.282563    6.025610   -0.538092
     24          8           0        8.465103    5.964553   -0.871857
     25          6           0        6.736539    7.387959   -0.558753
     26          7           0        8.106289    0.585753    0.139399
     27          6           0        8.857769    1.736712   -0.002585
     28          6           0       10.372473    1.501962    0.246198
     29          6           0       10.370079   -0.061765    0.519541
     30          6           0        8.918708   -0.540003    0.279519
     31          6           0       11.235832    2.031600   -0.981510
     32          6           0       10.871560   -0.471921    1.971932
     33          6           0       12.247349   -1.019080    2.029956
     34          7           0        6.211727   -1.568092    0.212967
     35          6           0        7.270959   -2.386568    0.469410
     36          6           0        6.874030   -3.720215    0.810214
     37          6           0        5.476136   -3.674153    0.551466
     38          6           0        5.112550   -2.359826    0.170401
     39          6           0        7.674503   -4.891022    1.159374
     40          6           0        4.310147   -4.526590    0.563867
     41          8           0        4.194029   -5.774775    0.739557
     42          6           0        3.081527   -3.572677    0.245139
     43          6           0        2.223450   -3.950501   -0.892294
     44          8           0        2.581401   -3.800946   -2.065541
     45          8           0        0.983280   -4.318004   -0.450196
     46          6           0       -0.090905   -4.449319   -1.458469
     47          6           0       -3.666513   -2.746418   -0.276723
     48          6           0       -5.070600   -2.286741    0.096514
     49          6           0       -6.243934   -2.856128   -0.340479
     50          6           0       -6.306017   -4.223290   -1.028209
     51          6           0       -7.582974   -2.205944   -0.097134
     52          6           0       -8.174568   -1.414636   -1.316974
     53          6           0       -8.150507    0.113443   -1.171613
     54          6           0       -9.413103    0.704078   -0.599549
     55          6           0      -10.347287    1.295344   -1.704523
     56          6           0       -9.139665    1.752424    0.608330
     57          6           0       -9.899296    1.412355    1.909695
     58          6           0      -10.754708    2.661527    2.537176
     59          6           0      -12.255257    2.312816    2.767861
     60          6           0      -12.741722    3.233816    3.947274
     61          6           0      -13.113814    2.434591    1.515871
     62          6           0      -13.785021    1.078168    1.147379
     63          6           0      -14.783806    1.307261   -0.071141
     64          6           0      -14.485266    0.291044   -1.298264
     65          6           0      -14.583982    1.112395   -2.607383
     66          6           0      -15.395025   -0.924123   -1.441500
     67          1           0        2.509402    3.229306   -0.755323
     68          1           0        9.127709    3.702651   -0.245878
     69          1           0        9.358435   -2.532065    0.778154
     70          1           0        1.455786   -1.182801   -1.555979
     71          1           0        0.930860    1.415989   -0.014023
     72          1           0        0.082543    0.581458   -2.369260
     73          1           0        1.552096    1.333547   -2.962030
     74          1           0        0.233686    2.321181   -2.086124
     75          1           0        1.148061   -0.876483    1.516108
     76          1           0        0.613228   -2.194208    0.410903
     77          1           0       -1.107265   -0.013058   -0.350142
     78          1           0       -0.901375    0.160587    1.372284
     79          1           0        4.215377    6.231604   -1.689395
     80          1           0        3.972165    6.521442    0.057828
     81          1           0        3.073384    5.169449   -0.784420
     82          1           0        5.953734    7.603802    0.168488
     83          1           0        6.319046    7.356054   -1.565241
     84          1           0        7.423116    8.228903   -0.465124
     85          1           0       10.636679    2.023036    1.166502
     86          1           0       10.913449   -0.624195   -0.240157
     87          1           0       12.185614    1.527044   -1.157067
     88          1           0       11.413441    3.082803   -0.759906
     89          1           0       10.652319    1.869051   -1.887820
     90          1           0       10.238414   -1.219423    2.450417
     91          1           0       10.771863    0.372442    2.654779
     92          1           0       12.156499   -1.985106    2.527536
     93          1           0       12.824431   -0.425165    2.739195
     94          1           0       12.702802   -1.153791    1.048943
     95          1           0        7.187322   -5.726504    1.661646
     96          1           0        8.482336   -4.608332    1.835346
     97          1           0        7.983551   -5.145344    0.144826
     98          1           0        2.536890   -3.514688    1.187294
     99          1           0        0.280593   -4.098934   -2.421257
    100          1           0       -0.936814   -3.846212   -1.128160
    101          1           0       -0.428436   -5.485299   -1.474815
    102          1           0       -3.384719   -3.630809    0.294327
    103          1           0       -3.807501   -3.065016   -1.309089
    104          1           0       -5.158657   -1.331459    0.614039
    105          1           0       -5.416819   -4.853314   -1.009430
    106          1           0       -6.546720   -3.929187   -2.049443
    107          1           0       -7.094065   -4.808009   -0.554177
    108          1           0       -7.377982   -1.460837    0.671631
    109          1           0       -8.360478   -2.844567    0.322088
    110          1           0       -9.193329   -1.797509   -1.381991
    111          1           0       -7.663064   -1.779381   -2.207766
    112          1           0       -7.921743    0.599119   -2.120223
    113          1           0       -7.312690    0.413928   -0.542260
    114          1           0      -10.035162   -0.142450   -0.308605
    115          1           0      -11.324383    1.644914   -1.372271
    116          1           0      -10.614449    0.414924   -2.288149
    117          1           0       -9.846953    2.017155   -2.350526
    118          1           0       -9.238321    2.783821    0.271122
    119          1           0       -8.071369    1.651839    0.801098
    120          1           0       -9.109188    1.351680    2.658556
    121          1           0      -10.356012    0.423131    1.928432
    122          1           0      -10.794338    3.569288    1.935469
    123          1           0      -10.282435    2.959668    3.473445
    124          1           0      -12.244781    1.323024    3.223616
    125          1           0      -13.816822    3.415601    3.947779
    126          1           0      -12.257282    4.207252    4.027432
    127          1           0      -12.662833    2.691243    4.889407
    128          1           0      -12.461195    2.692254    0.682174
    129          1           0      -13.886293    3.195292    1.631551
    130          1           0      -14.259206    0.492794    1.935110
    131          1           0      -12.980661    0.407024    0.845521
    132          1           0      -14.733216    2.344427   -0.402845
    133          1           0      -15.774524    1.195760    0.370129
    134          1           0      -13.501079   -0.160815   -1.178414
    135          1           0      -13.764110    0.884481   -3.288729
    136          1           0      -14.755434    2.188413   -2.625761
    137          1           0      -15.389198    0.734869   -3.237092
    138          1           0      -14.957714   -1.594533   -2.181070
    139          1           0      -16.465052   -0.802597   -1.610933
    140          1           0      -15.193143   -1.373139   -0.468483
 ---------------------------------------------------------------------

 SCF Done:  E(RZINDO/S) =  -473.840281095     A.U. after   19 cycles

 Excitation energies and oscillator strengths:

 Excited State   1:      Singlet-A      1.2077 eV 1026.65 nm  f=0.6052  <S**2>=0.000
     175 ->178        -0.18656
     176 ->177         0.66418
 This state for optimization and/or second-order correction.
 Total Energy, E(CIS/TDA) =  -473.795900692
 Copying the excited state density for this state as the 1-particle RhoCI density.

 Excited State   2:      Singlet-A      1.9151 eV  647.39 nm  f=0.0645  <S**2>=0.000
     175 ->177         0.55827
     176 ->178         0.40811

 Excited State   3:      Singlet-A      2.9184 eV  424.84 nm  f=0.0087  <S**2>=0.000
     168 ->177         0.29282
     168 ->178        -0.13824
     168 ->179        -0.33173
     168 ->180        -0.37845
     168 ->186        -0.24183
     168 ->187        -0.12293

 Excited State   4:      Singlet-A      2.9994 eV  413.37 nm  f=0.8447  <S**2>=0.000
     175 ->177        -0.33213
     176 ->178         0.48596
     176 ->179        -0.28288
     176 ->180         0.11578

 Excited State   5:      Singlet-A      3.0322 eV  408.89 nm  f=0.0134  <S**2>=0.000
     169 ->177         0.25107
     169 ->178        -0.10629
     169 ->179         0.33037
     169 ->180        -0.21767
     169 ->186         0.13867
     169 ->187        -0.11949
     169 ->201        -0.10422
     170 ->177         0.13919
     170 ->179         0.18083
     170 ->180        -0.14309
     176 ->179        -0.28184

 The electronic state is 1-A.
 Alpha  occ. eigenvalues --   -1.84331  -1.77624  -1.76835  -1.73511  -1.71263
 Alpha  occ. eigenvalues --   -1.68059  -1.63327  -1.60012  -1.59659  -1.56396
 Alpha  occ. eigenvalues --   -1.53320  -1.51378  -1.48193  -1.47290  -1.46899
 Alpha  occ. eigenvalues --   -1.43770  -1.42491  -1.39725  -1.38551  -1.37534
 Alpha  occ. eigenvalues --   -1.35039  -1.34787  -1.32971  -1.30438  -1.28494
 Alpha  occ. eigenvalues --   -1.27789  -1.25388  -1.22208  -1.20965  -1.18081
 Alpha  occ. eigenvalues --   -1.16458  -1.15344  -1.15148  -1.13751  -1.12667
 Alpha  occ. eigenvalues --   -1.12243  -1.11107  -1.10751  -1.04614  -1.03567
 Alpha  occ. eigenvalues --   -1.03237  -1.01071  -0.99583  -0.97784  -0.96519
 Alpha  occ. eigenvalues --   -0.94631  -0.94158  -0.93294  -0.92353  -0.91716
 Alpha  occ. eigenvalues --   -0.90746  -0.90135  -0.89198  -0.87655  -0.87232
 Alpha  occ. eigenvalues --   -0.86284  -0.83539  -0.82642  -0.81420  -0.80308
 Alpha  occ. eigenvalues --   -0.79688  -0.78680  -0.77338  -0.76159  -0.76048
 Alpha  occ. eigenvalues --   -0.75755  -0.74677  -0.74621  -0.74274  -0.73363
 Alpha  occ. eigenvalues --   -0.72746  -0.71918  -0.71602  -0.70985  -0.70324
 Alpha  occ. eigenvalues --   -0.69723  -0.69100  -0.68990  -0.68211  -0.67986
 Alpha  occ. eigenvalues --   -0.67181  -0.66932  -0.66523  -0.66273  -0.66185
 Alpha  occ. eigenvalues --   -0.65705  -0.65197  -0.64943  -0.64411  -0.64114
 Alpha  occ. eigenvalues --   -0.63527  -0.62876  -0.62669  -0.62422  -0.61811
 Alpha  occ. eigenvalues --   -0.61352  -0.60898  -0.60869  -0.60443  -0.60294
 Alpha  occ. eigenvalues --   -0.60086  -0.59724  -0.58834  -0.58433  -0.58094
 Alpha  occ. eigenvalues --   -0.57908  -0.57583  -0.57273  -0.57184  -0.56990
 Alpha  occ. eigenvalues --   -0.56453  -0.56258  -0.55331  -0.55087  -0.54765
 Alpha  occ. eigenvalues --   -0.54516  -0.53886  -0.53794  -0.53086  -0.52802
 Alpha  occ. eigenvalues --   -0.52730  -0.52310  -0.52116  -0.51816  -0.51691
 Alpha  occ. eigenvalues --   -0.51409  -0.51126  -0.50841  -0.50589  -0.50393
 Alpha  occ. eigenvalues --   -0.49929  -0.49583  -0.49418  -0.49358  -0.48972
 Alpha  occ. eigenvalues --   -0.48780  -0.48649  -0.48469  -0.48238  -0.48008
 Alpha  occ. eigenvalues --   -0.47806  -0.47261  -0.46969  -0.46732  -0.46438
 Alpha  occ. eigenvalues --   -0.46217  -0.45964  -0.45882  -0.45734  -0.44978
 Alpha  occ. eigenvalues --   -0.44603  -0.44494  -0.44300  -0.44106  -0.43990
 Alpha  occ. eigenvalues --   -0.43854  -0.43361  -0.42684  -0.42636  -0.42423
 Alpha  occ. eigenvalues --   -0.42224  -0.42044  -0.41186  -0.38792  -0.38704
 Alpha  occ. eigenvalues --   -0.38234  -0.37194  -0.35147  -0.34792  -0.34663
 Alpha  occ. eigenvalues --   -0.33192  -0.32492  -0.31992  -0.31455  -0.26665
 Alpha  occ. eigenvalues --   -0.21753
 Alpha virt. eigenvalues --   -0.08799  -0.01973  -0.00401   0.01378   0.01569
 Alpha virt. eigenvalues --    0.02260   0.02389   0.02629   0.04605   0.04801
 Alpha virt. eigenvalues --    0.05981   0.07120   0.07192   0.07673   0.08460

 Mulliken charges:
               1
     1  Mg   0.427735
     2  C   -0.044203
     3  C   -0.079642
     4  C   -0.049884
     5  C   -0.051630
     6  N   -0.295269
     7  C    0.117522
     8  C   -0.001163
     9  C   -0.018093
    10  C    0.142846
    11  C   -0.053535
    12  C   -0.019373
    13  C    0.004522
    14  C    0.465231
    15  O   -0.525774
    16  O   -0.256582
    17  N   -0.348554
    18  C    0.118344
    19  C    0.004786
    20  C   -0.040186
    21  C    0.141568
    22  C   -0.048720
    23  C    0.337096
    24  O   -0.537755
    25  C   -0.020810
    26  N   -0.273249
    27  C    0.140103
    28  C    0.001738
    29  C   -0.002459
    30  C    0.098940
    31  C   -0.050842
    32  C   -0.027314
    33  C   -0.055494
    34  N   -0.308639
    35  C    0.096864
    36  C    0.041283
    37  C   -0.065988
    38  C    0.109725
    39  C   -0.032066
    40  C    0.325457
    41  O   -0.543008
    42  C    0.061933
    43  C    0.498527
    44  O   -0.535877
    45  O   -0.265547
    46  C    0.071912
    47  C    0.105560
    48  C   -0.096771
    49  C   -0.008903
    50  C   -0.047011
    51  C   -0.022546
    52  C   -0.028471
    53  C   -0.021197
    54  C   -0.017425
    55  C   -0.062728
    56  C   -0.036743
    57  C   -0.045275
    58  C   -0.040309
    59  C   -0.013079
    60  C   -0.066204
    61  C   -0.022451
    62  C   -0.046064
    63  C   -0.045309
    64  C   -0.005238
    65  C   -0.067218
    66  C   -0.054551
    67  H    0.020895
    68  H    0.041615
    69  H    0.025133
    70  H    0.052532
    71  H    0.027185
    72  H    0.017333
    73  H    0.034423
    74  H    0.031006
    75  H    0.037362
    76  H    0.035586
    77  H    0.032537
    78  H    0.043079
    79  H    0.034074
    80  H    0.037434
    81  H    0.028741
    82  H    0.019450
    83  H    0.047792
    84  H    0.042564
    85  H    0.037984
    86  H    0.029637
    87  H    0.022092
    88  H    0.029573
    89  H    0.027713
    90  H    0.019951
    91  H    0.017276
    92  H    0.012881
    93  H    0.019697
    94  H    0.027877
    95  H    0.040429
    96  H    0.022049
    97  H    0.047036
    98  H    0.051935
    99  H    0.054422
   100  H    0.032955
   101  H    0.044064
   102  H    0.068695
   103  H    0.027666
   104  H    0.033407
   105  H    0.024313
   106  H    0.031255
   107  H    0.026507
   108  H    0.014296
   109  H    0.025515
   110  H    0.016790
   111  H    0.018982
   112  H    0.013745
   113  H    0.017889
   114  H    0.021038
   115  H    0.020844
   116  H    0.007160
   117  H    0.022694
   118  H    0.026608
   119  H    0.013900
   120  H    0.007983
   121  H    0.038035
   122  H    0.022228
   123  H    0.017991
   124  H    0.021470
   125  H    0.008536
   126  H    0.023838
   127  H    0.012379
   128  H    0.022290
   129  H    0.024657
   130  H    0.025965
   131  H    0.012468
   132  H    0.024500
   133  H    0.019298
   134  H    0.028614
   135  H    0.010231
   136  H    0.025584
   137  H    0.007289
   138  H    0.017808
   139  H    0.031667
   140  H    0.007010
 Sum of Mulliken charges =  -0.00000

 Dipole moment (field-independent basis, Debye):
    X=             -4.1078    Y=              6.9555    Z=              0.9469  Tot=              8.1333
 N-N= 4.252742653558D+03 E-N= 0.000000000000D+00  KE=-9.179450504318D+03
 Leave Link  601 at Wed May  4 21:09:31 2022, MaxMem=  6710886400 cpu:               2.0 elap:               0.1
 (Enter /sw/apps/gaussian-16.0/g16/l9999.exe)
 1\1\GINC-BP1-COMPUTE183\SP\RZINDO CIS\STO-3G\C55H74Mg1N4O6\OF15641\04-
 May-2022\0\\#p ZINDO=(nstates=5)\\step_401_chromophore_4 ZINDO\\0,1\Mg
 ,0,8.684,3.391,27.331\C,0,10.241,1.962,30.111\C,0,7.142,5.651,29.527\C
 ,0,6.677,4.584,24.744\C,0,9.869,0.889,25.319\N,0,8.545,3.607,29.616\C,
 0,9.424,3.021,30.534\C,0,9.178,3.572,31.926\C,0,8.135,4.787,31.734\C,0
 ,7.92,4.687,30.156\C,0,6.845,4.704,32.673\C,0,10.532,4.081,32.568\C,0,
 10.36,4.981,33.802\C,0,11.197,4.547,34.999\O,0,12.427,4.492,34.944\O,0

 Normal termination of Gaussian 16 at Wed May  4 21:09:31 2022.
