 Gaussian 16, Revision A.03,
 Gaussian 16:  ES64L-G16RevA.03 25-Dec-2016

 ------------------------------
 #p blyp/Def2SVP td=(nstates=5)
 ------------------------------

 -------------------------------------------------
 step_801_chromophore_3 TDDFT with blyp functional
 -------------------------------------------------
 Symbolic Z-matrix:
 Charge =  0 Multiplicity = 1

                         Standard orientation:
 ---------------------------------------------------------------------
 Center     Atomic      Atomic             Coordinates (Angstroms)
 Number     Number       Type             X           Y           Z
 ---------------------------------------------------------------------
      1         12           0       -5.774302    0.700001   -0.150631
      2          6           0       -4.309571   -2.581448    0.044403
      3          6           0       -2.392819    1.853245   -0.368960
      4          6           0       -6.833205    3.884728    0.323502
      5          6           0       -8.818632   -0.458434    0.674915
      6          7           0       -3.560887   -0.353516   -0.229049
      7          6           0       -3.290445   -1.646918   -0.251930
      8          6           0       -1.797783   -1.882565   -0.532409
      9          6           0       -1.172332   -0.400081   -0.376624
     10          6           0       -2.420783    0.451414   -0.295658
     11          6           0       -0.035250   -0.163037    0.765204
     12          6           0       -1.496125   -2.515325   -1.825324
     13          6           0       -0.014884   -2.438033   -2.291179
     14          6           0        1.128830   -2.674974   -1.266350
     15          8           0        0.988301   -3.296842   -0.207578
     16          8           0        2.215312   -2.089211   -1.817449
     17          7           0       -4.747585    2.589499   -0.181584
     18          6           0       -3.410866    2.841659   -0.162418
     19          6           0       -3.097088    4.282241    0.025956
     20          6           0       -4.364661    4.930940    0.050052
     21          6           0       -5.384371    3.836194    0.028924
     22          6           0       -1.647241    4.765222    0.035086
     23          6           0       -4.670286    6.410856    0.127557
     24          8           0       -5.829644    6.804948    0.034558
     25          6           0       -3.546020    7.453082    0.345337
     26          7           0       -7.545497    1.592212    0.217121
     27          6           0       -7.865865    2.916216    0.287162
     28          6           0       -9.438387    3.199931    0.292324
     29          6           0      -10.003773    1.740221    0.246331
     30          6           0       -8.726441    0.942120    0.360617
     31          6           0       -9.809567    4.046984    1.516230
     32          6           0      -10.804007    1.379745   -1.066650
     33          6           0      -12.298136    1.197599   -0.745046
     34          7           0       -6.467957   -1.086150    0.238459
     35          6           0       -7.762547   -1.445542    0.575351
     36          6           0       -7.844782   -2.948957    0.747168
     37          6           0       -6.560898   -3.416716    0.612650
     38          6           0       -5.750072   -2.241542    0.192984
     39          6           0       -9.020115   -3.775361    0.889803
     40          6           0       -5.733189   -4.591241    0.604018
     41          8           0       -6.023388   -5.783781    0.888713
     42          6           0       -4.253383   -4.086194    0.187648
     43          6           0       -3.219149   -4.556952    1.203680
     44          8           0       -3.088806   -4.168376    2.384211
     45          8           0       -2.581318   -5.616828    0.731412
     46          6           0       -1.419391   -6.127407    1.487811
     47          6           0        3.410377   -2.229670   -1.001328
     48          6           0        4.706351   -1.930358   -1.772962
     49          6           0        5.930990   -2.501888   -1.881259
     50          6           0        6.380243   -3.718046   -0.990326
     51          6           0        6.856963   -2.175924   -3.011842
     52          6           0        7.219829   -0.709619   -3.327082
     53          6           0        8.729830   -0.574444   -3.313726
     54          6           0        9.274500    0.294579   -2.187110
     55          6           0        9.856885   -0.674725   -1.182504
     56          6           0       10.460223    1.178116   -2.713960
     57          6           0       10.872452    2.348045   -1.810755
     58          6           0       12.327988    2.137133   -1.246458
     59          6           0       12.592232    2.988587    0.069541
     60          6           0       13.482849    4.269538   -0.222373
     61          6           0       13.308503    2.165113    1.079528
     62          6           0       12.388931    1.552758    2.131026
     63          6           0       13.013785    0.331167    2.765708
     64          6           0       12.444278    0.153134    4.217939
     65          6           0       13.606359   -0.292338    5.102907
     66          6           0       11.258897   -0.783833    4.227338
     67          1           0       -1.319423    2.052640   -0.329582
     68          1           0       -7.209002    4.901161    0.465670
     69          1           0       -9.802539   -0.856168    0.932167
     70          1           0       -1.305124   -2.547247    0.177513
     71          1           0       -0.801594   -0.127777   -1.364718
     72          1           0        0.372962   -1.141472    1.018192
     73          1           0       -0.422298    0.413576    1.605573
     74          1           0        0.773625    0.433459    0.344257
     75          1           0       -2.013794   -1.979537   -2.620836
     76          1           0       -1.785908   -3.566249   -1.849530
     77          1           0        0.226171   -1.517928   -2.823773
     78          1           0        0.064092   -3.294129   -2.961388
     79          1           0       -1.458287    5.055610   -0.998895
     80          1           0       -0.950407    4.024106    0.426527
     81          1           0       -1.602903    5.696089    0.600682
     82          1           0       -2.648754    7.228883   -0.231148
     83          1           0       -3.423899    7.359134    1.424343
     84          1           0       -3.886614    8.471564    0.156947
     85          1           0       -9.609236    3.691313   -0.665552
     86          1           0      -10.547140    1.614887    1.183345
     87          1           0       -8.908439    4.140982    2.121314
     88          1           0      -10.614652    3.610981    2.107343
     89          1           0      -10.002344    5.093836    1.278467
     90          1           0      -10.403474    0.446826   -1.462777
     91          1           0      -10.574462    2.181907   -1.767428
     92          1           0      -12.496527    1.285470    0.323455
     93          1           0      -12.617095    0.200606   -1.047155
     94          1           0      -12.896957    1.990405   -1.195338
     95          1           0       -9.726468   -3.120464    0.378877
     96          1           0       -9.299959   -3.978854    1.923259
     97          1           0       -9.022491   -4.631823    0.216322
     98          1           0       -3.914601   -4.418038   -0.793663
     99          1           0       -0.822355   -5.332514    1.934757
    100          1           0       -0.723647   -6.542942    0.760178
    101          1           0       -1.662431   -6.900481    2.215859
    102          1           0        3.503581   -3.273157   -0.697476
    103          1           0        3.413209   -1.551290   -0.148369
    104          1           0        4.437408   -1.173935   -2.509269
    105          1           0        7.386821   -3.521914   -0.620583
    106          1           0        6.376653   -4.641262   -1.568999
    107          1           0        5.631229   -3.742200   -0.199497
    108          1           0        6.453904   -2.669775   -3.896379
    109          1           0        7.725225   -2.810121   -2.838683
    110          1           0        6.749950    0.021891   -2.668951
    111          1           0        6.929659   -0.466134   -4.349171
    112          1           0        9.120582   -0.270056   -4.284996
    113          1           0        9.146172   -1.580462   -3.258237
    114          1           0        8.512849    0.930516   -1.737317
    115          1           0        9.959186   -0.236567   -0.190189
    116          1           0       10.844120   -1.026772   -1.481870
    117          1           0        9.289396   -1.594272   -1.037790
    118          1           0       10.043312    1.658811   -3.599225
    119          1           0       11.247349    0.471559   -2.976881
    120          1           0       10.188939    2.551604   -0.986340
    121          1           0       10.883890    3.219586   -2.465096
    122          1           0       12.887260    2.454281   -2.126382
    123          1           0       12.526613    1.076021   -1.093487
    124          1           0       11.691147    3.447724    0.478089
    125          1           0       14.519855    4.014590   -0.000840
    126          1           0       13.184529    5.175421    0.304147
    127          1           0       13.387307    4.398431   -1.300198
    128          1           0       13.904901    2.942055    1.557189
    129          1           0       14.047604    1.461882    0.694905
    130          1           0       11.404139    1.304112    1.735894
    131          1           0       12.259847    2.306221    2.908210
    132          1           0       14.096002    0.424148    2.853511
    133          1           0       12.705513   -0.407641    2.024728
    134          1           0       12.022231    1.045233    4.679524
    135          1           0       14.073195   -1.101933    4.542625
    136          1           0       13.274455   -0.679940    6.067168
    137          1           0       14.276998    0.561727    5.191519
    138          1           0       11.532148   -1.838676    4.185842
    139          1           0       10.636208   -0.590186    3.354209
    140          1           0       10.628635   -0.674907    5.110625
 ---------------------------------------------------------------------

 SCF Done:  E(RB-LYP) =  -3007.36048985     A.U. after   21 cycles

 Excitation energies and oscillator strengths:

 Excited State   1:      Singlet-A      1.7416 eV  711.91 nm  f=0.2825  <S**2>=0.000
     245 -> 248        0.17440
     245 -> 249       -0.11288
     246 -> 247        0.68429
     246 <- 247       -0.15067
 This state for optimization and/or second-order correction.
 Total Energy, E(TD-HF/TD-DFT) =  -3007.29648849
 Copying the excited state density for this state as the 1-particle RhoCI density.

 Excited State   2:      Singlet-A      1.9028 eV  651.59 nm  f=0.0783  <S**2>=0.000
     244 -> 247       -0.15201
     245 -> 247        0.63783
     246 -> 248       -0.20024
     246 -> 249        0.11363

 Excited State   3:      Singlet-A      2.0400 eV  607.77 nm  f=0.0052  <S**2>=0.000
     244 -> 247        0.68896
     245 -> 247        0.13175

 Excited State   4:      Singlet-A      2.0940 eV  592.10 nm  f=0.0005  <S**2>=0.000
     243 -> 247        0.70564

 Excited State   5:      Singlet-A      2.4199 eV  512.35 nm  f=0.0010  <S**2>=0.000
     242 -> 247        0.69246
     246 -> 248        0.10013

 The electronic state is 1-A.
 Alpha  occ. eigenvalues --  -46.27073 -18.84623 -18.81660 -18.78631 -18.75604
 Alpha  occ. eigenvalues --  -18.75276 -18.74686 -14.03244 -14.02094 -14.01608
 Alpha  occ. eigenvalues --  -14.01409 -10.05691 -10.02755  -9.99883  -9.99853
 Alpha  occ. eigenvalues --   -9.99155  -9.97033  -9.96486  -9.96480  -9.96378
 Alpha  occ. eigenvalues --   -9.96221  -9.95987  -9.95688  -9.95513  -9.95422
 Alpha  occ. eigenvalues --   -9.94348  -9.94017  -9.93958  -9.93948  -9.93904
 Alpha  occ. eigenvalues --   -9.93812  -9.93642  -9.93630  -9.93423  -9.93281
 Alpha  occ. eigenvalues --   -9.93219  -9.93167  -9.93092  -9.93065  -9.93047
 Alpha  occ. eigenvalues --   -9.92830  -9.92579  -9.92443  -9.92398  -9.92374
 Alpha  occ. eigenvalues --   -9.92251  -9.92187  -9.92128  -9.92108  -9.92102
 Alpha  occ. eigenvalues --   -9.91989  -9.91758  -9.91695  -9.91552  -9.91353
 Alpha  occ. eigenvalues --   -9.91309  -9.91197  -9.91118  -9.90982  -9.90865
 Alpha  occ. eigenvalues --   -9.90811  -9.90715  -9.90671  -9.90581  -9.90540
 Alpha  occ. eigenvalues --   -9.90301  -2.91873  -1.72275  -1.71765  -1.71605
 Alpha  occ. eigenvalues --   -1.00016  -0.97472  -0.91715  -0.91005  -0.89002
 Alpha  occ. eigenvalues --   -0.86999  -0.86524  -0.85362  -0.84678  -0.83752
 Alpha  occ. eigenvalues --   -0.74401  -0.73857  -0.73462  -0.73150  -0.72557
 Alpha  occ. eigenvalues --   -0.72545  -0.71317  -0.71107  -0.70383  -0.69962
 Alpha  occ. eigenvalues --   -0.69728  -0.69392  -0.67981  -0.67285  -0.66935
 Alpha  occ. eigenvalues --   -0.66240  -0.65673  -0.65054  -0.64694  -0.64455
 Alpha  occ. eigenvalues --   -0.63826  -0.62519  -0.62249  -0.61740  -0.60776
 Alpha  occ. eigenvalues --   -0.60460  -0.60212  -0.59475  -0.59283  -0.58870
 Alpha  occ. eigenvalues --   -0.58557  -0.56925  -0.56296  -0.55199  -0.54601
 Alpha  occ. eigenvalues --   -0.54245  -0.53709  -0.52426  -0.52188  -0.51503
 Alpha  occ. eigenvalues --   -0.51437  -0.51039  -0.50353  -0.50301  -0.49960
 Alpha  occ. eigenvalues --   -0.49667  -0.49567  -0.48807  -0.47791  -0.46538
 Alpha  occ. eigenvalues --   -0.46242  -0.45568  -0.45299  -0.44831  -0.44414
 Alpha  occ. eigenvalues --   -0.43800  -0.43381  -0.42838  -0.42212  -0.41988
 Alpha  occ. eigenvalues --   -0.41889  -0.41775  -0.41600  -0.41492  -0.41195
 Alpha  occ. eigenvalues --   -0.40992  -0.40891  -0.40580  -0.40424  -0.40279
 Alpha  occ. eigenvalues --   -0.40029  -0.39828  -0.39495  -0.39102  -0.39025
 Alpha  occ. eigenvalues --   -0.38959  -0.38860  -0.38769  -0.38540  -0.38394
 Alpha  occ. eigenvalues --   -0.37983  -0.37936  -0.37673  -0.37434  -0.37134
 Alpha  occ. eigenvalues --   -0.37007  -0.36683  -0.36605  -0.36422  -0.36384
 Alpha  occ. eigenvalues --   -0.36109  -0.36002  -0.35687  -0.35593  -0.35509
 Alpha  occ. eigenvalues --   -0.35299  -0.35126  -0.34946  -0.34796  -0.34542
 Alpha  occ. eigenvalues --   -0.34354  -0.34140  -0.33750  -0.33710  -0.33639
 Alpha  occ. eigenvalues --   -0.33479  -0.33415  -0.33266  -0.33222  -0.33003
 Alpha  occ. eigenvalues --   -0.32784  -0.32658  -0.32647  -0.32580  -0.32468
 Alpha  occ. eigenvalues --   -0.32107  -0.31811  -0.31615  -0.31513  -0.31219
 Alpha  occ. eigenvalues --   -0.31179  -0.30953  -0.30822  -0.30705  -0.30563
 Alpha  occ. eigenvalues --   -0.30430  -0.30421  -0.30339  -0.30115  -0.29910
 Alpha  occ. eigenvalues --   -0.29752  -0.29289  -0.29212  -0.29181  -0.28992
 Alpha  occ. eigenvalues --   -0.28947  -0.28513  -0.28462  -0.28330  -0.27946
 Alpha  occ. eigenvalues --   -0.27704  -0.27655  -0.27515  -0.27180  -0.27088
 Alpha  occ. eigenvalues --   -0.26690  -0.26324  -0.25852  -0.25592  -0.25180
 Alpha  occ. eigenvalues --   -0.25117  -0.23858  -0.23700  -0.23554  -0.23282
 Alpha  occ. eigenvalues --   -0.23007  -0.22576  -0.21274  -0.21149  -0.20700
 Alpha  occ. eigenvalues --   -0.20449  -0.19840  -0.18570  -0.18408  -0.16405
 Alpha  occ. eigenvalues --   -0.15102
 Alpha virt. eigenvalues --   -0.11012  -0.06678  -0.06138  -0.04799  -0.04015
 Alpha virt. eigenvalues --   -0.03059  -0.02367  -0.01789  -0.01230   0.00155
 Alpha virt. eigenvalues --    0.01217   0.01373   0.01880   0.02157   0.02595

 Mulliken charges:
               1
     1  Mg   0.738960
     2  C    0.015296
     3  C   -0.027179
     4  C   -0.034804
     5  C   -0.070752
     6  N   -0.158243
     7  C   -0.038852
     8  C   -0.007976
     9  C    0.000275
    10  C   -0.076242
    11  C    0.118910
    12  C    0.135523
    13  C    0.089229
    14  C    0.093801
    15  O   -0.202951
    16  O   -0.244924
    17  N   -0.268938
    18  C    0.135286
    19  C   -0.165260
    20  C    0.037033
    21  C    0.079760
    22  C    0.183564
    23  C   -0.092903
    24  O   -0.166309
    25  C    0.127321
    26  N   -0.251556
    27  C   -0.011293
    28  C    0.021085
    29  C    0.031725
    30  C    0.010096
    31  C    0.142826
    32  C    0.120053
    33  C    0.067677
    34  N   -0.319355
    35  C    0.114505
    36  C   -0.185591
    37  C    0.100628
    38  C    0.039115
    39  C    0.180951
    40  C    0.011417
    41  O   -0.164989
    42  C    0.054931
    43  C    0.095750
    44  O   -0.217214
    45  O   -0.236386
    46  C    0.218457
    47  C    0.304988
    48  C   -0.126822
    49  C   -0.179484
    50  C    0.124482
    51  C    0.143733
    52  C    0.137581
    53  C    0.102585
    54  C   -0.068032
    55  C    0.099529
    56  C    0.088305
    57  C    0.078689
    58  C    0.083859
    59  C   -0.082760
    60  C    0.099480
    61  C    0.136472
    62  C    0.052972
    63  C    0.095001
    64  C   -0.073363
    65  C    0.106836
    66  C    0.096664
    67  H   -0.073127
    68  H   -0.048475
    69  H   -0.062295
    70  H   -0.003860
    71  H   -0.025360
    72  H    0.017899
    73  H    0.006232
    74  H   -0.016507
    75  H   -0.038537
    76  H   -0.010489
    77  H    0.005152
    78  H    0.001346
    79  H    0.008877
    80  H    0.010543
    81  H   -0.009706
    82  H    0.006237
    83  H    0.015798
    84  H   -0.007161
    85  H   -0.013451
    86  H   -0.026325
    87  H   -0.004605
    88  H   -0.003222
    89  H   -0.002462
    90  H   -0.012184
    91  H   -0.019353
    92  H   -0.012881
    93  H    0.000313
    94  H   -0.002998
    95  H   -0.027040
    96  H    0.022261
    97  H    0.003235
    98  H   -0.003071
    99  H    0.023253
   100  H    0.001837
   101  H    0.026040
   102  H    0.000288
   103  H    0.015527
   104  H   -0.033163
   105  H    0.006053
   106  H    0.010029
   107  H   -0.006942
   108  H   -0.014146
   109  H   -0.050277
   110  H   -0.018050
   111  H   -0.036245
   112  H   -0.052262
   113  H   -0.048646
   114  H   -0.037863
   115  H   -0.021377
   116  H   -0.020993
   117  H   -0.026341
   118  H   -0.041206
   119  H   -0.026562
   120  H   -0.028287
   121  H   -0.032815
   122  H   -0.028822
   123  H   -0.023666
   124  H   -0.036150
   125  H   -0.018054
   126  H   -0.008425
   127  H   -0.029846
   128  H   -0.055815
   129  H   -0.031562
   130  H   -0.022956
   131  H   -0.039100
   132  H   -0.032809
   133  H   -0.023904
   134  H   -0.033552
   135  H   -0.015881
   136  H   -0.021555
   137  H   -0.007878
   138  H   -0.027620
   139  H   -0.025449
   140  H   -0.022765
 Sum of Mulliken charges =  -0.00000

 Dipole moment (field-independent basis, Debye):
    X=              4.2392    Y=              2.3211    Z=             -4.3444  Tot=              6.4987
 Quadrupole moment (field-independent basis, Debye-Ang):
   XX=           -369.4452   YY=           -437.3256   ZZ=           -407.1222
   XY=            -19.7546   XZ=              4.8105   YZ=             18.8090

 Normal termination of Gaussian 16 at Sat Apr 30 17:53:16 2022.
