 Gaussian 16, Revision A.03,
 Gaussian 16:  ES64L-G16RevA.03 25-Dec-2016

 -----------------------------------
 #p cam-b3lyp/Def2SVP td=(nstates=5)
 -----------------------------------

 ------------------------------------------------------
 step_801_chromophore_3 TDDFT with cam-b3lyp functional
 ------------------------------------------------------
 Symbolic Z-matrix:
 Charge =  0 Multiplicity = 1

                         Standard orientation:
 ---------------------------------------------------------------------
 Center     Atomic      Atomic             Coordinates (Angstroms)
 Number     Number       Type             X           Y           Z
 ---------------------------------------------------------------------
      1         12           0       -5.774302    0.700001   -0.150631
      2          6           0       -4.309571   -2.581448    0.044403
      3          6           0       -2.392819    1.853245   -0.368960
      4          6           0       -6.833205    3.884728    0.323502
      5          6           0       -8.818632   -0.458434    0.674915
      6          7           0       -3.560887   -0.353516   -0.229049
      7          6           0       -3.290445   -1.646918   -0.251930
      8          6           0       -1.797783   -1.882565   -0.532409
      9          6           0       -1.172332   -0.400081   -0.376624
     10          6           0       -2.420783    0.451414   -0.295658
     11          6           0       -0.035250   -0.163037    0.765204
     12          6           0       -1.496125   -2.515325   -1.825324
     13          6           0       -0.014884   -2.438033   -2.291179
     14          6           0        1.128830   -2.674974   -1.266350
     15          8           0        0.988301   -3.296842   -0.207578
     16          8           0        2.215312   -2.089211   -1.817449
     17          7           0       -4.747585    2.589499   -0.181584
     18          6           0       -3.410866    2.841659   -0.162418
     19          6           0       -3.097088    4.282241    0.025956
     20          6           0       -4.364661    4.930940    0.050052
     21          6           0       -5.384371    3.836194    0.028924
     22          6           0       -1.647241    4.765222    0.035086
     23          6           0       -4.670286    6.410856    0.127557
     24          8           0       -5.829644    6.804948    0.034558
     25          6           0       -3.546020    7.453082    0.345337
     26          7           0       -7.545497    1.592212    0.217121
     27          6           0       -7.865865    2.916216    0.287162
     28          6           0       -9.438387    3.199931    0.292324
     29          6           0      -10.003773    1.740221    0.246331
     30          6           0       -8.726441    0.942120    0.360617
     31          6           0       -9.809567    4.046984    1.516230
     32          6           0      -10.804007    1.379745   -1.066650
     33          6           0      -12.298136    1.197599   -0.745046
     34          7           0       -6.467957   -1.086150    0.238459
     35          6           0       -7.762547   -1.445542    0.575351
     36          6           0       -7.844782   -2.948957    0.747168
     37          6           0       -6.560898   -3.416716    0.612650
     38          6           0       -5.750072   -2.241542    0.192984
     39          6           0       -9.020115   -3.775361    0.889803
     40          6           0       -5.733189   -4.591241    0.604018
     41          8           0       -6.023388   -5.783781    0.888713
     42          6           0       -4.253383   -4.086194    0.187648
     43          6           0       -3.219149   -4.556952    1.203680
     44          8           0       -3.088806   -4.168376    2.384211
     45          8           0       -2.581318   -5.616828    0.731412
     46          6           0       -1.419391   -6.127407    1.487811
     47          6           0        3.410377   -2.229670   -1.001328
     48          6           0        4.706351   -1.930358   -1.772962
     49          6           0        5.930990   -2.501888   -1.881259
     50          6           0        6.380243   -3.718046   -0.990326
     51          6           0        6.856963   -2.175924   -3.011842
     52          6           0        7.219829   -0.709619   -3.327082
     53          6           0        8.729830   -0.574444   -3.313726
     54          6           0        9.274500    0.294579   -2.187110
     55          6           0        9.856885   -0.674725   -1.182504
     56          6           0       10.460223    1.178116   -2.713960
     57          6           0       10.872452    2.348045   -1.810755
     58          6           0       12.327988    2.137133   -1.246458
     59          6           0       12.592232    2.988587    0.069541
     60          6           0       13.482849    4.269538   -0.222373
     61          6           0       13.308503    2.165113    1.079528
     62          6           0       12.388931    1.552758    2.131026
     63          6           0       13.013785    0.331167    2.765708
     64          6           0       12.444278    0.153134    4.217939
     65          6           0       13.606359   -0.292338    5.102907
     66          6           0       11.258897   -0.783833    4.227338
     67          1           0       -1.319423    2.052640   -0.329582
     68          1           0       -7.209002    4.901161    0.465670
     69          1           0       -9.802539   -0.856168    0.932167
     70          1           0       -1.305124   -2.547247    0.177513
     71          1           0       -0.801594   -0.127777   -1.364718
     72          1           0        0.372962   -1.141472    1.018192
     73          1           0       -0.422298    0.413576    1.605573
     74          1           0        0.773625    0.433459    0.344257
     75          1           0       -2.013794   -1.979537   -2.620836
     76          1           0       -1.785908   -3.566249   -1.849530
     77          1           0        0.226171   -1.517928   -2.823773
     78          1           0        0.064092   -3.294129   -2.961388
     79          1           0       -1.458287    5.055610   -0.998895
     80          1           0       -0.950407    4.024106    0.426527
     81          1           0       -1.602903    5.696089    0.600682
     82          1           0       -2.648754    7.228883   -0.231148
     83          1           0       -3.423899    7.359134    1.424343
     84          1           0       -3.886614    8.471564    0.156947
     85          1           0       -9.609236    3.691313   -0.665552
     86          1           0      -10.547140    1.614887    1.183345
     87          1           0       -8.908439    4.140982    2.121314
     88          1           0      -10.614652    3.610981    2.107343
     89          1           0      -10.002344    5.093836    1.278467
     90          1           0      -10.403474    0.446826   -1.462777
     91          1           0      -10.574462    2.181907   -1.767428
     92          1           0      -12.496527    1.285470    0.323455
     93          1           0      -12.617095    0.200606   -1.047155
     94          1           0      -12.896957    1.990405   -1.195338
     95          1           0       -9.726468   -3.120464    0.378877
     96          1           0       -9.299959   -3.978854    1.923259
     97          1           0       -9.022491   -4.631823    0.216322
     98          1           0       -3.914601   -4.418038   -0.793663
     99          1           0       -0.822355   -5.332514    1.934757
    100          1           0       -0.723647   -6.542942    0.760178
    101          1           0       -1.662431   -6.900481    2.215859
    102          1           0        3.503581   -3.273157   -0.697476
    103          1           0        3.413209   -1.551290   -0.148369
    104          1           0        4.437408   -1.173935   -2.509269
    105          1           0        7.386821   -3.521914   -0.620583
    106          1           0        6.376653   -4.641262   -1.568999
    107          1           0        5.631229   -3.742200   -0.199497
    108          1           0        6.453904   -2.669775   -3.896379
    109          1           0        7.725225   -2.810121   -2.838683
    110          1           0        6.749950    0.021891   -2.668951
    111          1           0        6.929659   -0.466134   -4.349171
    112          1           0        9.120582   -0.270056   -4.284996
    113          1           0        9.146172   -1.580462   -3.258237
    114          1           0        8.512849    0.930516   -1.737317
    115          1           0        9.959186   -0.236567   -0.190189
    116          1           0       10.844120   -1.026772   -1.481870
    117          1           0        9.289396   -1.594272   -1.037790
    118          1           0       10.043312    1.658811   -3.599225
    119          1           0       11.247349    0.471559   -2.976881
    120          1           0       10.188939    2.551604   -0.986340
    121          1           0       10.883890    3.219586   -2.465096
    122          1           0       12.887260    2.454281   -2.126382
    123          1           0       12.526613    1.076021   -1.093487
    124          1           0       11.691147    3.447724    0.478089
    125          1           0       14.519855    4.014590   -0.000840
    126          1           0       13.184529    5.175421    0.304147
    127          1           0       13.387307    4.398431   -1.300198
    128          1           0       13.904901    2.942055    1.557189
    129          1           0       14.047604    1.461882    0.694905
    130          1           0       11.404139    1.304112    1.735894
    131          1           0       12.259847    2.306221    2.908210
    132          1           0       14.096002    0.424148    2.853511
    133          1           0       12.705513   -0.407641    2.024728
    134          1           0       12.022231    1.045233    4.679524
    135          1           0       14.073195   -1.101933    4.542625
    136          1           0       13.274455   -0.679940    6.067168
    137          1           0       14.276998    0.561727    5.191519
    138          1           0       11.532148   -1.838676    4.185842
    139          1           0       10.636208   -0.590186    3.354209
    140          1           0       10.628635   -0.674907    5.110625
 ---------------------------------------------------------------------

 SCF Done:  E(RCAM-B3LYP) =  -3007.14141673     A.U. after   19 cycles

 Excitation energies and oscillator strengths:

 Excited State   1:      Singlet-A      1.6340 eV  758.79 nm  f=0.3628  <S**2>=0.000
     245 -> 248        0.18760
     246 -> 247        0.68305
     245 <- 248        0.11173
 This state for optimization and/or second-order correction.
 Total Energy, E(TD-HF/TD-DFT) =  -3007.08136973
 Copying the excited state density for this state as the 1-particle RhoCI density.

 Excited State   2:      Singlet-A      2.1455 eV  577.89 nm  f=0.1064  <S**2>=0.000
     245 -> 247        0.63789
     246 -> 248       -0.29832

 Excited State   3:      Singlet-A      3.3895 eV  365.79 nm  f=0.6690  <S**2>=0.000
     245 -> 247        0.28869
     246 -> 248        0.61393
     245 <- 247       -0.11320

 Excited State   4:      Singlet-A      3.4313 eV  361.33 nm  f=0.0142  <S**2>=0.000
     239 -> 247        0.45137
     239 -> 249       -0.34213
     239 -> 250        0.12290
     240 -> 247       -0.28363
     240 -> 249        0.18626

 Excited State   5:      Singlet-A      3.6099 eV  343.46 nm  f=0.0099  <S**2>=0.000
     240 -> 247       -0.10651
     244 -> 247        0.65848
     246 -> 249        0.15072

 The electronic state is 1-A.
 Alpha  occ. eigenvalues --  -46.88598 -19.27596 -19.24683 -19.21612 -19.19058
 Alpha  occ. eigenvalues --  -19.18348 -19.17788 -14.42079 -14.40921 -14.40202
 Alpha  occ. eigenvalues --  -14.39839 -10.41074 -10.38234 -10.35569 -10.34971
 Alpha  occ. eigenvalues --  -10.33293 -10.31082 -10.31041 -10.30816 -10.30783
 Alpha  occ. eigenvalues --  -10.30703 -10.30534 -10.30076 -10.29994 -10.29602
 Alpha  occ. eigenvalues --  -10.28379 -10.28269 -10.28261 -10.28240 -10.28192
 Alpha  occ. eigenvalues --  -10.28011 -10.27970 -10.27916 -10.27744 -10.27250
 Alpha  occ. eigenvalues --  -10.27088 -10.27084 -10.26989 -10.26978 -10.26956
 Alpha  occ. eigenvalues --  -10.26922 -10.26476 -10.26443 -10.26320 -10.26289
 Alpha  occ. eigenvalues --  -10.26173 -10.26102 -10.25744 -10.25740 -10.25702
 Alpha  occ. eigenvalues --  -10.25667 -10.25542 -10.25508 -10.25489 -10.25232
 Alpha  occ. eigenvalues --  -10.25077 -10.24997 -10.24882 -10.24596 -10.24517
 Alpha  occ. eigenvalues --  -10.24452 -10.24339 -10.24247 -10.24206 -10.24121
 Alpha  occ. eigenvalues --  -10.23906  -3.17310  -1.92183  -1.91767  -1.91640
 Alpha  occ. eigenvalues --   -1.18502  -1.16051  -1.09655  -1.09270  -1.07546
 Alpha  occ. eigenvalues --   -1.04979  -1.04206  -1.03078  -1.02295  -1.01068
 Alpha  occ. eigenvalues --   -0.91306  -0.91076  -0.90298  -0.89950  -0.89306
 Alpha  occ. eigenvalues --   -0.89211  -0.87943  -0.87910  -0.86979  -0.86445
 Alpha  occ. eigenvalues --   -0.86250  -0.85659  -0.84180  -0.83411  -0.83090
 Alpha  occ. eigenvalues --   -0.82278  -0.81648  -0.81086  -0.80616  -0.80315
 Alpha  occ. eigenvalues --   -0.79621  -0.78263  -0.77844  -0.77219  -0.76154
 Alpha  occ. eigenvalues --   -0.75849  -0.75668  -0.74760  -0.74535  -0.74109
 Alpha  occ. eigenvalues --   -0.73611  -0.71980  -0.71164  -0.69942  -0.69173
 Alpha  occ. eigenvalues --   -0.68854  -0.68373  -0.66817  -0.66566  -0.65611
 Alpha  occ. eigenvalues --   -0.65506  -0.65263  -0.64386  -0.64321  -0.63921
 Alpha  occ. eigenvalues --   -0.63682  -0.63543  -0.62705  -0.61520  -0.60032
 Alpha  occ. eigenvalues --   -0.59877  -0.59124  -0.58686  -0.58263  -0.57798
 Alpha  occ. eigenvalues --   -0.57161  -0.56753  -0.56498  -0.55430  -0.55237
 Alpha  occ. eigenvalues --   -0.54820  -0.54714  -0.54580  -0.54451  -0.54014
 Alpha  occ. eigenvalues --   -0.53922  -0.53836  -0.53308  -0.53006  -0.52906
 Alpha  occ. eigenvalues --   -0.52859  -0.52383  -0.52282  -0.51895  -0.51577
 Alpha  occ. eigenvalues --   -0.51546  -0.51406  -0.51267  -0.50877  -0.50716
 Alpha  occ. eigenvalues --   -0.50668  -0.50208  -0.49916  -0.49689  -0.49435
 Alpha  occ. eigenvalues --   -0.49191  -0.48962  -0.48794  -0.48762  -0.48603
 Alpha  occ. eigenvalues --   -0.48452  -0.48250  -0.48216  -0.48049  -0.47613
 Alpha  occ. eigenvalues --   -0.47513  -0.47258  -0.47021  -0.46911  -0.46409
 Alpha  occ. eigenvalues --   -0.46256  -0.46131  -0.45628  -0.45405  -0.45343
 Alpha  occ. eigenvalues --   -0.45287  -0.45123  -0.44946  -0.44827  -0.44717
 Alpha  occ. eigenvalues --   -0.44564  -0.44425  -0.44267  -0.44182  -0.44161
 Alpha  occ. eigenvalues --   -0.44127  -0.43655  -0.43422  -0.43226  -0.42532
 Alpha  occ. eigenvalues --   -0.42520  -0.42293  -0.42233  -0.42075  -0.42011
 Alpha  occ. eigenvalues --   -0.41952  -0.41694  -0.41652  -0.41510  -0.41156
 Alpha  occ. eigenvalues --   -0.40906  -0.40588  -0.40483  -0.40352  -0.40268
 Alpha  occ. eigenvalues --   -0.40249  -0.39861  -0.39548  -0.39484  -0.38989
 Alpha  occ. eigenvalues --   -0.38808  -0.38639  -0.38400  -0.38122  -0.38001
 Alpha  occ. eigenvalues --   -0.37494  -0.37466  -0.36881  -0.36259  -0.35755
 Alpha  occ. eigenvalues --   -0.35675  -0.35305  -0.34798  -0.34152  -0.34055
 Alpha  occ. eigenvalues --   -0.33970  -0.32652  -0.31972  -0.30934  -0.30670
 Alpha  occ. eigenvalues --   -0.30610  -0.30388  -0.30159  -0.29583  -0.23069
 Alpha  occ. eigenvalues --   -0.20290
 Alpha virt. eigenvalues --   -0.08071  -0.01395   0.00162   0.02097   0.02766
 Alpha virt. eigenvalues --    0.03810   0.04488   0.05739   0.06000   0.06399
 Alpha virt. eigenvalues --    0.07353   0.08001   0.08374   0.08779   0.09169

 Mulliken charges:
               1
     1  Mg   0.871018
     2  C   -0.008860
     3  C   -0.042550
     4  C   -0.052196
     5  C   -0.080423
     6  N   -0.224477
     7  C    0.000498
     8  C   -0.057044
     9  C   -0.061373
    10  C   -0.047761
    11  C    0.062732
    12  C    0.091278
    13  C    0.016085
    14  C    0.172978
    15  O   -0.245604
    16  O   -0.308184
    17  N   -0.350756
    18  C    0.143519
    19  C   -0.170718
    20  C   -0.032913
    21  C    0.101821
    22  C    0.125899
    23  C   -0.017218
    24  O   -0.209069
    25  C    0.050511
    26  N   -0.326028
    27  C    0.003217
    28  C   -0.025040
    29  C   -0.028734
    30  C    0.031300
    31  C    0.078229
    32  C    0.065903
    33  C    0.004599
    34  N   -0.410243
    35  C    0.121215
    36  C   -0.179351
    37  C    0.028580
    38  C    0.078599
    39  C    0.122504
    40  C    0.105891
    41  O   -0.200999
    42  C   -0.018882
    43  C    0.182335
    44  O   -0.254672
    45  O   -0.299235
    46  C    0.181726
    47  C    0.276455
    48  C   -0.149105
    49  C   -0.199732
    50  C    0.069393
    51  C    0.086033
    52  C    0.072216
    53  C    0.045991
    54  C   -0.123999
    55  C    0.049644
    56  C    0.033591
    57  C    0.027787
    58  C    0.034504
    59  C   -0.141504
    60  C    0.044407
    61  C    0.074695
    62  C    0.009210
    63  C    0.034155
    64  C   -0.136450
    65  C    0.046643
    66  C    0.043544
    67  H   -0.040431
    68  H   -0.010790
    69  H   -0.026149
    70  H    0.029595
    71  H    0.008446
    72  H    0.040228
    73  H    0.032347
    74  H    0.006118
    75  H   -0.004958
    76  H    0.016721
    77  H    0.037833
    78  H    0.035472
    79  H    0.035682
    80  H    0.035919
    81  H    0.016070
    82  H    0.031973
    83  H    0.042375
    84  H    0.027385
    85  H    0.021111
    86  H    0.008883
    87  H    0.022507
    88  H    0.020287
    89  H    0.022965
    90  H    0.018101
    91  H    0.009420
    92  H    0.009944
    93  H    0.023167
    94  H    0.021004
    95  H   -0.001850
    96  H    0.050373
    97  H    0.032796
    98  H    0.039395
    99  H    0.047061
   100  H    0.025341
   101  H    0.048477
   102  H    0.027819
   103  H    0.041345
   104  H   -0.000635
   105  H    0.027811
   106  H    0.033926
   107  H    0.015219
   108  H    0.016415
   109  H   -0.020344
   110  H    0.010591
   111  H   -0.003639
   112  H   -0.019784
   113  H   -0.018371
   114  H   -0.006092
   115  H    0.000359
   116  H    0.001964
   117  H   -0.006525
   118  H   -0.010112
   119  H    0.000451
   120  H   -0.002269
   121  H   -0.004271
   122  H   -0.000579
   123  H    0.000965
   124  H   -0.002879
   125  H    0.005735
   126  H    0.015884
   127  H   -0.006027
   128  H   -0.022741
   129  H   -0.002278
   130  H   -0.000835
   131  H   -0.010537
   132  H   -0.002359
   133  H    0.003433
   134  H   -0.002414
   135  H    0.006725
   136  H    0.004054
   137  H    0.015672
   138  H   -0.003325
   139  H   -0.003238
   140  H    0.002481
 Sum of Mulliken charges =  -0.00000

 Dipole moment (field-independent basis, Debye):
    X=              4.4087    Y=              2.2669    Z=             -4.4998  Tot=              6.6951
 Quadrupole moment (field-independent basis, Debye-Ang):
   XX=           -367.0200   YY=           -433.9935   ZZ=           -407.3970
   XY=            -18.6400   XZ=              4.9698   YZ=             19.6670

 Normal termination of Gaussian 16 at Sat Apr 30 16:38:04 2022.
