 Gaussian 16, Revision A.03,
 Gaussian 16:  ES64L-G16RevA.03 25-Dec-2016

 ---------------------------------
 #p PBE1PBE/Def2SVP td=(nstates=5)
 ---------------------------------

 ----------------------------------------------------
 step_801_chromophore_3 TDDFT with PBE1PBE functional
 ----------------------------------------------------
 Symbolic Z-matrix:
 Charge =  0 Multiplicity = 1

                         Standard orientation:
 ---------------------------------------------------------------------
 Center     Atomic      Atomic             Coordinates (Angstroms)
 Number     Number       Type             X           Y           Z
 ---------------------------------------------------------------------
      1         12           0       -5.774302    0.700001   -0.150631
      2          6           0       -4.309571   -2.581448    0.044403
      3          6           0       -2.392819    1.853245   -0.368960
      4          6           0       -6.833205    3.884728    0.323502
      5          6           0       -8.818632   -0.458434    0.674915
      6          7           0       -3.560887   -0.353516   -0.229049
      7          6           0       -3.290445   -1.646918   -0.251930
      8          6           0       -1.797783   -1.882565   -0.532409
      9          6           0       -1.172332   -0.400081   -0.376624
     10          6           0       -2.420783    0.451414   -0.295658
     11          6           0       -0.035250   -0.163037    0.765204
     12          6           0       -1.496125   -2.515325   -1.825324
     13          6           0       -0.014884   -2.438033   -2.291179
     14          6           0        1.128830   -2.674974   -1.266350
     15          8           0        0.988301   -3.296842   -0.207578
     16          8           0        2.215312   -2.089211   -1.817449
     17          7           0       -4.747585    2.589499   -0.181584
     18          6           0       -3.410866    2.841659   -0.162418
     19          6           0       -3.097088    4.282241    0.025956
     20          6           0       -4.364661    4.930940    0.050052
     21          6           0       -5.384371    3.836194    0.028924
     22          6           0       -1.647241    4.765222    0.035086
     23          6           0       -4.670286    6.410856    0.127557
     24          8           0       -5.829644    6.804948    0.034558
     25          6           0       -3.546020    7.453082    0.345337
     26          7           0       -7.545497    1.592212    0.217121
     27          6           0       -7.865865    2.916216    0.287162
     28          6           0       -9.438387    3.199931    0.292324
     29          6           0      -10.003773    1.740221    0.246331
     30          6           0       -8.726441    0.942120    0.360617
     31          6           0       -9.809567    4.046984    1.516230
     32          6           0      -10.804007    1.379745   -1.066650
     33          6           0      -12.298136    1.197599   -0.745046
     34          7           0       -6.467957   -1.086150    0.238459
     35          6           0       -7.762547   -1.445542    0.575351
     36          6           0       -7.844782   -2.948957    0.747168
     37          6           0       -6.560898   -3.416716    0.612650
     38          6           0       -5.750072   -2.241542    0.192984
     39          6           0       -9.020115   -3.775361    0.889803
     40          6           0       -5.733189   -4.591241    0.604018
     41          8           0       -6.023388   -5.783781    0.888713
     42          6           0       -4.253383   -4.086194    0.187648
     43          6           0       -3.219149   -4.556952    1.203680
     44          8           0       -3.088806   -4.168376    2.384211
     45          8           0       -2.581318   -5.616828    0.731412
     46          6           0       -1.419391   -6.127407    1.487811
     47          6           0        3.410377   -2.229670   -1.001328
     48          6           0        4.706351   -1.930358   -1.772962
     49          6           0        5.930990   -2.501888   -1.881259
     50          6           0        6.380243   -3.718046   -0.990326
     51          6           0        6.856963   -2.175924   -3.011842
     52          6           0        7.219829   -0.709619   -3.327082
     53          6           0        8.729830   -0.574444   -3.313726
     54          6           0        9.274500    0.294579   -2.187110
     55          6           0        9.856885   -0.674725   -1.182504
     56          6           0       10.460223    1.178116   -2.713960
     57          6           0       10.872452    2.348045   -1.810755
     58          6           0       12.327988    2.137133   -1.246458
     59          6           0       12.592232    2.988587    0.069541
     60          6           0       13.482849    4.269538   -0.222373
     61          6           0       13.308503    2.165113    1.079528
     62          6           0       12.388931    1.552758    2.131026
     63          6           0       13.013785    0.331167    2.765708
     64          6           0       12.444278    0.153134    4.217939
     65          6           0       13.606359   -0.292338    5.102907
     66          6           0       11.258897   -0.783833    4.227338
     67          1           0       -1.319423    2.052640   -0.329582
     68          1           0       -7.209002    4.901161    0.465670
     69          1           0       -9.802539   -0.856168    0.932167
     70          1           0       -1.305124   -2.547247    0.177513
     71          1           0       -0.801594   -0.127777   -1.364718
     72          1           0        0.372962   -1.141472    1.018192
     73          1           0       -0.422298    0.413576    1.605573
     74          1           0        0.773625    0.433459    0.344257
     75          1           0       -2.013794   -1.979537   -2.620836
     76          1           0       -1.785908   -3.566249   -1.849530
     77          1           0        0.226171   -1.517928   -2.823773
     78          1           0        0.064092   -3.294129   -2.961388
     79          1           0       -1.458287    5.055610   -0.998895
     80          1           0       -0.950407    4.024106    0.426527
     81          1           0       -1.602903    5.696089    0.600682
     82          1           0       -2.648754    7.228883   -0.231148
     83          1           0       -3.423899    7.359134    1.424343
     84          1           0       -3.886614    8.471564    0.156947
     85          1           0       -9.609236    3.691313   -0.665552
     86          1           0      -10.547140    1.614887    1.183345
     87          1           0       -8.908439    4.140982    2.121314
     88          1           0      -10.614652    3.610981    2.107343
     89          1           0      -10.002344    5.093836    1.278467
     90          1           0      -10.403474    0.446826   -1.462777
     91          1           0      -10.574462    2.181907   -1.767428
     92          1           0      -12.496527    1.285470    0.323455
     93          1           0      -12.617095    0.200606   -1.047155
     94          1           0      -12.896957    1.990405   -1.195338
     95          1           0       -9.726468   -3.120464    0.378877
     96          1           0       -9.299959   -3.978854    1.923259
     97          1           0       -9.022491   -4.631823    0.216322
     98          1           0       -3.914601   -4.418038   -0.793663
     99          1           0       -0.822355   -5.332514    1.934757
    100          1           0       -0.723647   -6.542942    0.760178
    101          1           0       -1.662431   -6.900481    2.215859
    102          1           0        3.503581   -3.273157   -0.697476
    103          1           0        3.413209   -1.551290   -0.148369
    104          1           0        4.437408   -1.173935   -2.509269
    105          1           0        7.386821   -3.521914   -0.620583
    106          1           0        6.376653   -4.641262   -1.568999
    107          1           0        5.631229   -3.742200   -0.199497
    108          1           0        6.453904   -2.669775   -3.896379
    109          1           0        7.725225   -2.810121   -2.838683
    110          1           0        6.749950    0.021891   -2.668951
    111          1           0        6.929659   -0.466134   -4.349171
    112          1           0        9.120582   -0.270056   -4.284996
    113          1           0        9.146172   -1.580462   -3.258237
    114          1           0        8.512849    0.930516   -1.737317
    115          1           0        9.959186   -0.236567   -0.190189
    116          1           0       10.844120   -1.026772   -1.481870
    117          1           0        9.289396   -1.594272   -1.037790
    118          1           0       10.043312    1.658811   -3.599225
    119          1           0       11.247349    0.471559   -2.976881
    120          1           0       10.188939    2.551604   -0.986340
    121          1           0       10.883890    3.219586   -2.465096
    122          1           0       12.887260    2.454281   -2.126382
    123          1           0       12.526613    1.076021   -1.093487
    124          1           0       11.691147    3.447724    0.478089
    125          1           0       14.519855    4.014590   -0.000840
    126          1           0       13.184529    5.175421    0.304147
    127          1           0       13.387307    4.398431   -1.300198
    128          1           0       13.904901    2.942055    1.557189
    129          1           0       14.047604    1.461882    0.694905
    130          1           0       11.404139    1.304112    1.735894
    131          1           0       12.259847    2.306221    2.908210
    132          1           0       14.096002    0.424148    2.853511
    133          1           0       12.705513   -0.407641    2.024728
    134          1           0       12.022231    1.045233    4.679524
    135          1           0       14.073195   -1.101933    4.542625
    136          1           0       13.274455   -0.679940    6.067168
    137          1           0       14.276998    0.561727    5.191519
    138          1           0       11.532148   -1.838676    4.185842
    139          1           0       10.636208   -0.590186    3.354209
    140          1           0       10.628635   -0.674907    5.110625
 ---------------------------------------------------------------------

 SCF Done:  E(RPBE1PBE) =  -3005.33192468     A.U. after   16 cycles

 Excitation energies and oscillator strengths:

 Excited State   1:      Singlet-A      1.7937 eV  691.23 nm  f=0.3544  <S**2>=0.000
     245 -> 248        0.17591
     246 -> 247        0.69063
     246 <- 247       -0.10760
 This state for optimization and/or second-order correction.
 Total Energy, E(TD-HF/TD-DFT) =  -3005.26600838
 Copying the excited state density for this state as the 1-particle RhoCI density.

 Excited State   2:      Singlet-A      2.1415 eV  578.97 nm  f=0.1066  <S**2>=0.000
     245 -> 247        0.65236
     246 -> 248       -0.26161

 Excited State   3:      Singlet-A      3.0596 eV  405.24 nm  f=0.0020  <S**2>=0.000
     242 -> 247        0.64172
     242 -> 249       -0.23440

 Excited State   4:      Singlet-A      3.1758 eV  390.41 nm  f=0.2687  <S**2>=0.000
     240 -> 247        0.17238
     243 -> 247       -0.15724
     244 -> 247       -0.17359
     245 -> 247        0.19571
     245 -> 249       -0.10302
     245 -> 250        0.11301
     246 -> 248        0.56082
     246 -> 249        0.13216

 Excited State   5:      Singlet-A      3.2014 eV  387.28 nm  f=0.0489  <S**2>=0.000
     243 -> 247        0.40972
     243 -> 250        0.10212
     244 -> 247        0.46120
     246 -> 248        0.21913

 The electronic state is 1-A.
 Alpha  occ. eigenvalues --  -46.92050 -19.28273 -19.25273 -19.21905 -19.19165
 Alpha  occ. eigenvalues --  -19.18676 -19.18000 -14.41620 -14.40407 -14.39800
 Alpha  occ. eigenvalues --  -14.39568 -10.38116 -10.35209 -10.32591 -10.32227
 Alpha  occ. eigenvalues --  -10.30681 -10.28728 -10.28717 -10.28600 -10.28450
 Alpha  occ. eigenvalues --  -10.28274 -10.28167 -10.27816 -10.27743 -10.27489
 Alpha  occ. eigenvalues --  -10.26242 -10.26146 -10.25931 -10.25815 -10.25798
 Alpha  occ. eigenvalues --  -10.25769 -10.25672 -10.25608 -10.25512 -10.25140
 Alpha  occ. eigenvalues --  -10.24871 -10.24654 -10.24611 -10.24604 -10.24551
 Alpha  occ. eigenvalues --  -10.24319 -10.24136 -10.24033 -10.23969 -10.23839
 Alpha  occ. eigenvalues --  -10.23680 -10.23643 -10.23369 -10.23316 -10.23231
 Alpha  occ. eigenvalues --  -10.23214 -10.23177 -10.23080 -10.22881 -10.22836
 Alpha  occ. eigenvalues --  -10.22659 -10.22538 -10.22473 -10.22071 -10.22054
 Alpha  occ. eigenvalues --  -10.21979 -10.21763 -10.21713 -10.21616 -10.21469
 Alpha  occ. eigenvalues --  -10.21452  -3.14334  -1.87148  -1.86710  -1.86588
 Alpha  occ. eigenvalues --   -1.13327  -1.10810  -1.04495  -1.04108  -1.02132
 Alpha  occ. eigenvalues --   -0.99729  -0.98839  -0.97667  -0.96911  -0.95853
 Alpha  occ. eigenvalues --   -0.85433  -0.85327  -0.84406  -0.84132  -0.83516
 Alpha  occ. eigenvalues --   -0.83455  -0.82162  -0.82046  -0.81300  -0.80780
 Alpha  occ. eigenvalues --   -0.80608  -0.79868  -0.78394  -0.77680  -0.77369
 Alpha  occ. eigenvalues --   -0.76488  -0.75893  -0.75301  -0.74824  -0.74553
 Alpha  occ. eigenvalues --   -0.73947  -0.72531  -0.72163  -0.71558  -0.70317
 Alpha  occ. eigenvalues --   -0.69990  -0.69916  -0.68966  -0.68861  -0.68269
 Alpha  occ. eigenvalues --   -0.67938  -0.66404  -0.65545  -0.64337  -0.63490
 Alpha  occ. eigenvalues --   -0.63168  -0.62782  -0.61345  -0.60782  -0.60117
 Alpha  occ. eigenvalues --   -0.59984  -0.59463  -0.58871  -0.58478  -0.58422
 Alpha  occ. eigenvalues --   -0.58099  -0.57826  -0.56895  -0.56084  -0.54472
 Alpha  occ. eigenvalues --   -0.54420  -0.53632  -0.53311  -0.52823  -0.52284
 Alpha  occ. eigenvalues --   -0.51801  -0.51265  -0.50835  -0.50026  -0.49737
 Alpha  occ. eigenvalues --   -0.49309  -0.49163  -0.49141  -0.48863  -0.48566
 Alpha  occ. eigenvalues --   -0.48427  -0.48236  -0.47931  -0.47510  -0.47462
 Alpha  occ. eigenvalues --   -0.47333  -0.46919  -0.46816  -0.46455  -0.46128
 Alpha  occ. eigenvalues --   -0.45995  -0.45908  -0.45824  -0.45504  -0.45290
 Alpha  occ. eigenvalues --   -0.45243  -0.44761  -0.44581  -0.44331  -0.44060
 Alpha  occ. eigenvalues --   -0.43745  -0.43582  -0.43367  -0.43341  -0.43201
 Alpha  occ. eigenvalues --   -0.43047  -0.42871  -0.42792  -0.42651  -0.42306
 Alpha  occ. eigenvalues --   -0.42196  -0.41949  -0.41721  -0.41524  -0.41080
 Alpha  occ. eigenvalues --   -0.40915  -0.40813  -0.40370  -0.40112  -0.40026
 Alpha  occ. eigenvalues --   -0.39933  -0.39915  -0.39789  -0.39481  -0.39462
 Alpha  occ. eigenvalues --   -0.39324  -0.39264  -0.39079  -0.39000  -0.38827
 Alpha  occ. eigenvalues --   -0.38810  -0.38388  -0.38211  -0.38065  -0.37385
 Alpha  occ. eigenvalues --   -0.37272  -0.37187  -0.37035  -0.36836  -0.36794
 Alpha  occ. eigenvalues --   -0.36731  -0.36569  -0.36411  -0.36347  -0.36063
 Alpha  occ. eigenvalues --   -0.35643  -0.35432  -0.35335  -0.35135  -0.35125
 Alpha  occ. eigenvalues --   -0.35015  -0.34597  -0.34504  -0.34283  -0.33968
 Alpha  occ. eigenvalues --   -0.33661  -0.33632  -0.33272  -0.33139  -0.32725
 Alpha  occ. eigenvalues --   -0.32534  -0.32244  -0.31961  -0.31093  -0.30817
 Alpha  occ. eigenvalues --   -0.30545  -0.30244  -0.29730  -0.29295  -0.29033
 Alpha  occ. eigenvalues --   -0.28935  -0.27753  -0.27224  -0.26249  -0.25997
 Alpha  occ. eigenvalues --   -0.25645  -0.25595  -0.25401  -0.25242  -0.20028
 Alpha  occ. eigenvalues --   -0.17973
 Alpha virt. eigenvalues --   -0.10560  -0.04935  -0.03986  -0.02309  -0.00772
 Alpha virt. eigenvalues --   -0.00065  -0.00008   0.01206   0.01527   0.02965
 Alpha virt. eigenvalues --    0.04123   0.04180   0.04665   0.05150   0.05544

 Mulliken charges:
               1
     1  Mg   1.023425
     2  C   -0.013635
     3  C   -0.040244
     4  C   -0.051639
     5  C   -0.066745
     6  N   -0.323284
     7  C    0.070168
     8  C   -0.126845
     9  C   -0.140734
    10  C    0.001157
    11  C   -0.000207
    12  C    0.044530
    13  C   -0.066850
    14  C    0.241959
    15  O   -0.279347
    16  O   -0.340644
    17  N   -0.459225
    18  C    0.166260
    19  C   -0.190838
    20  C   -0.081416
    21  C    0.133244
    22  C    0.060475
    23  C    0.033850
    24  O   -0.244584
    25  C   -0.024768
    26  N   -0.429431
    27  C    0.033147
    28  C   -0.098100
    29  C   -0.102994
    30  C    0.060532
    31  C    0.020540
    32  C    0.009498
    33  C   -0.067258
    34  N   -0.535715
    35  C    0.139357
    36  C   -0.205739
    37  C   -0.007550
    38  C    0.125446
    39  C    0.067344
    40  C    0.188832
    41  O   -0.246400
    42  C   -0.123392
    43  C    0.272911
    44  O   -0.288900
    45  O   -0.333727
    46  C    0.127830
    47  C    0.234452
    48  C   -0.158565
    49  C   -0.240190
    50  C   -0.000145
    51  C    0.026099
    52  C    0.007515
    53  C   -0.006753
    54  C   -0.213448
    55  C   -0.012199
    56  C   -0.022621
    57  C   -0.031966
    58  C   -0.017105
    59  C   -0.225786
    60  C   -0.017850
    61  C    0.015612
    62  C   -0.051430
    63  C   -0.026391
    64  C   -0.229074
    65  C   -0.020152
    66  C   -0.013405
    67  H   -0.007056
    68  H    0.022357
    69  H    0.005647
    70  H    0.069836
    71  H    0.048570
    72  H    0.068123
    73  H    0.059814
    74  H    0.033471
    75  H    0.029775
    76  H    0.050219
    77  H    0.067865
    78  H    0.070114
    79  H    0.065518
    80  H    0.062467
    81  H    0.045860
    82  H    0.058143
    83  H    0.070504
    84  H    0.055485
    85  H    0.057579
    86  H    0.045057
    87  H    0.050316
    88  H    0.047571
    89  H    0.050440
    90  H    0.051574
    91  H    0.041087
    92  H    0.036886
    93  H    0.050352
    94  H    0.048716
    95  H    0.025595
    96  H    0.076579
    97  H    0.059861
    98  H    0.077413
    99  H    0.067310
   100  H    0.046922
   101  H    0.069884
   102  H    0.054182
   103  H    0.067886
   104  H    0.029904
   105  H    0.056996
   106  H    0.061598
   107  H    0.043469
   108  H    0.049637
   109  H    0.010367
   110  H    0.041377
   111  H    0.030429
   112  H    0.012038
   113  H    0.014580
   114  H    0.029671
   115  H    0.031474
   116  H    0.028377
   117  H    0.026790
   118  H    0.024241
   119  H    0.031274
   120  H    0.028582
   121  H    0.029027
   122  H    0.031670
   123  H    0.033594
   124  H    0.033550
   125  H    0.033529
   126  H    0.043385
   127  H    0.022869
   128  H    0.013480
   129  H    0.028676
   130  H    0.034096
   131  H    0.023127
   132  H    0.030198
   133  H    0.036718
   134  H    0.034145
   135  H    0.035523
   136  H    0.032414
   137  H    0.044559
   138  H    0.024406
   139  H    0.025122
   140  H    0.030293
 Sum of Mulliken charges =  -0.00000

 Dipole moment (field-independent basis, Debye):
    X=              4.4379    Y=              2.5607    Z=             -4.5804  Tot=              6.8726
 Quadrupole moment (field-independent basis, Debye-Ang):
   XX=           -361.7419   YY=           -431.1891   ZZ=           -404.9103
   XY=            -20.6541   XZ=              4.6951   YZ=             19.8735

 Normal termination of Gaussian 16 at Sat Apr 30 17:01:44 2022.
