 Gaussian 16, Revision A.03,
 Gaussian 16:  ES64L-G16RevA.03 25-Dec-2016

 --------------------------------
 #p wB97XD/Def2SVP td=(nstates=5)
 --------------------------------

 ---------------------------------------------------
 step_801_chromophore_3 TDDFT with wB97XD functional
 ---------------------------------------------------
 Symbolic Z-matrix:
 Charge =  0 Multiplicity = 1

                         Standard orientation:
 ---------------------------------------------------------------------
 Center     Atomic      Atomic             Coordinates (Angstroms)
 Number     Number       Type             X           Y           Z
 ---------------------------------------------------------------------
      1         12           0       -5.774302    0.700001   -0.150631
      2          6           0       -4.309571   -2.581448    0.044403
      3          6           0       -2.392819    1.853245   -0.368960
      4          6           0       -6.833205    3.884728    0.323502
      5          6           0       -8.818632   -0.458434    0.674915
      6          7           0       -3.560887   -0.353516   -0.229049
      7          6           0       -3.290445   -1.646918   -0.251930
      8          6           0       -1.797783   -1.882565   -0.532409
      9          6           0       -1.172332   -0.400081   -0.376624
     10          6           0       -2.420783    0.451414   -0.295658
     11          6           0       -0.035250   -0.163037    0.765204
     12          6           0       -1.496125   -2.515325   -1.825324
     13          6           0       -0.014884   -2.438033   -2.291179
     14          6           0        1.128830   -2.674974   -1.266350
     15          8           0        0.988301   -3.296842   -0.207578
     16          8           0        2.215312   -2.089211   -1.817449
     17          7           0       -4.747585    2.589499   -0.181584
     18          6           0       -3.410866    2.841659   -0.162418
     19          6           0       -3.097088    4.282241    0.025956
     20          6           0       -4.364661    4.930940    0.050052
     21          6           0       -5.384371    3.836194    0.028924
     22          6           0       -1.647241    4.765222    0.035086
     23          6           0       -4.670286    6.410856    0.127557
     24          8           0       -5.829644    6.804948    0.034558
     25          6           0       -3.546020    7.453082    0.345337
     26          7           0       -7.545497    1.592212    0.217121
     27          6           0       -7.865865    2.916216    0.287162
     28          6           0       -9.438387    3.199931    0.292324
     29          6           0      -10.003773    1.740221    0.246331
     30          6           0       -8.726441    0.942120    0.360617
     31          6           0       -9.809567    4.046984    1.516230
     32          6           0      -10.804007    1.379745   -1.066650
     33          6           0      -12.298136    1.197599   -0.745046
     34          7           0       -6.467957   -1.086150    0.238459
     35          6           0       -7.762547   -1.445542    0.575351
     36          6           0       -7.844782   -2.948957    0.747168
     37          6           0       -6.560898   -3.416716    0.612650
     38          6           0       -5.750072   -2.241542    0.192984
     39          6           0       -9.020115   -3.775361    0.889803
     40          6           0       -5.733189   -4.591241    0.604018
     41          8           0       -6.023388   -5.783781    0.888713
     42          6           0       -4.253383   -4.086194    0.187648
     43          6           0       -3.219149   -4.556952    1.203680
     44          8           0       -3.088806   -4.168376    2.384211
     45          8           0       -2.581318   -5.616828    0.731412
     46          6           0       -1.419391   -6.127407    1.487811
     47          6           0        3.410377   -2.229670   -1.001328
     48          6           0        4.706351   -1.930358   -1.772962
     49          6           0        5.930990   -2.501888   -1.881259
     50          6           0        6.380243   -3.718046   -0.990326
     51          6           0        6.856963   -2.175924   -3.011842
     52          6           0        7.219829   -0.709619   -3.327082
     53          6           0        8.729830   -0.574444   -3.313726
     54          6           0        9.274500    0.294579   -2.187110
     55          6           0        9.856885   -0.674725   -1.182504
     56          6           0       10.460223    1.178116   -2.713960
     57          6           0       10.872452    2.348045   -1.810755
     58          6           0       12.327988    2.137133   -1.246458
     59          6           0       12.592232    2.988587    0.069541
     60          6           0       13.482849    4.269538   -0.222373
     61          6           0       13.308503    2.165113    1.079528
     62          6           0       12.388931    1.552758    2.131026
     63          6           0       13.013785    0.331167    2.765708
     64          6           0       12.444278    0.153134    4.217939
     65          6           0       13.606359   -0.292338    5.102907
     66          6           0       11.258897   -0.783833    4.227338
     67          1           0       -1.319423    2.052640   -0.329582
     68          1           0       -7.209002    4.901161    0.465670
     69          1           0       -9.802539   -0.856168    0.932167
     70          1           0       -1.305124   -2.547247    0.177513
     71          1           0       -0.801594   -0.127777   -1.364718
     72          1           0        0.372962   -1.141472    1.018192
     73          1           0       -0.422298    0.413576    1.605573
     74          1           0        0.773625    0.433459    0.344257
     75          1           0       -2.013794   -1.979537   -2.620836
     76          1           0       -1.785908   -3.566249   -1.849530
     77          1           0        0.226171   -1.517928   -2.823773
     78          1           0        0.064092   -3.294129   -2.961388
     79          1           0       -1.458287    5.055610   -0.998895
     80          1           0       -0.950407    4.024106    0.426527
     81          1           0       -1.602903    5.696089    0.600682
     82          1           0       -2.648754    7.228883   -0.231148
     83          1           0       -3.423899    7.359134    1.424343
     84          1           0       -3.886614    8.471564    0.156947
     85          1           0       -9.609236    3.691313   -0.665552
     86          1           0      -10.547140    1.614887    1.183345
     87          1           0       -8.908439    4.140982    2.121314
     88          1           0      -10.614652    3.610981    2.107343
     89          1           0      -10.002344    5.093836    1.278467
     90          1           0      -10.403474    0.446826   -1.462777
     91          1           0      -10.574462    2.181907   -1.767428
     92          1           0      -12.496527    1.285470    0.323455
     93          1           0      -12.617095    0.200606   -1.047155
     94          1           0      -12.896957    1.990405   -1.195338
     95          1           0       -9.726468   -3.120464    0.378877
     96          1           0       -9.299959   -3.978854    1.923259
     97          1           0       -9.022491   -4.631823    0.216322
     98          1           0       -3.914601   -4.418038   -0.793663
     99          1           0       -0.822355   -5.332514    1.934757
    100          1           0       -0.723647   -6.542942    0.760178
    101          1           0       -1.662431   -6.900481    2.215859
    102          1           0        3.503581   -3.273157   -0.697476
    103          1           0        3.413209   -1.551290   -0.148369
    104          1           0        4.437408   -1.173935   -2.509269
    105          1           0        7.386821   -3.521914   -0.620583
    106          1           0        6.376653   -4.641262   -1.568999
    107          1           0        5.631229   -3.742200   -0.199497
    108          1           0        6.453904   -2.669775   -3.896379
    109          1           0        7.725225   -2.810121   -2.838683
    110          1           0        6.749950    0.021891   -2.668951
    111          1           0        6.929659   -0.466134   -4.349171
    112          1           0        9.120582   -0.270056   -4.284996
    113          1           0        9.146172   -1.580462   -3.258237
    114          1           0        8.512849    0.930516   -1.737317
    115          1           0        9.959186   -0.236567   -0.190189
    116          1           0       10.844120   -1.026772   -1.481870
    117          1           0        9.289396   -1.594272   -1.037790
    118          1           0       10.043312    1.658811   -3.599225
    119          1           0       11.247349    0.471559   -2.976881
    120          1           0       10.188939    2.551604   -0.986340
    121          1           0       10.883890    3.219586   -2.465096
    122          1           0       12.887260    2.454281   -2.126382
    123          1           0       12.526613    1.076021   -1.093487
    124          1           0       11.691147    3.447724    0.478089
    125          1           0       14.519855    4.014590   -0.000840
    126          1           0       13.184529    5.175421    0.304147
    127          1           0       13.387307    4.398431   -1.300198
    128          1           0       13.904901    2.942055    1.557189
    129          1           0       14.047604    1.461882    0.694905
    130          1           0       11.404139    1.304112    1.735894
    131          1           0       12.259847    2.306221    2.908210
    132          1           0       14.096002    0.424148    2.853511
    133          1           0       12.705513   -0.407641    2.024728
    134          1           0       12.022231    1.045233    4.679524
    135          1           0       14.073195   -1.101933    4.542625
    136          1           0       13.274455   -0.679940    6.067168
    137          1           0       14.276998    0.561727    5.191519
    138          1           0       11.532148   -1.838676    4.185842
    139          1           0       10.636208   -0.590186    3.354209
    140          1           0       10.628635   -0.674907    5.110625
 ---------------------------------------------------------------------

 SCF Done:  E(RwB97XD) =  -3007.84010283     A.U. after   20 cycles

 Excitation energies and oscillator strengths:

 Excited State   1:      Singlet-A      1.5720 eV  788.71 nm  f=0.3606  <S**2>=0.000
     245 -> 248        0.19418
     246 -> 247        0.68057
     245 <- 248        0.12222
 This state for optimization and/or second-order correction.
 Total Energy, E(TD-HF/TD-DFT) =  -3007.78233363
 Copying the excited state density for this state as the 1-particle RhoCI density.

 Excited State   2:      Singlet-A      2.0888 eV  593.57 nm  f=0.1036  <S**2>=0.000
     245 -> 247        0.63611
     246 -> 248       -0.30147

 Excited State   3:      Singlet-A      3.4025 eV  364.39 nm  f=0.6935  <S**2>=0.000
     245 -> 247        0.29132
     246 -> 248        0.61278
     245 <- 247       -0.11966

 Excited State   4:      Singlet-A      3.4476 eV  359.62 nm  f=0.0107  <S**2>=0.000
     239 -> 247        0.29668
     239 -> 249       -0.25210
     240 -> 247        0.43081
     240 -> 249       -0.32011
     240 -> 250        0.10999

 Excited State   5:      Singlet-A      3.6427 eV  340.36 nm  f=0.0050  <S**2>=0.000
     240 -> 247        0.10208
     244 -> 247        0.65709

 The electronic state is 1-A.
 Alpha  occ. eigenvalues --  -46.94936 -19.32826 -19.29923 -19.26556 -19.24208
 Alpha  occ. eigenvalues --  -19.23340 -19.22794 -14.46679 -14.45518 -14.44823
 Alpha  occ. eigenvalues --  -14.44428 -10.44899 -10.42123 -10.39676 -10.38913
 Alpha  occ. eigenvalues --  -10.37179 -10.35086 -10.34930 -10.34840 -10.34832
 Alpha  occ. eigenvalues --  -10.34728 -10.34573 -10.34176 -10.33997 -10.33600
 Alpha  occ. eigenvalues --  -10.32496 -10.32365 -10.32324 -10.32310 -10.32279
 Alpha  occ. eigenvalues --  -10.32192 -10.31983 -10.31904 -10.31811 -10.31318
 Alpha  occ. eigenvalues --  -10.31147 -10.31070 -10.30998 -10.30934 -10.30907
 Alpha  occ. eigenvalues --  -10.30768 -10.30499 -10.30427 -10.30238 -10.30200
 Alpha  occ. eigenvalues --  -10.30128 -10.30049 -10.29678 -10.29635 -10.29596
 Alpha  occ. eigenvalues --  -10.29565 -10.29550 -10.29494 -10.29443 -10.29163
 Alpha  occ. eigenvalues --  -10.29022 -10.28913 -10.28822 -10.28430 -10.28418
 Alpha  occ. eigenvalues --  -10.28383 -10.28176 -10.28097 -10.28050 -10.27916
 Alpha  occ. eigenvalues --  -10.27822  -3.21089  -1.94653  -1.94212  -1.94085
 Alpha  occ. eigenvalues --   -1.20695  -1.18276  -1.11833  -1.11449  -1.09854
 Alpha  occ. eigenvalues --   -1.07199  -1.06213  -1.05103  -1.04336  -1.03080
 Alpha  occ. eigenvalues --   -0.93096  -0.93082  -0.92065  -0.91774  -0.91113
 Alpha  occ. eigenvalues --   -0.91076  -0.89896  -0.89705  -0.88895  -0.88365
 Alpha  occ. eigenvalues --   -0.88170  -0.87514  -0.86030  -0.85293  -0.84995
 Alpha  occ. eigenvalues --   -0.84136  -0.83566  -0.82968  -0.82487  -0.82206
 Alpha  occ. eigenvalues --   -0.81579  -0.80209  -0.79755  -0.79133  -0.77997
 Alpha  occ. eigenvalues --   -0.77640  -0.77619  -0.76601  -0.76478  -0.75935
 Alpha  occ. eigenvalues --   -0.75532  -0.74000  -0.73107  -0.71894  -0.71081
 Alpha  occ. eigenvalues --   -0.70773  -0.70373  -0.68808  -0.68420  -0.67576
 Alpha  occ. eigenvalues --   -0.67465  -0.67105  -0.66320  -0.66178  -0.65890
 Alpha  occ. eigenvalues --   -0.65549  -0.65492  -0.64530  -0.63530  -0.61959
 Alpha  occ. eigenvalues --   -0.61850  -0.61093  -0.60680  -0.60233  -0.59733
 Alpha  occ. eigenvalues --   -0.59186  -0.58687  -0.58472  -0.57389  -0.57196
 Alpha  occ. eigenvalues --   -0.56724  -0.56612  -0.56529  -0.56313  -0.55968
 Alpha  occ. eigenvalues --   -0.55876  -0.55685  -0.55272  -0.54882  -0.54826
 Alpha  occ. eigenvalues --   -0.54731  -0.54285  -0.54193  -0.53826  -0.53532
 Alpha  occ. eigenvalues --   -0.53476  -0.53299  -0.53164  -0.52792  -0.52643
 Alpha  occ. eigenvalues --   -0.52595  -0.52085  -0.51847  -0.51612  -0.51365
 Alpha  occ. eigenvalues --   -0.51082  -0.50887  -0.50705  -0.50675  -0.50523
 Alpha  occ. eigenvalues --   -0.50333  -0.50183  -0.50147  -0.49918  -0.49547
 Alpha  occ. eigenvalues --   -0.49420  -0.49174  -0.48929  -0.48783  -0.48355
 Alpha  occ. eigenvalues --   -0.48133  -0.48113  -0.47596  -0.47281  -0.47233
 Alpha  occ. eigenvalues --   -0.47144  -0.47071  -0.46876  -0.46676  -0.46634
 Alpha  occ. eigenvalues --   -0.46484  -0.46348  -0.46186  -0.46088  -0.46063
 Alpha  occ. eigenvalues --   -0.46011  -0.45596  -0.45366  -0.45136  -0.44515
 Alpha  occ. eigenvalues --   -0.44399  -0.44219  -0.44159  -0.43939  -0.43901
 Alpha  occ. eigenvalues --   -0.43861  -0.43665  -0.43495  -0.43447  -0.43108
 Alpha  occ. eigenvalues --   -0.42756  -0.42578  -0.42388  -0.42213  -0.42194
 Alpha  occ. eigenvalues --   -0.42105  -0.41682  -0.41457  -0.41326  -0.40971
 Alpha  occ. eigenvalues --   -0.40653  -0.40541  -0.40259  -0.40041  -0.39811
 Alpha  occ. eigenvalues --   -0.39425  -0.39300  -0.38805  -0.38106  -0.37916
 Alpha  occ. eigenvalues --   -0.37526  -0.37394  -0.36736  -0.36129  -0.35898
 Alpha  occ. eigenvalues --   -0.35781  -0.34653  -0.34197  -0.33050  -0.32821
 Alpha  occ. eigenvalues --   -0.32611  -0.32411  -0.32269  -0.31763  -0.24986
 Alpha  occ. eigenvalues --   -0.22092
 Alpha virt. eigenvalues --   -0.06437   0.00514   0.02187   0.04213   0.05875
 Alpha virt. eigenvalues --    0.06052   0.06742   0.07862   0.08250   0.09290
 Alpha virt. eigenvalues --    0.10767   0.10842   0.11354   0.12000   0.12280

 Mulliken charges:
               1
     1  Mg   1.011046
     2  C   -0.018734
     3  C   -0.050550
     4  C   -0.064544
     5  C   -0.088509
     6  N   -0.287767
     7  C    0.037446
     8  C   -0.098315
     9  C   -0.110648
    10  C   -0.018582
    11  C    0.015236
    12  C    0.051731
    13  C   -0.044984
    14  C    0.224316
    15  O   -0.274786
    16  O   -0.338776
    17  N   -0.429327
    18  C    0.157580
    19  C   -0.185129
    20  C   -0.075897
    21  C    0.123433
    22  C    0.076355
    23  C    0.028430
    24  O   -0.240489
    25  C   -0.012260
    26  N   -0.400067
    27  C    0.023569
    28  C   -0.075109
    29  C   -0.078077
    30  C    0.054996
    31  C    0.030786
    32  C    0.021279
    33  C   -0.050843
    34  N   -0.501591
    35  C    0.134587
    36  C   -0.196012
    37  C   -0.007300
    38  C    0.111556
    39  C    0.078405
    40  C    0.173791
    41  O   -0.234713
    42  C   -0.083679
    43  C    0.248012
    44  O   -0.282717
    45  O   -0.331758
    46  C    0.142540
    47  C    0.251995
    48  C   -0.170215
    49  C   -0.228322
    50  C    0.018187
    51  C    0.045468
    52  C    0.019510
    53  C    0.011124
    54  C   -0.184096
    55  C    0.005252
    56  C   -0.005300
    57  C   -0.016613
    58  C   -0.002299
    59  C   -0.200298
    60  C   -0.002302
    61  C    0.033178
    62  C   -0.032046
    63  C   -0.010158
    64  C   -0.199730
    65  C   -0.004506
    66  C   -0.003566
    67  H   -0.017452
    68  H    0.016098
    69  H    0.000517
    70  H    0.054200
    71  H    0.032798
    72  H    0.059906
    73  H    0.054893
    74  H    0.027572
    75  H    0.022063
    76  H    0.041904
    77  H    0.062251
    78  H    0.064136
    79  H    0.059775
    80  H    0.057905
    81  H    0.038312
    82  H    0.052487
    83  H    0.064947
    84  H    0.053904
    85  H    0.047559
    86  H    0.031935
    87  H    0.043065
    88  H    0.042095
    89  H    0.045678
    90  H    0.042439
    91  H    0.034007
    92  H    0.029802
    93  H    0.044974
    94  H    0.043382
    95  H    0.017688
    96  H    0.074617
    97  H    0.056997
    98  H    0.069286
    99  H    0.064409
   100  H    0.043648
   101  H    0.066559
   102  H    0.046575
   103  H    0.063642
   104  H    0.025823
   105  H    0.050647
   106  H    0.056473
   107  H    0.036605
   108  H    0.042738
   109  H   -0.001080
   110  H    0.031960
   111  H    0.024442
   112  H    0.004698
   113  H    0.002503
   114  H    0.019363
   115  H    0.023910
   116  H    0.020633
   117  H    0.014091
   118  H    0.015066
   119  H    0.020857
   120  H    0.018520
   121  H    0.021471
   122  H    0.022815
   123  H    0.020863
   124  H    0.022508
   125  H    0.026264
   126  H    0.038928
   127  H    0.015028
   128  H    0.002353
   129  H    0.020480
   130  H    0.020979
   131  H    0.013009
   132  H    0.020361
   133  H    0.027213
   134  H    0.023287
   135  H    0.026930
   136  H    0.027555
   137  H    0.038027
   138  H    0.018044
   139  H    0.017560
   140  H    0.025305
 Sum of Mulliken charges =  -0.00000

 Dipole moment (field-independent basis, Debye):
    X=              4.4189    Y=              2.2191    Z=             -4.5464  Tot=              6.7172
 Quadrupole moment (field-independent basis, Debye-Ang):
   XX=           -361.3041   YY=           -429.7725   ZZ=           -404.5694
   XY=            -18.0773   XZ=              5.0321   YZ=             19.7269

 Normal termination of Gaussian 16 at Sat Apr 30 17:40:45 2022.
