 Gaussian 16, Revision A.03,
 Gaussian 16:  ES64L-G16RevA.03 25-Dec-2016

 --------------------
 #p ZINDO=(nstates=5)
 --------------------

 ----------------------------
 step_801_chromophore_3 ZINDO
 ----------------------------
 Symbolic Z-matrix:
 Charge =  0 Multiplicity = 1

                         Standard orientation:
 ---------------------------------------------------------------------
 Center     Atomic      Atomic             Coordinates (Angstroms)
 Number     Number       Type             X           Y           Z
 ---------------------------------------------------------------------
      1         12           0       -5.774302    0.700001   -0.150631
      2          6           0       -4.309571   -2.581448    0.044403
      3          6           0       -2.392819    1.853245   -0.368960
      4          6           0       -6.833205    3.884728    0.323502
      5          6           0       -8.818632   -0.458434    0.674915
      6          7           0       -3.560887   -0.353516   -0.229049
      7          6           0       -3.290445   -1.646918   -0.251930
      8          6           0       -1.797783   -1.882565   -0.532409
      9          6           0       -1.172332   -0.400081   -0.376624
     10          6           0       -2.420783    0.451414   -0.295658
     11          6           0       -0.035250   -0.163037    0.765204
     12          6           0       -1.496125   -2.515325   -1.825324
     13          6           0       -0.014884   -2.438033   -2.291179
     14          6           0        1.128830   -2.674974   -1.266350
     15          8           0        0.988301   -3.296842   -0.207578
     16          8           0        2.215312   -2.089211   -1.817449
     17          7           0       -4.747585    2.589499   -0.181584
     18          6           0       -3.410866    2.841659   -0.162418
     19          6           0       -3.097088    4.282241    0.025956
     20          6           0       -4.364661    4.930940    0.050052
     21          6           0       -5.384371    3.836194    0.028924
     22          6           0       -1.647241    4.765222    0.035086
     23          6           0       -4.670286    6.410856    0.127557
     24          8           0       -5.829644    6.804948    0.034558
     25          6           0       -3.546020    7.453082    0.345337
     26          7           0       -7.545497    1.592212    0.217121
     27          6           0       -7.865865    2.916216    0.287162
     28          6           0       -9.438387    3.199931    0.292324
     29          6           0      -10.003773    1.740221    0.246331
     30          6           0       -8.726441    0.942120    0.360617
     31          6           0       -9.809567    4.046984    1.516230
     32          6           0      -10.804007    1.379745   -1.066650
     33          6           0      -12.298136    1.197599   -0.745046
     34          7           0       -6.467957   -1.086150    0.238459
     35          6           0       -7.762547   -1.445542    0.575351
     36          6           0       -7.844782   -2.948957    0.747168
     37          6           0       -6.560898   -3.416716    0.612650
     38          6           0       -5.750072   -2.241542    0.192984
     39          6           0       -9.020115   -3.775361    0.889803
     40          6           0       -5.733189   -4.591241    0.604018
     41          8           0       -6.023388   -5.783781    0.888713
     42          6           0       -4.253383   -4.086194    0.187648
     43          6           0       -3.219149   -4.556952    1.203680
     44          8           0       -3.088806   -4.168376    2.384211
     45          8           0       -2.581318   -5.616828    0.731412
     46          6           0       -1.419391   -6.127407    1.487811
     47          6           0        3.410377   -2.229670   -1.001328
     48          6           0        4.706351   -1.930358   -1.772962
     49          6           0        5.930990   -2.501888   -1.881259
     50          6           0        6.380243   -3.718046   -0.990326
     51          6           0        6.856963   -2.175924   -3.011842
     52          6           0        7.219829   -0.709619   -3.327082
     53          6           0        8.729830   -0.574444   -3.313726
     54          6           0        9.274500    0.294579   -2.187110
     55          6           0        9.856885   -0.674725   -1.182504
     56          6           0       10.460223    1.178116   -2.713960
     57          6           0       10.872452    2.348045   -1.810755
     58          6           0       12.327988    2.137133   -1.246458
     59          6           0       12.592232    2.988587    0.069541
     60          6           0       13.482849    4.269538   -0.222373
     61          6           0       13.308503    2.165113    1.079528
     62          6           0       12.388931    1.552758    2.131026
     63          6           0       13.013785    0.331167    2.765708
     64          6           0       12.444278    0.153134    4.217939
     65          6           0       13.606359   -0.292338    5.102907
     66          6           0       11.258897   -0.783833    4.227338
     67          1           0       -1.319423    2.052640   -0.329582
     68          1           0       -7.209002    4.901161    0.465670
     69          1           0       -9.802539   -0.856168    0.932167
     70          1           0       -1.305124   -2.547247    0.177513
     71          1           0       -0.801594   -0.127777   -1.364718
     72          1           0        0.372962   -1.141472    1.018192
     73          1           0       -0.422298    0.413576    1.605573
     74          1           0        0.773625    0.433459    0.344257
     75          1           0       -2.013794   -1.979537   -2.620836
     76          1           0       -1.785908   -3.566249   -1.849530
     77          1           0        0.226171   -1.517928   -2.823773
     78          1           0        0.064092   -3.294129   -2.961388
     79          1           0       -1.458287    5.055610   -0.998895
     80          1           0       -0.950407    4.024106    0.426527
     81          1           0       -1.602903    5.696089    0.600682
     82          1           0       -2.648754    7.228883   -0.231148
     83          1           0       -3.423899    7.359134    1.424343
     84          1           0       -3.886614    8.471564    0.156947
     85          1           0       -9.609236    3.691313   -0.665552
     86          1           0      -10.547140    1.614887    1.183345
     87          1           0       -8.908439    4.140982    2.121314
     88          1           0      -10.614652    3.610981    2.107343
     89          1           0      -10.002344    5.093836    1.278467
     90          1           0      -10.403474    0.446826   -1.462777
     91          1           0      -10.574462    2.181907   -1.767428
     92          1           0      -12.496527    1.285470    0.323455
     93          1           0      -12.617095    0.200606   -1.047155
     94          1           0      -12.896957    1.990405   -1.195338
     95          1           0       -9.726468   -3.120464    0.378877
     96          1           0       -9.299959   -3.978854    1.923259
     97          1           0       -9.022491   -4.631823    0.216322
     98          1           0       -3.914601   -4.418038   -0.793663
     99          1           0       -0.822355   -5.332514    1.934757
    100          1           0       -0.723647   -6.542942    0.760178
    101          1           0       -1.662431   -6.900481    2.215859
    102          1           0        3.503581   -3.273157   -0.697476
    103          1           0        3.413209   -1.551290   -0.148369
    104          1           0        4.437408   -1.173935   -2.509269
    105          1           0        7.386821   -3.521914   -0.620583
    106          1           0        6.376653   -4.641262   -1.568999
    107          1           0        5.631229   -3.742200   -0.199497
    108          1           0        6.453904   -2.669775   -3.896379
    109          1           0        7.725225   -2.810121   -2.838683
    110          1           0        6.749950    0.021891   -2.668951
    111          1           0        6.929659   -0.466134   -4.349171
    112          1           0        9.120582   -0.270056   -4.284996
    113          1           0        9.146172   -1.580462   -3.258237
    114          1           0        8.512849    0.930516   -1.737317
    115          1           0        9.959186   -0.236567   -0.190189
    116          1           0       10.844120   -1.026772   -1.481870
    117          1           0        9.289396   -1.594272   -1.037790
    118          1           0       10.043312    1.658811   -3.599225
    119          1           0       11.247349    0.471559   -2.976881
    120          1           0       10.188939    2.551604   -0.986340
    121          1           0       10.883890    3.219586   -2.465096
    122          1           0       12.887260    2.454281   -2.126382
    123          1           0       12.526613    1.076021   -1.093487
    124          1           0       11.691147    3.447724    0.478089
    125          1           0       14.519855    4.014590   -0.000840
    126          1           0       13.184529    5.175421    0.304147
    127          1           0       13.387307    4.398431   -1.300198
    128          1           0       13.904901    2.942055    1.557189
    129          1           0       14.047604    1.461882    0.694905
    130          1           0       11.404139    1.304112    1.735894
    131          1           0       12.259847    2.306221    2.908210
    132          1           0       14.096002    0.424148    2.853511
    133          1           0       12.705513   -0.407641    2.024728
    134          1           0       12.022231    1.045233    4.679524
    135          1           0       14.073195   -1.101933    4.542625
    136          1           0       13.274455   -0.679940    6.067168
    137          1           0       14.276998    0.561727    5.191519
    138          1           0       11.532148   -1.838676    4.185842
    139          1           0       10.636208   -0.590186    3.354209
    140          1           0       10.628635   -0.674907    5.110625
 ---------------------------------------------------------------------

 SCF Done:  E(RZINDO/S) =  -473.972212910     A.U. after   20 cycles

 Excitation energies and oscillator strengths:

 Excited State   1:      Singlet-A      1.1887 eV 1043.03 nm  f=0.5735  <S**2>=0.000
     175 ->178         0.19656
     176 ->177         0.66125
 This state for optimization and/or second-order correction.
 Total Energy, E(CIS/TDA) =  -473.928529163
 Copying the excited state density for this state as the 1-particle RhoCI density.

 Excited State   2:      Singlet-A      1.8488 eV  670.64 nm  f=0.0249  <S**2>=0.000
     175 ->177         0.53182
     176 ->178        -0.44109

 Excited State   3:      Singlet-A      2.8391 eV  436.70 nm  f=0.2539  <S**2>=0.000
     175 ->177         0.20845
     176 ->178         0.32196
     176 ->179         0.55345

 Excited State   4:      Singlet-A      2.9182 eV  424.87 nm  f=0.8579  <S**2>=0.000
     175 ->177         0.34766
     176 ->178         0.38892
     176 ->179        -0.33798
     176 ->181        -0.25618

 Excited State   5:      Singlet-A      2.9792 eV  416.16 nm  f=0.0020  <S**2>=0.000
     168 ->177        -0.35140
     168 ->178         0.12302
     168 ->179         0.46353
     168 ->181        -0.15254
     168 ->186         0.14052
     168 ->195        -0.11236

 The electronic state is 1-A.
 Alpha  occ. eigenvalues --   -1.81974  -1.79587  -1.76653  -1.73636  -1.71809
 Alpha  occ. eigenvalues --   -1.68500  -1.66884  -1.63736  -1.56942  -1.56325
 Alpha  occ. eigenvalues --   -1.55341  -1.52908  -1.50258  -1.47163  -1.45768
 Alpha  occ. eigenvalues --   -1.42856  -1.41316  -1.40386  -1.39288  -1.37707
 Alpha  occ. eigenvalues --   -1.36036  -1.34462  -1.33742  -1.29101  -1.28203
 Alpha  occ. eigenvalues --   -1.27519  -1.23156  -1.22769  -1.20385  -1.17700
 Alpha  occ. eigenvalues --   -1.16940  -1.16647  -1.14917  -1.14600  -1.12689
 Alpha  occ. eigenvalues --   -1.11620  -1.10412  -1.10175  -1.04616  -1.03234
 Alpha  occ. eigenvalues --   -1.02159  -0.99944  -0.98891  -0.97709  -0.97043
 Alpha  occ. eigenvalues --   -0.95769  -0.94814  -0.93855  -0.92654  -0.91287
 Alpha  occ. eigenvalues --   -0.90555  -0.90382  -0.88945  -0.87472  -0.87165
 Alpha  occ. eigenvalues --   -0.86194  -0.84097  -0.83618  -0.81757  -0.80280
 Alpha  occ. eigenvalues --   -0.78443  -0.77825  -0.76832  -0.76517  -0.76112
 Alpha  occ. eigenvalues --   -0.76064  -0.75507  -0.74115  -0.73486  -0.73086
 Alpha  occ. eigenvalues --   -0.72696  -0.71873  -0.71568  -0.71370  -0.70851
 Alpha  occ. eigenvalues --   -0.70662  -0.69654  -0.69236  -0.68363  -0.67918
 Alpha  occ. eigenvalues --   -0.67737  -0.66920  -0.66371  -0.65748  -0.65558
 Alpha  occ. eigenvalues --   -0.65450  -0.65039  -0.64148  -0.63580  -0.63407
 Alpha  occ. eigenvalues --   -0.63117  -0.63023  -0.62562  -0.62425  -0.61842
 Alpha  occ. eigenvalues --   -0.61582  -0.61241  -0.60405  -0.59980  -0.59552
 Alpha  occ. eigenvalues --   -0.59487  -0.59154  -0.58527  -0.58277  -0.58149
 Alpha  occ. eigenvalues --   -0.57929  -0.57306  -0.57076  -0.56773  -0.56717
 Alpha  occ. eigenvalues --   -0.56273  -0.55750  -0.55337  -0.55072  -0.54927
 Alpha  occ. eigenvalues --   -0.54730  -0.54332  -0.53520  -0.52863  -0.52540
 Alpha  occ. eigenvalues --   -0.52090  -0.51973  -0.51343  -0.50866  -0.50762
 Alpha  occ. eigenvalues --   -0.50626  -0.50438  -0.50310  -0.50135  -0.49901
 Alpha  occ. eigenvalues --   -0.49791  -0.49746  -0.49506  -0.49422  -0.49081
 Alpha  occ. eigenvalues --   -0.48655  -0.48546  -0.48371  -0.48231  -0.48161
 Alpha  occ. eigenvalues --   -0.47687  -0.47552  -0.47084  -0.46828  -0.46615
 Alpha  occ. eigenvalues --   -0.46246  -0.46199  -0.45908  -0.45742  -0.45662
 Alpha  occ. eigenvalues --   -0.44736  -0.44601  -0.44336  -0.43615  -0.43516
 Alpha  occ. eigenvalues --   -0.42936  -0.42743  -0.42688  -0.42538  -0.42036
 Alpha  occ. eigenvalues --   -0.41520  -0.41193  -0.40482  -0.39079  -0.37928
 Alpha  occ. eigenvalues --   -0.37480  -0.37067  -0.35906  -0.34627  -0.33853
 Alpha  occ. eigenvalues --   -0.33644  -0.32448  -0.32177  -0.31428  -0.25936
 Alpha  occ. eigenvalues --   -0.20900
 Alpha virt. eigenvalues --   -0.07959  -0.01728  -0.00645   0.01282   0.01423
 Alpha virt. eigenvalues --    0.02526   0.02774   0.02983   0.03930   0.05093
 Alpha virt. eigenvalues --    0.06631   0.06660   0.07279   0.07792   0.07837

 Mulliken charges:
               1
     1  Mg   0.435208
     2  C   -0.067214
     3  C   -0.088184
     4  C   -0.067914
     5  C   -0.097768
     6  N   -0.300261
     7  C    0.157140
     8  C    0.012223
     9  C   -0.011601
    10  C    0.105414
    11  C   -0.051214
    12  C   -0.008869
    13  C   -0.005997
    14  C    0.470698
    15  O   -0.523378
    16  O   -0.248509
    17  N   -0.311515
    18  C    0.098484
    19  C   -0.014094
    20  C   -0.044121
    21  C    0.106336
    22  C   -0.041140
    23  C    0.324497
    24  O   -0.531999
    25  C   -0.032821
    26  N   -0.253378
    27  C    0.104723
    28  C    0.005273
    29  C    0.000182
    30  C    0.151331
    31  C   -0.050849
    32  C   -0.023668
    33  C   -0.055708
    34  N   -0.296005
    35  C    0.096382
    36  C    0.066062
    37  C   -0.047791
    38  C    0.100883
    39  C   -0.036224
    40  C    0.338986
    41  O   -0.518275
    42  C    0.059046
    43  C    0.486747
    44  O   -0.536364
    45  O   -0.250913
    46  C    0.076736
    47  C    0.104494
    48  C   -0.095940
    49  C   -0.010187
    50  C   -0.049538
    51  C   -0.016238
    52  C   -0.024874
    53  C   -0.033703
    54  C   -0.008886
    55  C   -0.051910
    56  C   -0.038624
    57  C   -0.040508
    58  C   -0.043448
    59  C   -0.014823
    60  C   -0.069292
    61  C   -0.033519
    62  C   -0.036674
    63  C   -0.037626
    64  C   -0.012389
    65  C   -0.057395
    66  C   -0.053380
    67  H    0.021510
    68  H    0.034534
    69  H    0.025919
    70  H    0.044827
    71  H    0.025748
    72  H    0.038388
    73  H    0.033206
    74  H    0.015092
    75  H    0.015140
    76  H    0.025040
    77  H    0.040565
    78  H    0.038154
    79  H    0.032736
    80  H    0.037248
    81  H    0.022032
    82  H    0.037305
    83  H    0.041645
    84  H    0.037788
    85  H    0.038292
    86  H    0.038330
    87  H    0.025638
    88  H    0.023910
    89  H    0.025140
    90  H    0.025661
    91  H    0.030954
    92  H    0.018612
    93  H    0.022844
    94  H    0.022106
    95  H    0.015340
    96  H    0.051757
    97  H    0.040184
    98  H    0.051691
    99  H    0.049081
   100  H    0.025129
   101  H    0.051447
   102  H    0.047923
   103  H    0.052824
   104  H    0.014742
   105  H    0.030315
   106  H    0.034039
   107  H    0.024909
   108  H    0.023566
   109  H    0.017201
   110  H    0.028967
   111  H    0.016033
   112  H    0.010014
   113  H    0.016020
   114  H    0.028649
   115  H    0.007208
   116  H    0.017229
   117  H    0.010293
   118  H    0.007209
   119  H    0.029884
   120  H    0.023323
   121  H    0.015281
   122  H    0.022154
   123  H    0.023675
   124  H    0.026871
   125  H    0.020001
   126  H    0.025398
   127  H    0.012440
   128  H    0.008779
   129  H    0.024778
   130  H    0.020853
   131  H    0.013477
   132  H    0.023276
   133  H    0.027467
   134  H    0.021875
   135  H    0.017529
   136  H    0.017198
   137  H    0.020057
   138  H    0.014404
   139  H    0.011765
   140  H    0.013267
 Sum of Mulliken charges =  -0.00000

 Dipole moment (field-independent basis, Debye):
    X=              4.4799    Y=              1.7287    Z=             -6.6725  Tot=              8.2207
 N-N= 4.248463182215D+03 E-N= 0.000000000000D+00  KE=-9.171429866146D+03
 Leave Link  601 at Sat Apr 30 17:53:24 2022, MaxMem=  6710886400 cpu:               1.0 elap:               0.1
 (Enter /sw/apps/gaussian-16.0/g16/l9999.exe)
 1\1\GINC-BP1-COMPUTE198\SP\RZINDO CIS\STO-3G\C55H74Mg1N4O6\OF15641\30-
 Apr-2022\0\\#p ZINDO=(nstates=5)\\step_801_chromophore_3 ZINDO\\0,1\Mg
 ,0,1.912,8.086,26.362\C,0,2.18,10.164,29.288\C,0,2.378,5.363,28.638\C,
 0,2.369,5.981,23.745\C,0,2.103,10.73,24.297\N,0,2.176,7.851,28.789\C,0
 ,2.128,8.811,29.696\C,0,2.11,8.216,31.113\C,0,2.462,6.661,30.846\C,0,2
 .364,6.58,29.338\C,0,3.803,6.048,31.538\C,0,0.859,8.416,31.86\C,0,0.67
 5,7.534,33.127\C,0,1.875,7.304,34.087\O,0,2.853,8.056,34.161\O,0,1.565

 Normal termination of Gaussian 16 at Sat Apr 30 17:53:24 2022.
