 Gaussian 16, Revision A.03,
 Gaussian 16:  ES64L-G16RevA.03 25-Dec-2016

 ------------------------------
 #p blyp/Def2SVP td=(nstates=5)
 ------------------------------

 ---------------------------------------------------
 step_1251_chromophore_16 TDDFT with blyp functional
 ---------------------------------------------------
 Symbolic Z-matrix:
 Charge =  0 Multiplicity = 1

                         Standard orientation:
 ---------------------------------------------------------------------
 Center     Atomic      Atomic             Coordinates (Angstroms)
 Number     Number       Type             X           Y           Z
 ---------------------------------------------------------------------
      1         12           0        6.122694    0.706089    0.150148
      2          6           0        4.078785   -2.034312    0.378319
      3          6           0        3.661530    2.429018   -1.634392
      4          6           0        8.282277    3.355087   -0.367199
      5          6           0        8.773809   -1.039036    1.499066
      6          7           0        4.054735    0.181287   -0.653733
      7          6           0        3.409997   -0.985213   -0.346161
      8          6           0        1.913437   -0.974763   -0.897822
      9          6           0        1.888714    0.439998   -1.549358
     10          6           0        3.281202    1.107172   -1.344960
     11          6           0        1.412420    0.590925   -3.090046
     12          6           0        0.812563   -1.376978    0.150173
     13          6           0       -0.729366   -1.223046   -0.231760
     14          6           0       -1.529669   -2.549307   -0.647911
     15          8           0       -1.394896   -3.259166   -1.606164
     16          8           0       -2.489489   -2.774425    0.382687
     17          7           0        5.927972    2.530867   -0.822470
     18          6           0        4.883109    3.085425   -1.480741
     19          6           0        5.110087    4.462296   -1.879609
     20          6           0        6.396115    4.791964   -1.317898
     21          6           0        6.936455    3.511661   -0.823657
     22          6           0        4.106180    5.225415   -2.778686
     23          6           0        7.085239    6.161067   -1.267876
     24          8           0        8.172291    6.424952   -0.824870
     25          6           0        6.187150    7.285947   -1.834735
     26          7           0        8.290217    1.147464    0.558645
     27          6           0        8.950708    2.298711    0.259271
     28          6           0       10.435454    2.340086    0.786364
     29          6           0       10.592121    0.873067    1.366705
     30          6           0        9.134638    0.282409    1.188288
     31          6           0       11.430572    2.772201   -0.307259
     32          6           0       11.323035    0.826319    2.715392
     33          6           0       10.427397    1.049118    3.910835
     34          7           0        6.400623   -1.122061    0.738946
     35          6           0        7.531743   -1.668929    1.316034
     36          6           0        7.212782   -3.072746    1.741245
     37          6           0        5.832110   -3.214244    1.456113
     38          6           0        5.443910   -2.023146    0.814834
     39          6           0        8.054983   -3.939050    2.558265
     40          6           0        4.847063   -4.158349    1.538359
     41          8           0        4.776791   -5.322087    1.905323
     42          6           0        3.574418   -3.428370    0.855679
     43          6           0        3.074688   -4.285625   -0.204472
     44          8           0        3.615246   -4.426661   -1.296634
     45          8           0        1.983656   -5.025460    0.214162
     46          6           0        1.451093   -6.182258   -0.610517
     47          6           0       -3.500028   -3.891949    0.210491
     48          6           0       -4.638698   -3.384444   -0.659811
     49          6           0       -5.835206   -3.911791   -0.914025
     50          6           0       -6.322299   -5.165734   -0.128367
     51          6           0       -6.760213   -3.184184   -1.774134
     52          6           0       -7.877788   -2.345317   -1.068235
     53          6           0       -8.368500   -1.281986   -2.009143
     54          6           0       -9.910597   -1.216614   -2.080255
     55          6           0      -10.416362   -1.060718   -3.558231
     56          6           0      -10.559884   -0.113673   -1.203402
     57          6           0      -12.043463   -0.441768   -0.694974
     58          6           0      -12.990284    0.797868   -0.896326
     59          6           0      -13.910596    1.084946    0.284374
     60          6           0      -15.213702    0.215641    0.251358
     61          6           0      -14.336711    2.604467    0.307830
     62          6           0      -13.397063    3.401924    1.303817
     63          6           0      -14.022631    3.202469    2.747996
     64          6           0      -14.956246    4.425867    3.049547
     65          6           0      -16.390261    3.966131    3.190433
     66          6           0      -14.401380    5.116044    4.378694
     67          1           0        2.853529    2.963840   -2.136780
     68          1           0        9.072502    4.103654   -0.451359
     69          1           0        9.523427   -1.675782    1.974247
     70          1           0        1.855428   -1.627602   -1.768657
     71          1           0        1.156743    1.065231   -1.037541
     72          1           0        0.518301    1.200737   -3.216389
     73          1           0        1.145839   -0.403924   -3.448653
     74          1           0        2.251809    0.957930   -3.680316
     75          1           0        1.003215   -0.972473    1.143812
     76          1           0        0.943972   -2.438105    0.361247
     77          1           0       -0.714698   -0.529648   -1.073332
     78          1           0       -1.271618   -0.697818    0.554062
     79          1           0        4.747585    5.724048   -3.505773
     80          1           0        3.428991    5.942559   -2.314328
     81          1           0        3.333485    4.670204   -3.311193
     82          1           0        6.640049    8.223265   -1.511816
     83          1           0        5.252696    7.222035   -1.277072
     84          1           0        6.095769    7.180141   -2.915672
     85          1           0       10.442180    2.962599    1.680533
     86          1           0       11.295820    0.343472    0.725351
     87          1           0       11.589834    3.811790   -0.018800
     88          1           0       10.981189    2.838826   -1.298941
     89          1           0       12.397140    2.271113   -0.277152
     90          1           0       12.210543    1.458186    2.753409
     91          1           0       11.757063   -0.172030    2.772820
     92          1           0       10.594361    2.005147    4.407919
     93          1           0       10.675830    0.343840    4.704378
     94          1           0        9.349528    1.109724    3.758783
     95          1           0        7.890484   -3.842252    3.631559
     96          1           0        9.107744   -3.849535    2.289598
     97          1           0        7.704527   -4.929238    2.267283
     98          1           0        2.708216   -3.325621    1.510331
     99          1           0        2.208571   -6.916226   -0.884244
    100          1           0        0.931380   -5.771366   -1.476409
    101          1           0        0.650134   -6.674445   -0.060117
    102          1           0       -3.943830   -3.929677    1.205922
    103          1           0       -3.107658   -4.843983   -0.146786
    104          1           0       -4.388494   -2.457976   -1.177019
    105          1           0       -7.366415   -5.020212    0.148222
    106          1           0       -5.915909   -5.318321    0.871130
    107          1           0       -6.229005   -6.088232   -0.702095
    108          1           0       -7.241596   -4.029756   -2.266613
    109          1           0       -6.159421   -2.682057   -2.533053
    110          1           0       -7.415876   -1.795443   -0.248280
    111          1           0       -8.710074   -2.947726   -0.703487
    112          1           0       -8.107624   -1.448780   -3.054848
    113          1           0       -8.062819   -0.279622   -1.711689
    114          1           0      -10.371575   -2.187583   -1.898115
    115          1           0      -11.176809   -0.292998   -3.703489
    116          1           0      -10.899057   -1.982364   -3.880369
    117          1           0       -9.638314   -0.705250   -4.234107
    118          1           0      -10.459846    0.864461   -1.674548
    119          1           0       -9.954800   -0.148906   -0.297099
    120          1           0      -12.032563   -0.822413    0.326396
    121          1           0      -12.284708   -1.162798   -1.476230
    122          1           0      -13.562925    0.738703   -1.821777
    123          1           0      -12.394174    1.690451   -1.083872
    124          1           0      -13.345298    0.851392    1.186243
    125          1           0      -15.965674    0.791848   -0.287058
    126          1           0      -15.536383   -0.084418    1.248082
    127          1           0      -14.874907   -0.647226   -0.321845
    128          1           0      -15.363603    2.690752    0.661901
    129          1           0      -14.131786    3.117624   -0.631623
    130          1           0      -13.360373    4.457006    1.035626
    131          1           0      -12.376876    3.016050    1.282780
    132          1           0      -13.275954    3.073300    3.531414
    133          1           0      -14.636427    2.301646    2.751440
    134          1           0      -15.028877    5.205055    2.290413
    135          1           0      -16.922714    4.239274    2.278618
    136          1           0      -16.869338    4.539132    3.983517
    137          1           0      -16.446087    2.902485    3.424078
    138          1           0      -13.478164    4.684931    4.766768
    139          1           0      -15.193911    5.111898    5.125935
    140          1           0      -14.146666    6.156138    4.172103
 ---------------------------------------------------------------------

 SCF Done:  E(RB-LYP) =  -3007.36504810     A.U. after   21 cycles

 Excitation energies and oscillator strengths:

 Excited State   1:      Singlet-A      1.8180 eV  681.99 nm  f=0.2888  <S**2>=0.000
     245 -> 248        0.20575
     246 -> 247        0.68339
     246 <- 247       -0.14249
 This state for optimization and/or second-order correction.
 Total Energy, E(TD-HF/TD-DFT) =  -3007.29823902
 Copying the excited state density for this state as the 1-particle RhoCI density.

 Excited State   2:      Singlet-A      1.9758 eV  627.51 nm  f=0.0757  <S**2>=0.000
     243 -> 247        0.24879
     245 -> 247        0.61353
     246 -> 248       -0.20978

 Excited State   3:      Singlet-A      2.0448 eV  606.35 nm  f=0.0004  <S**2>=0.000
     243 -> 247       -0.13772
     244 -> 247        0.69151

 Excited State   4:      Singlet-A      2.0565 eV  602.89 nm  f=0.0095  <S**2>=0.000
     243 -> 247        0.64535
     244 -> 247        0.14353
     245 -> 247       -0.21721
     246 -> 248        0.10416

 Excited State   5:      Singlet-A      2.3019 eV  538.61 nm  f=0.0032  <S**2>=0.000
     242 -> 247        0.69954

 The electronic state is 1-A.
 Alpha  occ. eigenvalues --  -46.27184 -18.81340 -18.80642 -18.78032 -18.76239
 Alpha  occ. eigenvalues --  -18.75787 -18.74798 -14.03153 -14.03109 -14.01589
 Alpha  occ. eigenvalues --  -14.01539 -10.04816 -10.02261 -10.00094  -9.99258
 Alpha  occ. eigenvalues --   -9.98278  -9.97415  -9.97187  -9.96755  -9.96752
 Alpha  occ. eigenvalues --   -9.96505  -9.96081  -9.96006  -9.95506  -9.95057
 Alpha  occ. eigenvalues --   -9.94728  -9.94571  -9.94539  -9.94237  -9.94120
 Alpha  occ. eigenvalues --   -9.94024  -9.93977  -9.93964  -9.93806  -9.93613
 Alpha  occ. eigenvalues --   -9.93222  -9.92912  -9.92909  -9.92864  -9.92785
 Alpha  occ. eigenvalues --   -9.92502  -9.92492  -9.92357  -9.92291  -9.92262
 Alpha  occ. eigenvalues --   -9.92181  -9.92013  -9.91916  -9.91833  -9.91764
 Alpha  occ. eigenvalues --   -9.91748  -9.91643  -9.91548  -9.91529  -9.91351
 Alpha  occ. eigenvalues --   -9.91216  -9.91132  -9.91110  -9.91058  -9.91047
 Alpha  occ. eigenvalues --   -9.90942  -9.90907  -9.90722  -9.90671  -9.90598
 Alpha  occ. eigenvalues --   -9.90433  -2.91925  -1.72335  -1.71806  -1.71659
 Alpha  occ. eigenvalues --   -0.96626  -0.95050  -0.92741  -0.91280  -0.89562
 Alpha  occ. eigenvalues --   -0.87459  -0.87131  -0.85575  -0.85072  -0.84135
 Alpha  occ. eigenvalues --   -0.74920  -0.74051  -0.72695  -0.72326  -0.71963
 Alpha  occ. eigenvalues --   -0.71772  -0.71483  -0.70753  -0.70654  -0.70387
 Alpha  occ. eigenvalues --   -0.70080  -0.68350  -0.67702  -0.67561  -0.66659
 Alpha  occ. eigenvalues --   -0.65999  -0.65550  -0.64835  -0.64598  -0.63974
 Alpha  occ. eigenvalues --   -0.63546  -0.62781  -0.62046  -0.61539  -0.61130
 Alpha  occ. eigenvalues --   -0.60532  -0.59957  -0.59908  -0.59303  -0.58263
 Alpha  occ. eigenvalues --   -0.57836  -0.57544  -0.56693  -0.55917  -0.55500
 Alpha  occ. eigenvalues --   -0.54713  -0.53934  -0.52610  -0.52397  -0.51125
 Alpha  occ. eigenvalues --   -0.51060  -0.50546  -0.50291  -0.50193  -0.49594
 Alpha  occ. eigenvalues --   -0.49405  -0.48565  -0.48493  -0.47067  -0.46428
 Alpha  occ. eigenvalues --   -0.46308  -0.46166  -0.45443  -0.44703  -0.43984
 Alpha  occ. eigenvalues --   -0.43519  -0.43165  -0.42739  -0.42426  -0.41984
 Alpha  occ. eigenvalues --   -0.41740  -0.41562  -0.41340  -0.41057  -0.40790
 Alpha  occ. eigenvalues --   -0.40344  -0.40115  -0.39884  -0.39860  -0.39547
 Alpha  occ. eigenvalues --   -0.39461  -0.39256  -0.39144  -0.38882  -0.38781
 Alpha  occ. eigenvalues --   -0.38735  -0.38674  -0.38496  -0.38102  -0.38030
 Alpha  occ. eigenvalues --   -0.37621  -0.37576  -0.37361  -0.37135  -0.37066
 Alpha  occ. eigenvalues --   -0.36882  -0.36715  -0.36560  -0.36488  -0.36442
 Alpha  occ. eigenvalues --   -0.36340  -0.36123  -0.36057  -0.35851  -0.35698
 Alpha  occ. eigenvalues --   -0.35473  -0.35179  -0.35137  -0.34900  -0.34819
 Alpha  occ. eigenvalues --   -0.34708  -0.34379  -0.34111  -0.34003  -0.33770
 Alpha  occ. eigenvalues --   -0.33759  -0.33532  -0.33427  -0.33375  -0.33248
 Alpha  occ. eigenvalues --   -0.33086  -0.32861  -0.32733  -0.32214  -0.32051
 Alpha  occ. eigenvalues --   -0.31765  -0.31704  -0.31514  -0.31446  -0.31414
 Alpha  occ. eigenvalues --   -0.31261  -0.31206  -0.30870  -0.30748  -0.30685
 Alpha  occ. eigenvalues --   -0.30489  -0.30341  -0.29969  -0.29877  -0.29607
 Alpha  occ. eigenvalues --   -0.29415  -0.29306  -0.28983  -0.28945  -0.28865
 Alpha  occ. eigenvalues --   -0.28825  -0.28375  -0.28331  -0.27988  -0.27918
 Alpha  occ. eigenvalues --   -0.27487  -0.27272  -0.26961  -0.26843  -0.26758
 Alpha  occ. eigenvalues --   -0.26482  -0.26167  -0.25730  -0.25491  -0.25163
 Alpha  occ. eigenvalues --   -0.24865  -0.24501  -0.23861  -0.23675  -0.23596
 Alpha  occ. eigenvalues --   -0.23184  -0.22554  -0.21954  -0.21460  -0.20934
 Alpha  occ. eigenvalues --   -0.20158  -0.19913  -0.18922  -0.18901  -0.17105
 Alpha  occ. eigenvalues --   -0.15874
 Alpha virt. eigenvalues --   -0.11499  -0.06963  -0.06494  -0.04800  -0.03137
 Alpha virt. eigenvalues --   -0.02467  -0.01580  -0.01430  -0.01069   0.00472
 Alpha virt. eigenvalues --    0.01538   0.01669   0.02612   0.02820   0.02973

 Mulliken charges:
               1
     1  Mg   0.726904
     2  C    0.046194
     3  C   -0.072510
     4  C   -0.013391
     5  C   -0.073500
     6  N   -0.213488
     7  C   -0.090284
     8  C    0.113531
     9  C   -0.059138
    10  C    0.023590
    11  C    0.097860
    12  C    0.079691
    13  C    0.115992
    14  C    0.102715
    15  O   -0.150623
    16  O   -0.326756
    17  N   -0.279693
    18  C    0.167962
    19  C   -0.119972
    20  C   -0.014264
    21  C    0.162787
    22  C    0.151637
    23  C   -0.077075
    24  O   -0.126973
    25  C    0.114757
    26  N   -0.191405
    27  C   -0.103415
    28  C    0.036240
    29  C    0.033307
    30  C    0.033671
    31  C    0.129062
    32  C    0.084754
    33  C    0.064777
    34  N   -0.296345
    35  C    0.134708
    36  C   -0.170914
    37  C    0.133365
    38  C    0.069359
    39  C    0.158790
    40  C   -0.060672
    41  O   -0.126693
    42  C    0.013479
    43  C    0.098634
    44  O   -0.193280
    45  O   -0.302224
    46  C    0.221689
    47  C    0.352346
    48  C   -0.151872
    49  C   -0.139035
    50  C    0.107001
    51  C    0.145023
    52  C    0.122991
    53  C    0.146012
    54  C   -0.140661
    55  C    0.080841
    56  C    0.096273
    57  C    0.098519
    58  C    0.080674
    59  C   -0.091348
    60  C    0.117679
    61  C    0.100843
    62  C    0.049416
    63  C    0.099742
    64  C   -0.106400
    65  C    0.112320
    66  C    0.091028
    67  H   -0.073610
    68  H   -0.060408
    69  H   -0.068971
    70  H   -0.004944
    71  H   -0.021723
    72  H   -0.005676
    73  H   -0.004806
    74  H    0.003335
    75  H   -0.022844
    76  H    0.003790
    77  H   -0.008237
    78  H   -0.006434
    79  H    0.005532
    80  H   -0.002454
    81  H   -0.011690
    82  H   -0.014687
    83  H    0.006148
    84  H    0.019762
    85  H   -0.012195
    86  H   -0.032857
    87  H   -0.001409
    88  H    0.009651
    89  H   -0.001706
    90  H   -0.019945
    91  H   -0.028210
    92  H   -0.023633
    93  H   -0.013968
    94  H    0.002319
    95  H    0.020203
    96  H   -0.004539
    97  H    0.008533
    98  H   -0.014403
    99  H    0.030414
   100  H    0.020640
   101  H    0.008609
   102  H    0.000922
   103  H    0.022197
   104  H   -0.036119
   105  H   -0.018468
   106  H   -0.018348
   107  H    0.008554
   108  H   -0.039824
   109  H   -0.018655
   110  H   -0.031951
   111  H   -0.015610
   112  H   -0.035330
   113  H   -0.032446
   114  H   -0.040936
   115  H   -0.028929
   116  H   -0.012942
   117  H   -0.018695
   118  H   -0.020595
   119  H   -0.046566
   120  H   -0.012852
   121  H   -0.027189
   122  H   -0.037800
   123  H   -0.038978
   124  H   -0.038073
   125  H   -0.007540
   126  H   -0.008981
   127  H   -0.022431
   128  H   -0.029611
   129  H   -0.033284
   130  H   -0.029619
   131  H   -0.033375
   132  H   -0.034126
   133  H   -0.027624
   134  H   -0.029126
   135  H   -0.012134
   136  H   -0.030399
   137  H   -0.012660
   138  H   -0.013055
   139  H   -0.020719
   140  H   -0.020500
 Sum of Mulliken charges =  -0.00000

 Dipole moment (field-independent basis, Debye):
    X=             -2.6129    Y=              2.7034    Z=              1.3008  Tot=              3.9784
 Quadrupole moment (field-independent basis, Debye-Ang):
   XX=           -375.9678   YY=           -425.9970   ZZ=           -405.9108
   XY=              9.3944   XZ=             17.8029   YZ=             -7.1651

 Normal termination of Gaussian 16 at Wed Apr 27 16:41:11 2022.
