 Gaussian 16, Revision A.03,
 Gaussian 16:  ES64L-G16RevA.03 25-Dec-2016

 -----------------------------------
 #p cam-b3lyp/Def2SVP td=(nstates=5)
 -----------------------------------

 --------------------------------------------------------
 step_1251_chromophore_16 TDDFT with cam-b3lyp functional
 --------------------------------------------------------
 Symbolic Z-matrix:
 Charge =  0 Multiplicity = 1

                         Standard orientation:
 ---------------------------------------------------------------------
 Center     Atomic      Atomic             Coordinates (Angstroms)
 Number     Number       Type             X           Y           Z
 ---------------------------------------------------------------------
      1         12           0        6.122694    0.706089    0.150148
      2          6           0        4.078785   -2.034312    0.378319
      3          6           0        3.661530    2.429018   -1.634392
      4          6           0        8.282277    3.355087   -0.367199
      5          6           0        8.773809   -1.039036    1.499066
      6          7           0        4.054735    0.181287   -0.653733
      7          6           0        3.409997   -0.985213   -0.346161
      8          6           0        1.913437   -0.974763   -0.897822
      9          6           0        1.888714    0.439998   -1.549358
     10          6           0        3.281202    1.107172   -1.344960
     11          6           0        1.412420    0.590925   -3.090046
     12          6           0        0.812563   -1.376978    0.150173
     13          6           0       -0.729366   -1.223046   -0.231760
     14          6           0       -1.529669   -2.549307   -0.647911
     15          8           0       -1.394896   -3.259166   -1.606164
     16          8           0       -2.489489   -2.774425    0.382687
     17          7           0        5.927972    2.530867   -0.822470
     18          6           0        4.883109    3.085425   -1.480741
     19          6           0        5.110087    4.462296   -1.879609
     20          6           0        6.396115    4.791964   -1.317898
     21          6           0        6.936455    3.511661   -0.823657
     22          6           0        4.106180    5.225415   -2.778686
     23          6           0        7.085239    6.161067   -1.267876
     24          8           0        8.172291    6.424952   -0.824870
     25          6           0        6.187150    7.285947   -1.834735
     26          7           0        8.290217    1.147464    0.558645
     27          6           0        8.950708    2.298711    0.259271
     28          6           0       10.435454    2.340086    0.786364
     29          6           0       10.592121    0.873067    1.366705
     30          6           0        9.134638    0.282409    1.188288
     31          6           0       11.430572    2.772201   -0.307259
     32          6           0       11.323035    0.826319    2.715392
     33          6           0       10.427397    1.049118    3.910835
     34          7           0        6.400623   -1.122061    0.738946
     35          6           0        7.531743   -1.668929    1.316034
     36          6           0        7.212782   -3.072746    1.741245
     37          6           0        5.832110   -3.214244    1.456113
     38          6           0        5.443910   -2.023146    0.814834
     39          6           0        8.054983   -3.939050    2.558265
     40          6           0        4.847063   -4.158349    1.538359
     41          8           0        4.776791   -5.322087    1.905323
     42          6           0        3.574418   -3.428370    0.855679
     43          6           0        3.074688   -4.285625   -0.204472
     44          8           0        3.615246   -4.426661   -1.296634
     45          8           0        1.983656   -5.025460    0.214162
     46          6           0        1.451093   -6.182258   -0.610517
     47          6           0       -3.500028   -3.891949    0.210491
     48          6           0       -4.638698   -3.384444   -0.659811
     49          6           0       -5.835206   -3.911791   -0.914025
     50          6           0       -6.322299   -5.165734   -0.128367
     51          6           0       -6.760213   -3.184184   -1.774134
     52          6           0       -7.877788   -2.345317   -1.068235
     53          6           0       -8.368500   -1.281986   -2.009143
     54          6           0       -9.910597   -1.216614   -2.080255
     55          6           0      -10.416362   -1.060718   -3.558231
     56          6           0      -10.559884   -0.113673   -1.203402
     57          6           0      -12.043463   -0.441768   -0.694974
     58          6           0      -12.990284    0.797868   -0.896326
     59          6           0      -13.910596    1.084946    0.284374
     60          6           0      -15.213702    0.215641    0.251358
     61          6           0      -14.336711    2.604467    0.307830
     62          6           0      -13.397063    3.401924    1.303817
     63          6           0      -14.022631    3.202469    2.747996
     64          6           0      -14.956246    4.425867    3.049547
     65          6           0      -16.390261    3.966131    3.190433
     66          6           0      -14.401380    5.116044    4.378694
     67          1           0        2.853529    2.963840   -2.136780
     68          1           0        9.072502    4.103654   -0.451359
     69          1           0        9.523427   -1.675782    1.974247
     70          1           0        1.855428   -1.627602   -1.768657
     71          1           0        1.156743    1.065231   -1.037541
     72          1           0        0.518301    1.200737   -3.216389
     73          1           0        1.145839   -0.403924   -3.448653
     74          1           0        2.251809    0.957930   -3.680316
     75          1           0        1.003215   -0.972473    1.143812
     76          1           0        0.943972   -2.438105    0.361247
     77          1           0       -0.714698   -0.529648   -1.073332
     78          1           0       -1.271618   -0.697818    0.554062
     79          1           0        4.747585    5.724048   -3.505773
     80          1           0        3.428991    5.942559   -2.314328
     81          1           0        3.333485    4.670204   -3.311193
     82          1           0        6.640049    8.223265   -1.511816
     83          1           0        5.252696    7.222035   -1.277072
     84          1           0        6.095769    7.180141   -2.915672
     85          1           0       10.442180    2.962599    1.680533
     86          1           0       11.295820    0.343472    0.725351
     87          1           0       11.589834    3.811790   -0.018800
     88          1           0       10.981189    2.838826   -1.298941
     89          1           0       12.397140    2.271113   -0.277152
     90          1           0       12.210543    1.458186    2.753409
     91          1           0       11.757063   -0.172030    2.772820
     92          1           0       10.594361    2.005147    4.407919
     93          1           0       10.675830    0.343840    4.704378
     94          1           0        9.349528    1.109724    3.758783
     95          1           0        7.890484   -3.842252    3.631559
     96          1           0        9.107744   -3.849535    2.289598
     97          1           0        7.704527   -4.929238    2.267283
     98          1           0        2.708216   -3.325621    1.510331
     99          1           0        2.208571   -6.916226   -0.884244
    100          1           0        0.931380   -5.771366   -1.476409
    101          1           0        0.650134   -6.674445   -0.060117
    102          1           0       -3.943830   -3.929677    1.205922
    103          1           0       -3.107658   -4.843983   -0.146786
    104          1           0       -4.388494   -2.457976   -1.177019
    105          1           0       -7.366415   -5.020212    0.148222
    106          1           0       -5.915909   -5.318321    0.871130
    107          1           0       -6.229005   -6.088232   -0.702095
    108          1           0       -7.241596   -4.029756   -2.266613
    109          1           0       -6.159421   -2.682057   -2.533053
    110          1           0       -7.415876   -1.795443   -0.248280
    111          1           0       -8.710074   -2.947726   -0.703487
    112          1           0       -8.107624   -1.448780   -3.054848
    113          1           0       -8.062819   -0.279622   -1.711689
    114          1           0      -10.371575   -2.187583   -1.898115
    115          1           0      -11.176809   -0.292998   -3.703489
    116          1           0      -10.899057   -1.982364   -3.880369
    117          1           0       -9.638314   -0.705250   -4.234107
    118          1           0      -10.459846    0.864461   -1.674548
    119          1           0       -9.954800   -0.148906   -0.297099
    120          1           0      -12.032563   -0.822413    0.326396
    121          1           0      -12.284708   -1.162798   -1.476230
    122          1           0      -13.562925    0.738703   -1.821777
    123          1           0      -12.394174    1.690451   -1.083872
    124          1           0      -13.345298    0.851392    1.186243
    125          1           0      -15.965674    0.791848   -0.287058
    126          1           0      -15.536383   -0.084418    1.248082
    127          1           0      -14.874907   -0.647226   -0.321845
    128          1           0      -15.363603    2.690752    0.661901
    129          1           0      -14.131786    3.117624   -0.631623
    130          1           0      -13.360373    4.457006    1.035626
    131          1           0      -12.376876    3.016050    1.282780
    132          1           0      -13.275954    3.073300    3.531414
    133          1           0      -14.636427    2.301646    2.751440
    134          1           0      -15.028877    5.205055    2.290413
    135          1           0      -16.922714    4.239274    2.278618
    136          1           0      -16.869338    4.539132    3.983517
    137          1           0      -16.446087    2.902485    3.424078
    138          1           0      -13.478164    4.684931    4.766768
    139          1           0      -15.193911    5.111898    5.125935
    140          1           0      -14.146666    6.156138    4.172103
 ---------------------------------------------------------------------

 SCF Done:  E(RCAM-B3LYP) =  -3007.14149480     A.U. after   17 cycles

 Excitation energies and oscillator strengths:

 Excited State   1:      Singlet-A      1.7140 eV  723.35 nm  f=0.3703  <S**2>=0.000
     245 -> 248       -0.19948
     246 -> 247        0.68038
     245 <- 248       -0.11312
 This state for optimization and/or second-order correction.
 Total Energy, E(TD-HF/TD-DFT) =  -3007.07850580
 Copying the excited state density for this state as the 1-particle RhoCI density.

 Excited State   2:      Singlet-A      2.2112 eV  560.70 nm  f=0.1131  <S**2>=0.000
     245 -> 247        0.63981
     246 -> 248        0.29484

 Excited State   3:      Singlet-A      3.5066 eV  353.57 nm  f=0.1442  <S**2>=0.000
     240 -> 247        0.20866
     240 -> 249       -0.13970
     241 -> 247        0.20515
     241 -> 249       -0.12125
     242 -> 247        0.42787
     242 -> 249       -0.24977
     242 -> 250        0.12043
     245 -> 247        0.12271
     246 -> 248       -0.27125

 Excited State   4:      Singlet-A      3.5254 eV  351.69 nm  f=0.5802  <S**2>=0.000
     240 -> 247        0.15436
     242 -> 247        0.16519
     242 -> 249       -0.11007
     243 -> 247       -0.18708
     245 -> 247       -0.24901
     246 -> 248        0.55320
     245 <- 247        0.10084

 Excited State   5:      Singlet-A      3.5849 eV  345.86 nm  f=0.0734  <S**2>=0.000
     243 -> 247        0.64197
     246 -> 248        0.12456

 The electronic state is 1-A.
 Alpha  occ. eigenvalues --  -46.88680 -19.24158 -19.23579 -19.21110 -19.19504
 Alpha  occ. eigenvalues --  -19.18844 -19.17915 -14.42078 -14.41894 -14.40082
 Alpha  occ. eigenvalues --  -14.39944 -10.40271 -10.37704 -10.35336 -10.34589
 Alpha  occ. eigenvalues --  -10.32366 -10.32002 -10.31255 -10.31252 -10.31144
 Alpha  occ. eigenvalues --  -10.30949 -10.30497 -10.30259 -10.29800 -10.29385
 Alpha  occ. eigenvalues --  -10.29209 -10.28851 -10.28690 -10.28620 -10.28267
 Alpha  occ. eigenvalues --  -10.28240 -10.28089 -10.28018 -10.27772 -10.27707
 Alpha  occ. eigenvalues --  -10.27576 -10.27228 -10.27012 -10.26811 -10.26606
 Alpha  occ. eigenvalues --  -10.26359 -10.26295 -10.26276 -10.26187 -10.26010
 Alpha  occ. eigenvalues --  -10.25986 -10.25684 -10.25643 -10.25565 -10.25551
 Alpha  occ. eigenvalues --  -10.25488 -10.25480 -10.25400 -10.25183 -10.25089
 Alpha  occ. eigenvalues --  -10.25060 -10.24878 -10.24824 -10.24782 -10.24759
 Alpha  occ. eigenvalues --  -10.24737 -10.24651 -10.24328 -10.24288 -10.24222
 Alpha  occ. eigenvalues --  -10.24009  -3.17331  -1.92215  -1.91762  -1.91678
 Alpha  occ. eigenvalues --   -1.15133  -1.13573  -1.11239  -1.09583  -1.07351
 Alpha  occ. eigenvalues --   -1.05345  -1.04782  -1.03197  -1.02649  -1.01626
 Alpha  occ. eigenvalues --   -0.92001  -0.90939  -0.89506  -0.88986  -0.88680
 Alpha  occ. eigenvalues --   -0.88459  -0.88207  -0.87411  -0.87231  -0.86910
 Alpha  occ. eigenvalues --   -0.86758  -0.84622  -0.83947  -0.83749  -0.82758
 Alpha  occ. eigenvalues --   -0.82032  -0.81610  -0.80864  -0.80412  -0.79798
 Alpha  occ. eigenvalues --   -0.79284  -0.78532  -0.77669  -0.76999  -0.76524
 Alpha  occ. eigenvalues --   -0.75920  -0.75271  -0.75216  -0.74584  -0.73445
 Alpha  occ. eigenvalues --   -0.72871  -0.72546  -0.71589  -0.70741  -0.70177
 Alpha  occ. eigenvalues --   -0.69377  -0.68486  -0.67165  -0.66793  -0.65318
 Alpha  occ. eigenvalues --   -0.65265  -0.64381  -0.64269  -0.64169  -0.63627
 Alpha  occ. eigenvalues --   -0.63384  -0.62440  -0.62133  -0.60621  -0.59983
 Alpha  occ. eigenvalues --   -0.59865  -0.59636  -0.58912  -0.57980  -0.57306
 Alpha  occ. eigenvalues --   -0.56897  -0.56473  -0.56105  -0.55472  -0.55061
 Alpha  occ. eigenvalues --   -0.54714  -0.54649  -0.54458  -0.53924  -0.53429
 Alpha  occ. eigenvalues --   -0.53245  -0.53102  -0.52761  -0.52485  -0.52146
 Alpha  occ. eigenvalues --   -0.52044  -0.51899  -0.51742  -0.51693  -0.51519
 Alpha  occ. eigenvalues --   -0.51345  -0.51309  -0.51095  -0.50637  -0.50410
 Alpha  occ. eigenvalues --   -0.50110  -0.49892  -0.49746  -0.49497  -0.49405
 Alpha  occ. eigenvalues --   -0.49295  -0.48995  -0.48939  -0.48659  -0.48549
 Alpha  occ. eigenvalues --   -0.48493  -0.48485  -0.48413  -0.48181  -0.47897
 Alpha  occ. eigenvalues --   -0.47688  -0.47448  -0.47047  -0.46944  -0.46873
 Alpha  occ. eigenvalues --   -0.46707  -0.46269  -0.45912  -0.45876  -0.45636
 Alpha  occ. eigenvalues --   -0.45476  -0.45332  -0.45151  -0.45068  -0.45045
 Alpha  occ. eigenvalues --   -0.44888  -0.44599  -0.44406  -0.43859  -0.43684
 Alpha  occ. eigenvalues --   -0.43499  -0.43340  -0.43112  -0.43049  -0.42948
 Alpha  occ. eigenvalues --   -0.42813  -0.42789  -0.42460  -0.42170  -0.42069
 Alpha  occ. eigenvalues --   -0.41760  -0.41611  -0.41347  -0.41187  -0.40906
 Alpha  occ. eigenvalues --   -0.40672  -0.40546  -0.40281  -0.39935  -0.39904
 Alpha  occ. eigenvalues --   -0.39866  -0.39838  -0.39399  -0.39302  -0.38852
 Alpha  occ. eigenvalues --   -0.38347  -0.38121  -0.38098  -0.37965  -0.37610
 Alpha  occ. eigenvalues --   -0.37271  -0.36667  -0.36545  -0.36330  -0.36098
 Alpha  occ. eigenvalues --   -0.35632  -0.35299  -0.35040  -0.34645  -0.34317
 Alpha  occ. eigenvalues --   -0.33552  -0.33221  -0.32445  -0.31324  -0.30829
 Alpha  occ. eigenvalues --   -0.30720  -0.30659  -0.30222  -0.29785  -0.23717
 Alpha  occ. eigenvalues --   -0.21146
 Alpha virt. eigenvalues --   -0.08533  -0.01864  -0.00086   0.02147   0.02524
 Alpha virt. eigenvalues --    0.04730   0.05894   0.06103   0.06469   0.06592
 Alpha virt. eigenvalues --    0.08065   0.08875   0.09091   0.09281   0.09420

 Mulliken charges:
               1
     1  Mg   0.858690
     2  C    0.016427
     3  C   -0.089812
     4  C   -0.033507
     5  C   -0.076724
     6  N   -0.286120
     7  C   -0.043042
     8  C    0.066553
     9  C   -0.110010
    10  C    0.046370
    11  C    0.039554
    12  C    0.028285
    13  C    0.052154
    14  C    0.180640
    15  O   -0.190022
    16  O   -0.393161
    17  N   -0.365946
    18  C    0.177989
    19  C   -0.129344
    20  C   -0.079094
    21  C    0.181275
    22  C    0.095022
    23  C    0.005594
    24  O   -0.167247
    25  C    0.032121
    26  N   -0.259317
    27  C   -0.078683
    28  C   -0.015465
    29  C   -0.011636
    30  C    0.040620
    31  C    0.064433
    32  C    0.030107
    33  C   -0.002730
    34  N   -0.390865
    35  C    0.134540
    36  C   -0.152962
    37  C    0.045234
    38  C    0.107256
    39  C    0.101507
    40  C    0.033689
    41  O   -0.167357
    42  C   -0.058664
    43  C    0.188782
    44  O   -0.228392
    45  O   -0.368990
    46  C    0.186972
    47  C    0.317836
    48  C   -0.165361
    49  C   -0.161685
    50  C    0.048991
    51  C    0.079654
    52  C    0.065211
    53  C    0.087262
    54  C   -0.193489
    55  C    0.022668
    56  C    0.045904
    57  C    0.042480
    58  C    0.031545
    59  C   -0.145725
    60  C    0.062221
    61  C    0.045737
    62  C   -0.003548
    63  C    0.046631
    64  C   -0.165960
    65  C    0.052772
    66  C    0.035084
    67  H   -0.038959
    68  H   -0.020700
    69  H   -0.032993
    70  H    0.029296
    71  H    0.011418
    72  H    0.017698
    73  H    0.019461
    74  H    0.029175
    75  H    0.009950
    76  H    0.028616
    77  H    0.020516
    78  H    0.030524
    79  H    0.029149
    80  H    0.025173
    81  H    0.017272
    82  H    0.020689
    83  H    0.033193
    84  H    0.046007
    85  H    0.021045
    86  H    0.002623
    87  H    0.022394
    88  H    0.036065
    89  H    0.023301
    90  H    0.009498
    91  H    0.000266
    92  H    0.001243
    93  H    0.011332
    94  H    0.026391
    95  H    0.047265
    96  H    0.019882
    97  H    0.036738
    98  H    0.029285
    99  H    0.053189
   100  H    0.042726
   101  H    0.031691
   102  H    0.029973
   103  H    0.050276
   104  H   -0.005148
   105  H    0.005560
   106  H    0.006888
   107  H    0.033020
   108  H   -0.010368
   109  H    0.012160
   110  H   -0.002059
   111  H    0.010970
   112  H   -0.004696
   113  H   -0.002651
   114  H   -0.008213
   115  H   -0.005021
   116  H    0.010999
   117  H    0.005482
   118  H    0.006236
   119  H   -0.017449
   120  H    0.014826
   121  H   -0.000210
   122  H   -0.008888
   123  H   -0.011439
   124  H   -0.008012
   125  H    0.015539
   126  H    0.014332
   127  H    0.001179
   128  H   -0.003217
   129  H   -0.003654
   130  H   -0.001067
   131  H   -0.005421
   132  H   -0.004507
   133  H   -0.003775
   134  H    0.002104
   135  H    0.011070
   136  H   -0.004635
   137  H    0.010540
   138  H    0.009818
   139  H    0.002624
   140  H    0.003463
 Sum of Mulliken charges =  -0.00000

 Dipole moment (field-independent basis, Debye):
    X=             -2.7268    Y=              3.1892    Z=              1.2401  Tot=              4.3755
 Quadrupole moment (field-independent basis, Debye-Ang):
   XX=           -374.8555   YY=           -421.8616   ZZ=           -405.3517
   XY=             11.2018   XZ=             18.5833   YZ=             -8.8754

 Normal termination of Gaussian 16 at Wed Apr 27 15:45:42 2022.
