 Gaussian 16, Revision A.03,
 Gaussian 16:  ES64L-G16RevA.03 25-Dec-2016

 ---------------------------------
 #p PBE1PBE/Def2SVP td=(nstates=5)
 ---------------------------------

 ------------------------------------------------------
 step_1251_chromophore_16 TDDFT with PBE1PBE functional
 ------------------------------------------------------
 Symbolic Z-matrix:
 Charge =  0 Multiplicity = 1

                         Standard orientation:
 ---------------------------------------------------------------------
 Center     Atomic      Atomic             Coordinates (Angstroms)
 Number     Number       Type             X           Y           Z
 ---------------------------------------------------------------------
      1         12           0        6.122694    0.706089    0.150148
      2          6           0        4.078785   -2.034312    0.378319
      3          6           0        3.661530    2.429018   -1.634392
      4          6           0        8.282277    3.355087   -0.367199
      5          6           0        8.773809   -1.039036    1.499066
      6          7           0        4.054735    0.181287   -0.653733
      7          6           0        3.409997   -0.985213   -0.346161
      8          6           0        1.913437   -0.974763   -0.897822
      9          6           0        1.888714    0.439998   -1.549358
     10          6           0        3.281202    1.107172   -1.344960
     11          6           0        1.412420    0.590925   -3.090046
     12          6           0        0.812563   -1.376978    0.150173
     13          6           0       -0.729366   -1.223046   -0.231760
     14          6           0       -1.529669   -2.549307   -0.647911
     15          8           0       -1.394896   -3.259166   -1.606164
     16          8           0       -2.489489   -2.774425    0.382687
     17          7           0        5.927972    2.530867   -0.822470
     18          6           0        4.883109    3.085425   -1.480741
     19          6           0        5.110087    4.462296   -1.879609
     20          6           0        6.396115    4.791964   -1.317898
     21          6           0        6.936455    3.511661   -0.823657
     22          6           0        4.106180    5.225415   -2.778686
     23          6           0        7.085239    6.161067   -1.267876
     24          8           0        8.172291    6.424952   -0.824870
     25          6           0        6.187150    7.285947   -1.834735
     26          7           0        8.290217    1.147464    0.558645
     27          6           0        8.950708    2.298711    0.259271
     28          6           0       10.435454    2.340086    0.786364
     29          6           0       10.592121    0.873067    1.366705
     30          6           0        9.134638    0.282409    1.188288
     31          6           0       11.430572    2.772201   -0.307259
     32          6           0       11.323035    0.826319    2.715392
     33          6           0       10.427397    1.049118    3.910835
     34          7           0        6.400623   -1.122061    0.738946
     35          6           0        7.531743   -1.668929    1.316034
     36          6           0        7.212782   -3.072746    1.741245
     37          6           0        5.832110   -3.214244    1.456113
     38          6           0        5.443910   -2.023146    0.814834
     39          6           0        8.054983   -3.939050    2.558265
     40          6           0        4.847063   -4.158349    1.538359
     41          8           0        4.776791   -5.322087    1.905323
     42          6           0        3.574418   -3.428370    0.855679
     43          6           0        3.074688   -4.285625   -0.204472
     44          8           0        3.615246   -4.426661   -1.296634
     45          8           0        1.983656   -5.025460    0.214162
     46          6           0        1.451093   -6.182258   -0.610517
     47          6           0       -3.500028   -3.891949    0.210491
     48          6           0       -4.638698   -3.384444   -0.659811
     49          6           0       -5.835206   -3.911791   -0.914025
     50          6           0       -6.322299   -5.165734   -0.128367
     51          6           0       -6.760213   -3.184184   -1.774134
     52          6           0       -7.877788   -2.345317   -1.068235
     53          6           0       -8.368500   -1.281986   -2.009143
     54          6           0       -9.910597   -1.216614   -2.080255
     55          6           0      -10.416362   -1.060718   -3.558231
     56          6           0      -10.559884   -0.113673   -1.203402
     57          6           0      -12.043463   -0.441768   -0.694974
     58          6           0      -12.990284    0.797868   -0.896326
     59          6           0      -13.910596    1.084946    0.284374
     60          6           0      -15.213702    0.215641    0.251358
     61          6           0      -14.336711    2.604467    0.307830
     62          6           0      -13.397063    3.401924    1.303817
     63          6           0      -14.022631    3.202469    2.747996
     64          6           0      -14.956246    4.425867    3.049547
     65          6           0      -16.390261    3.966131    3.190433
     66          6           0      -14.401380    5.116044    4.378694
     67          1           0        2.853529    2.963840   -2.136780
     68          1           0        9.072502    4.103654   -0.451359
     69          1           0        9.523427   -1.675782    1.974247
     70          1           0        1.855428   -1.627602   -1.768657
     71          1           0        1.156743    1.065231   -1.037541
     72          1           0        0.518301    1.200737   -3.216389
     73          1           0        1.145839   -0.403924   -3.448653
     74          1           0        2.251809    0.957930   -3.680316
     75          1           0        1.003215   -0.972473    1.143812
     76          1           0        0.943972   -2.438105    0.361247
     77          1           0       -0.714698   -0.529648   -1.073332
     78          1           0       -1.271618   -0.697818    0.554062
     79          1           0        4.747585    5.724048   -3.505773
     80          1           0        3.428991    5.942559   -2.314328
     81          1           0        3.333485    4.670204   -3.311193
     82          1           0        6.640049    8.223265   -1.511816
     83          1           0        5.252696    7.222035   -1.277072
     84          1           0        6.095769    7.180141   -2.915672
     85          1           0       10.442180    2.962599    1.680533
     86          1           0       11.295820    0.343472    0.725351
     87          1           0       11.589834    3.811790   -0.018800
     88          1           0       10.981189    2.838826   -1.298941
     89          1           0       12.397140    2.271113   -0.277152
     90          1           0       12.210543    1.458186    2.753409
     91          1           0       11.757063   -0.172030    2.772820
     92          1           0       10.594361    2.005147    4.407919
     93          1           0       10.675830    0.343840    4.704378
     94          1           0        9.349528    1.109724    3.758783
     95          1           0        7.890484   -3.842252    3.631559
     96          1           0        9.107744   -3.849535    2.289598
     97          1           0        7.704527   -4.929238    2.267283
     98          1           0        2.708216   -3.325621    1.510331
     99          1           0        2.208571   -6.916226   -0.884244
    100          1           0        0.931380   -5.771366   -1.476409
    101          1           0        0.650134   -6.674445   -0.060117
    102          1           0       -3.943830   -3.929677    1.205922
    103          1           0       -3.107658   -4.843983   -0.146786
    104          1           0       -4.388494   -2.457976   -1.177019
    105          1           0       -7.366415   -5.020212    0.148222
    106          1           0       -5.915909   -5.318321    0.871130
    107          1           0       -6.229005   -6.088232   -0.702095
    108          1           0       -7.241596   -4.029756   -2.266613
    109          1           0       -6.159421   -2.682057   -2.533053
    110          1           0       -7.415876   -1.795443   -0.248280
    111          1           0       -8.710074   -2.947726   -0.703487
    112          1           0       -8.107624   -1.448780   -3.054848
    113          1           0       -8.062819   -0.279622   -1.711689
    114          1           0      -10.371575   -2.187583   -1.898115
    115          1           0      -11.176809   -0.292998   -3.703489
    116          1           0      -10.899057   -1.982364   -3.880369
    117          1           0       -9.638314   -0.705250   -4.234107
    118          1           0      -10.459846    0.864461   -1.674548
    119          1           0       -9.954800   -0.148906   -0.297099
    120          1           0      -12.032563   -0.822413    0.326396
    121          1           0      -12.284708   -1.162798   -1.476230
    122          1           0      -13.562925    0.738703   -1.821777
    123          1           0      -12.394174    1.690451   -1.083872
    124          1           0      -13.345298    0.851392    1.186243
    125          1           0      -15.965674    0.791848   -0.287058
    126          1           0      -15.536383   -0.084418    1.248082
    127          1           0      -14.874907   -0.647226   -0.321845
    128          1           0      -15.363603    2.690752    0.661901
    129          1           0      -14.131786    3.117624   -0.631623
    130          1           0      -13.360373    4.457006    1.035626
    131          1           0      -12.376876    3.016050    1.282780
    132          1           0      -13.275954    3.073300    3.531414
    133          1           0      -14.636427    2.301646    2.751440
    134          1           0      -15.028877    5.205055    2.290413
    135          1           0      -16.922714    4.239274    2.278618
    136          1           0      -16.869338    4.539132    3.983517
    137          1           0      -16.446087    2.902485    3.424078
    138          1           0      -13.478164    4.684931    4.766768
    139          1           0      -15.193911    5.111898    5.125935
    140          1           0      -14.146666    6.156138    4.172103
 ---------------------------------------------------------------------

 SCF Done:  E(RPBE1PBE) =  -3005.32925901     A.U. after   15 cycles

 Excitation energies and oscillator strengths:

 Excited State   1:      Singlet-A      1.8726 eV  662.10 nm  f=0.3605  <S**2>=0.000
     245 -> 248        0.19126
     246 -> 247        0.68759
 This state for optimization and/or second-order correction.
 Total Energy, E(TD-HF/TD-DFT) =  -3005.26044233
 Copying the excited state density for this state as the 1-particle RhoCI density.

 Excited State   2:      Singlet-A      2.2129 eV  560.29 nm  f=0.1131  <S**2>=0.000
     245 -> 247        0.65296
     246 -> 248       -0.26549

 Excited State   3:      Singlet-A      3.0382 eV  408.08 nm  f=0.0004  <S**2>=0.000
     242 -> 247        0.66834
     242 -> 249       -0.19632

 Excited State   4:      Singlet-A      3.1214 eV  397.21 nm  f=0.0039  <S**2>=0.000
     241 -> 247        0.10769
     243 -> 247        0.66880
     243 -> 249        0.10932

 Excited State   5:      Singlet-A      3.2854 eV  377.38 nm  f=0.0030  <S**2>=0.000
     241 -> 247        0.65846
     243 -> 247       -0.14426
     246 -> 248        0.10381

 The electronic state is 1-A.
 Alpha  occ. eigenvalues --  -46.92117 -19.24939 -19.24227 -19.21350 -19.19664
 Alpha  occ. eigenvalues --  -19.19134 -19.18100 -14.41541 -14.41496 -14.39735
 Alpha  occ. eigenvalues --  -14.39589 -10.37339 -10.34683 -10.32444 -10.31714
 Alpha  occ. eigenvalues --  -10.29789 -10.29783 -10.28999 -10.28939 -10.28682
 Alpha  occ. eigenvalues --  -10.28460 -10.28249 -10.28043 -10.27456 -10.27064
 Alpha  occ. eigenvalues --  -10.26926 -10.26654 -10.26261 -10.26216 -10.26164
 Alpha  occ. eigenvalues --  -10.26095 -10.25900 -10.25634 -10.25612 -10.25420
 Alpha  occ. eigenvalues --  -10.25033 -10.24901 -10.24593 -10.24488 -10.24215
 Alpha  occ. eigenvalues --  -10.24002 -10.23925 -10.23786 -10.23573 -10.23501
 Alpha  occ. eigenvalues --  -10.23399 -10.23231 -10.23200 -10.23181 -10.23138
 Alpha  occ. eigenvalues --  -10.23113 -10.23103 -10.22963 -10.22720 -10.22656
 Alpha  occ. eigenvalues --  -10.22614 -10.22498 -10.22403 -10.22380 -10.22337
 Alpha  occ. eigenvalues --  -10.22302 -10.22257 -10.21725 -10.21714 -10.21645
 Alpha  occ. eigenvalues --  -10.21400  -3.14346  -1.87170  -1.86695  -1.86616
 Alpha  occ. eigenvalues --   -1.09929  -1.08289  -1.05958  -1.04366  -1.02263
 Alpha  occ. eigenvalues --   -1.00135  -0.99491  -0.97825  -0.97278  -0.96269
 Alpha  occ. eigenvalues --   -0.86392  -0.85086  -0.83590  -0.83239  -0.82798
 Alpha  occ. eigenvalues --   -0.82791  -0.82397  -0.81702  -0.81346  -0.81230
 Alpha  occ. eigenvalues --   -0.81031  -0.78829  -0.78154  -0.78029  -0.77042
 Alpha  occ. eigenvalues --   -0.76246  -0.75837  -0.75072  -0.74632  -0.74109
 Alpha  occ. eigenvalues --   -0.73450  -0.72818  -0.71927  -0.71286  -0.70675
 Alpha  occ. eigenvalues --   -0.70213  -0.69597  -0.69362  -0.68716  -0.67614
 Alpha  occ. eigenvalues --   -0.67194  -0.66992  -0.66002  -0.65037  -0.64567
 Alpha  occ. eigenvalues --   -0.63886  -0.62750  -0.61588  -0.61018  -0.59792
 Alpha  occ. eigenvalues --   -0.59505  -0.59007  -0.58700  -0.58676  -0.57750
 Alpha  occ. eigenvalues --   -0.57544  -0.56705  -0.56615  -0.55224  -0.54604
 Alpha  occ. eigenvalues --   -0.54439  -0.53982  -0.53528  -0.52640  -0.51916
 Alpha  occ. eigenvalues --   -0.51334  -0.50944  -0.50619  -0.49985  -0.49612
 Alpha  occ. eigenvalues --   -0.49212  -0.49118  -0.48995  -0.48470  -0.47844
 Alpha  occ. eigenvalues --   -0.47744  -0.47612  -0.47138  -0.46959  -0.46732
 Alpha  occ. eigenvalues --   -0.46499  -0.46455  -0.46298  -0.46216  -0.46074
 Alpha  occ. eigenvalues --   -0.45902  -0.45819  -0.45596  -0.45215  -0.44923
 Alpha  occ. eigenvalues --   -0.44698  -0.44451  -0.44302  -0.44112  -0.43985
 Alpha  occ. eigenvalues --   -0.43881  -0.43602  -0.43573  -0.43280  -0.43143
 Alpha  occ. eigenvalues --   -0.43079  -0.43051  -0.43034  -0.42822  -0.42546
 Alpha  occ. eigenvalues --   -0.42308  -0.42082  -0.41691  -0.41579  -0.41501
 Alpha  occ. eigenvalues --   -0.41409  -0.41007  -0.40653  -0.40519  -0.40401
 Alpha  occ. eigenvalues --   -0.40123  -0.40051  -0.39878  -0.39797  -0.39704
 Alpha  occ. eigenvalues --   -0.39611  -0.39363  -0.39081  -0.38677  -0.38518
 Alpha  occ. eigenvalues --   -0.38317  -0.38164  -0.37911  -0.37815  -0.37703
 Alpha  occ. eigenvalues --   -0.37571  -0.37503  -0.37297  -0.36930  -0.36873
 Alpha  occ. eigenvalues --   -0.36504  -0.36453  -0.36216  -0.36090  -0.35777
 Alpha  occ. eigenvalues --   -0.35478  -0.35411  -0.35161  -0.34832  -0.34781
 Alpha  occ. eigenvalues --   -0.34692  -0.34636  -0.34341  -0.34149  -0.33595
 Alpha  occ. eigenvalues --   -0.33151  -0.33118  -0.32918  -0.32876  -0.32433
 Alpha  occ. eigenvalues --   -0.32051  -0.31754  -0.31489  -0.31419  -0.31019
 Alpha  occ. eigenvalues --   -0.30599  -0.30194  -0.29950  -0.29821  -0.29286
 Alpha  occ. eigenvalues --   -0.28852  -0.28504  -0.27259  -0.26686  -0.26431
 Alpha  occ. eigenvalues --   -0.26018  -0.25645  -0.25576  -0.25080  -0.20716
 Alpha  occ. eigenvalues --   -0.18788
 Alpha virt. eigenvalues --   -0.11037  -0.05326  -0.04278  -0.02260  -0.00204
 Alpha virt. eigenvalues --    0.00073   0.01358   0.01491   0.01974   0.03318
 Alpha virt. eigenvalues --    0.04292   0.04852   0.05538   0.05858   0.05923

 Mulliken charges:
               1
     1  Mg   1.008748
     2  C    0.011136
     3  C   -0.083878
     4  C   -0.029505
     5  C   -0.064995
     6  N   -0.387636
     7  C    0.032636
     8  C    0.000730
     9  C   -0.179922
    10  C    0.085475
    11  C   -0.020717
    12  C   -0.029436
    13  C   -0.022088
    14  C    0.242118
    15  O   -0.223506
    16  O   -0.419844
    17  N   -0.480708
    18  C    0.195449
    19  C   -0.151460
    20  C   -0.119428
    21  C    0.200367
    22  C    0.034864
    23  C    0.059313
    24  O   -0.206800
    25  C   -0.046433
    26  N   -0.362599
    27  C   -0.032712
    28  C   -0.096289
    29  C   -0.073586
    30  C    0.075033
    31  C    0.003815
    32  C   -0.035921
    33  C   -0.071981
    34  N   -0.530023
    35  C    0.149392
    36  C   -0.157456
    37  C    0.002442
    38  C    0.152033
    39  C    0.044129
    40  C    0.112487
    41  O   -0.214589
    42  C   -0.163221
    43  C    0.284465
    44  O   -0.264696
    45  O   -0.402397
    46  C    0.132855
    47  C    0.271318
    48  C   -0.165756
    49  C   -0.205944
    50  C   -0.010894
    51  C    0.007975
    52  C    0.000329
    53  C    0.030813
    54  C   -0.275295
    55  C   -0.034310
    56  C   -0.009108
    57  C   -0.024727
    58  C   -0.017391
    59  C   -0.227829
    60  C   -0.000681
    61  C   -0.015190
    62  C   -0.068630
    63  C   -0.009330
    64  C   -0.253295
    65  C   -0.007465
    66  C   -0.023621
    67  H   -0.005021
    68  H    0.012800
    69  H   -0.000890
    70  H    0.066865
    71  H    0.050248
    72  H    0.044040
    73  H    0.046814
    74  H    0.056937
    75  H    0.041821
    76  H    0.068320
    77  H    0.055805
    78  H    0.061593
    79  H    0.057702
    80  H    0.051982
    81  H    0.043133
    82  H    0.049133
    83  H    0.061124
    84  H    0.072511
    85  H    0.059710
    86  H    0.041175
    87  H    0.050025
    88  H    0.063578
    89  H    0.050640
    90  H    0.041621
    91  H    0.032669
    92  H    0.029183
    93  H    0.039140
    94  H    0.054911
    95  H    0.074306
    96  H    0.046278
    97  H    0.065079
    98  H    0.066225
    99  H    0.073812
   100  H    0.063818
   101  H    0.052944
   102  H    0.057637
   103  H    0.075590
   104  H    0.024634
   105  H    0.033478
   106  H    0.032902
   107  H    0.060329
   108  H    0.026018
   109  H    0.042297
   110  H    0.032042
   111  H    0.041101
   112  H    0.028222
   113  H    0.030514
   114  H    0.029352
   115  H    0.023103
   116  H    0.038074
   117  H    0.032298
   118  H    0.036645
   119  H    0.019047
   120  H    0.044803
   121  H    0.035289
   122  H    0.023208
   123  H    0.021375
   124  H    0.029384
   125  H    0.042828
   126  H    0.041506
   127  H    0.031025
   128  H    0.032569
   129  H    0.028838
   130  H    0.031495
   131  H    0.027545
   132  H    0.027103
   133  H    0.030046
   134  H    0.037827
   135  H    0.038086
   136  H    0.023428
   137  H    0.037174
   138  H    0.035977
   139  H    0.029270
   140  H    0.031290
 Sum of Mulliken charges =  -0.00000

 Dipole moment (field-independent basis, Debye):
    X=             -2.7131    Y=              3.1633    Z=              1.2939  Tot=              4.3637
 Quadrupole moment (field-independent basis, Debye-Ang):
   XX=           -368.9916   YY=           -419.4744   ZZ=           -402.5109
   XY=             10.8028   XZ=             20.0038   YZ=             -9.2030

 Normal termination of Gaussian 16 at Wed Apr 27 16:05:52 2022.
