 Gaussian 16, Revision A.03,
 Gaussian 16:  ES64L-G16RevA.03 25-Dec-2016

 --------------------------------
 #p wB97XD/Def2SVP td=(nstates=5)
 --------------------------------

 -----------------------------------------------------
 step_1251_chromophore_16 TDDFT with wB97XD functional
 -----------------------------------------------------
 Symbolic Z-matrix:
 Charge =  0 Multiplicity = 1

                         Standard orientation:
 ---------------------------------------------------------------------
 Center     Atomic      Atomic             Coordinates (Angstroms)
 Number     Number       Type             X           Y           Z
 ---------------------------------------------------------------------
      1         12           0        6.122694    0.706089    0.150148
      2          6           0        4.078785   -2.034312    0.378319
      3          6           0        3.661530    2.429018   -1.634392
      4          6           0        8.282277    3.355087   -0.367199
      5          6           0        8.773809   -1.039036    1.499066
      6          7           0        4.054735    0.181287   -0.653733
      7          6           0        3.409997   -0.985213   -0.346161
      8          6           0        1.913437   -0.974763   -0.897822
      9          6           0        1.888714    0.439998   -1.549358
     10          6           0        3.281202    1.107172   -1.344960
     11          6           0        1.412420    0.590925   -3.090046
     12          6           0        0.812563   -1.376978    0.150173
     13          6           0       -0.729366   -1.223046   -0.231760
     14          6           0       -1.529669   -2.549307   -0.647911
     15          8           0       -1.394896   -3.259166   -1.606164
     16          8           0       -2.489489   -2.774425    0.382687
     17          7           0        5.927972    2.530867   -0.822470
     18          6           0        4.883109    3.085425   -1.480741
     19          6           0        5.110087    4.462296   -1.879609
     20          6           0        6.396115    4.791964   -1.317898
     21          6           0        6.936455    3.511661   -0.823657
     22          6           0        4.106180    5.225415   -2.778686
     23          6           0        7.085239    6.161067   -1.267876
     24          8           0        8.172291    6.424952   -0.824870
     25          6           0        6.187150    7.285947   -1.834735
     26          7           0        8.290217    1.147464    0.558645
     27          6           0        8.950708    2.298711    0.259271
     28          6           0       10.435454    2.340086    0.786364
     29          6           0       10.592121    0.873067    1.366705
     30          6           0        9.134638    0.282409    1.188288
     31          6           0       11.430572    2.772201   -0.307259
     32          6           0       11.323035    0.826319    2.715392
     33          6           0       10.427397    1.049118    3.910835
     34          7           0        6.400623   -1.122061    0.738946
     35          6           0        7.531743   -1.668929    1.316034
     36          6           0        7.212782   -3.072746    1.741245
     37          6           0        5.832110   -3.214244    1.456113
     38          6           0        5.443910   -2.023146    0.814834
     39          6           0        8.054983   -3.939050    2.558265
     40          6           0        4.847063   -4.158349    1.538359
     41          8           0        4.776791   -5.322087    1.905323
     42          6           0        3.574418   -3.428370    0.855679
     43          6           0        3.074688   -4.285625   -0.204472
     44          8           0        3.615246   -4.426661   -1.296634
     45          8           0        1.983656   -5.025460    0.214162
     46          6           0        1.451093   -6.182258   -0.610517
     47          6           0       -3.500028   -3.891949    0.210491
     48          6           0       -4.638698   -3.384444   -0.659811
     49          6           0       -5.835206   -3.911791   -0.914025
     50          6           0       -6.322299   -5.165734   -0.128367
     51          6           0       -6.760213   -3.184184   -1.774134
     52          6           0       -7.877788   -2.345317   -1.068235
     53          6           0       -8.368500   -1.281986   -2.009143
     54          6           0       -9.910597   -1.216614   -2.080255
     55          6           0      -10.416362   -1.060718   -3.558231
     56          6           0      -10.559884   -0.113673   -1.203402
     57          6           0      -12.043463   -0.441768   -0.694974
     58          6           0      -12.990284    0.797868   -0.896326
     59          6           0      -13.910596    1.084946    0.284374
     60          6           0      -15.213702    0.215641    0.251358
     61          6           0      -14.336711    2.604467    0.307830
     62          6           0      -13.397063    3.401924    1.303817
     63          6           0      -14.022631    3.202469    2.747996
     64          6           0      -14.956246    4.425867    3.049547
     65          6           0      -16.390261    3.966131    3.190433
     66          6           0      -14.401380    5.116044    4.378694
     67          1           0        2.853529    2.963840   -2.136780
     68          1           0        9.072502    4.103654   -0.451359
     69          1           0        9.523427   -1.675782    1.974247
     70          1           0        1.855428   -1.627602   -1.768657
     71          1           0        1.156743    1.065231   -1.037541
     72          1           0        0.518301    1.200737   -3.216389
     73          1           0        1.145839   -0.403924   -3.448653
     74          1           0        2.251809    0.957930   -3.680316
     75          1           0        1.003215   -0.972473    1.143812
     76          1           0        0.943972   -2.438105    0.361247
     77          1           0       -0.714698   -0.529648   -1.073332
     78          1           0       -1.271618   -0.697818    0.554062
     79          1           0        4.747585    5.724048   -3.505773
     80          1           0        3.428991    5.942559   -2.314328
     81          1           0        3.333485    4.670204   -3.311193
     82          1           0        6.640049    8.223265   -1.511816
     83          1           0        5.252696    7.222035   -1.277072
     84          1           0        6.095769    7.180141   -2.915672
     85          1           0       10.442180    2.962599    1.680533
     86          1           0       11.295820    0.343472    0.725351
     87          1           0       11.589834    3.811790   -0.018800
     88          1           0       10.981189    2.838826   -1.298941
     89          1           0       12.397140    2.271113   -0.277152
     90          1           0       12.210543    1.458186    2.753409
     91          1           0       11.757063   -0.172030    2.772820
     92          1           0       10.594361    2.005147    4.407919
     93          1           0       10.675830    0.343840    4.704378
     94          1           0        9.349528    1.109724    3.758783
     95          1           0        7.890484   -3.842252    3.631559
     96          1           0        9.107744   -3.849535    2.289598
     97          1           0        7.704527   -4.929238    2.267283
     98          1           0        2.708216   -3.325621    1.510331
     99          1           0        2.208571   -6.916226   -0.884244
    100          1           0        0.931380   -5.771366   -1.476409
    101          1           0        0.650134   -6.674445   -0.060117
    102          1           0       -3.943830   -3.929677    1.205922
    103          1           0       -3.107658   -4.843983   -0.146786
    104          1           0       -4.388494   -2.457976   -1.177019
    105          1           0       -7.366415   -5.020212    0.148222
    106          1           0       -5.915909   -5.318321    0.871130
    107          1           0       -6.229005   -6.088232   -0.702095
    108          1           0       -7.241596   -4.029756   -2.266613
    109          1           0       -6.159421   -2.682057   -2.533053
    110          1           0       -7.415876   -1.795443   -0.248280
    111          1           0       -8.710074   -2.947726   -0.703487
    112          1           0       -8.107624   -1.448780   -3.054848
    113          1           0       -8.062819   -0.279622   -1.711689
    114          1           0      -10.371575   -2.187583   -1.898115
    115          1           0      -11.176809   -0.292998   -3.703489
    116          1           0      -10.899057   -1.982364   -3.880369
    117          1           0       -9.638314   -0.705250   -4.234107
    118          1           0      -10.459846    0.864461   -1.674548
    119          1           0       -9.954800   -0.148906   -0.297099
    120          1           0      -12.032563   -0.822413    0.326396
    121          1           0      -12.284708   -1.162798   -1.476230
    122          1           0      -13.562925    0.738703   -1.821777
    123          1           0      -12.394174    1.690451   -1.083872
    124          1           0      -13.345298    0.851392    1.186243
    125          1           0      -15.965674    0.791848   -0.287058
    126          1           0      -15.536383   -0.084418    1.248082
    127          1           0      -14.874907   -0.647226   -0.321845
    128          1           0      -15.363603    2.690752    0.661901
    129          1           0      -14.131786    3.117624   -0.631623
    130          1           0      -13.360373    4.457006    1.035626
    131          1           0      -12.376876    3.016050    1.282780
    132          1           0      -13.275954    3.073300    3.531414
    133          1           0      -14.636427    2.301646    2.751440
    134          1           0      -15.028877    5.205055    2.290413
    135          1           0      -16.922714    4.239274    2.278618
    136          1           0      -16.869338    4.539132    3.983517
    137          1           0      -16.446087    2.902485    3.424078
    138          1           0      -13.478164    4.684931    4.766768
    139          1           0      -15.193911    5.111898    5.125935
    140          1           0      -14.146666    6.156138    4.172103
 ---------------------------------------------------------------------

 SCF Done:  E(RwB97XD) =  -3007.83781084     A.U. after   20 cycles

 Excitation energies and oscillator strengths:

 Excited State   1:      Singlet-A      1.6526 eV  750.22 nm  f=0.3677  <S**2>=0.000
     245 -> 248       -0.20540
     246 -> 247        0.67828
     245 <- 248       -0.12318
 This state for optimization and/or second-order correction.
 Total Energy, E(TD-HF/TD-DFT) =  -3007.77707719
 Copying the excited state density for this state as the 1-particle RhoCI density.

 Excited State   2:      Singlet-A      2.1555 eV  575.21 nm  f=0.1095  <S**2>=0.000
     245 -> 247        0.63772
     246 -> 248        0.29786

 Excited State   3:      Singlet-A      3.5303 eV  351.20 nm  f=0.5623  <S**2>=0.000
     242 -> 247       -0.27987
     242 -> 249        0.17695
     243 -> 247       -0.10136
     245 -> 247       -0.24197
     246 -> 248        0.53607
     245 <- 247        0.10280

 Excited State   4:      Singlet-A      3.5462 eV  349.63 nm  f=0.1610  <S**2>=0.000
     241 -> 247        0.11150
     241 -> 249       -0.10331
     242 -> 247        0.44097
     242 -> 249       -0.29781
     242 -> 250       -0.14061
     243 -> 247       -0.18210
     245 -> 247       -0.13023
     246 -> 248        0.29367

 Excited State   5:      Singlet-A      3.6049 eV  343.93 nm  f=0.0861  <S**2>=0.000
     243 -> 247        0.62869
     243 -> 249        0.12414
     245 -> 247       -0.10014
     246 -> 248        0.13868

 The electronic state is 1-A.
 Alpha  occ. eigenvalues --  -46.95029 -19.29455 -19.28799 -19.26041 -19.24517
 Alpha  occ. eigenvalues --  -19.23917 -19.22842 -14.46680 -14.46492 -14.44702
 Alpha  occ. eigenvalues --  -14.44540 -10.44127 -10.41535 -10.39303 -10.38603
 Alpha  occ. eigenvalues --  -10.36279 -10.36071 -10.35305 -10.35166 -10.35024
 Alpha  occ. eigenvalues --  -10.34988 -10.34522 -10.34302 -10.33825 -10.33394
 Alpha  occ. eigenvalues --  -10.33385 -10.32916 -10.32778 -10.32640 -10.32400
 Alpha  occ. eigenvalues --  -10.32315 -10.32122 -10.32022 -10.31825 -10.31813
 Alpha  occ. eigenvalues --  -10.31547 -10.31283 -10.31054 -10.30845 -10.30521
 Alpha  occ. eigenvalues --  -10.30366 -10.30346 -10.30151 -10.30030 -10.29879
 Alpha  occ. eigenvalues --  -10.29875 -10.29580 -10.29565 -10.29509 -10.29486
 Alpha  occ. eigenvalues --  -10.29484 -10.29436 -10.29386 -10.29113 -10.29006
 Alpha  occ. eigenvalues --  -10.28916 -10.28894 -10.28746 -10.28726 -10.28692
 Alpha  occ. eigenvalues --  -10.28679 -10.28585 -10.28153 -10.28129 -10.28048
 Alpha  occ. eigenvalues --  -10.27822  -3.21116  -1.94690  -1.94217  -1.94130
 Alpha  occ. eigenvalues --   -1.17302  -1.15719  -1.13458  -1.11835  -1.09599
 Alpha  occ. eigenvalues --   -1.07525  -1.06825  -1.05215  -1.04666  -1.03645
 Alpha  occ. eigenvalues --   -0.94001  -0.92746  -0.91267  -0.90826  -0.90461
 Alpha  occ. eigenvalues --   -0.90397  -0.90049  -0.89355  -0.89005  -0.88844
 Alpha  occ. eigenvalues --   -0.88712  -0.86486  -0.85807  -0.85645  -0.84670
 Alpha  occ. eigenvalues --   -0.83903  -0.83511  -0.82797  -0.82291  -0.81747
 Alpha  occ. eigenvalues --   -0.81119  -0.80485  -0.79587  -0.78889  -0.78357
 Alpha  occ. eigenvalues --   -0.77848  -0.77166  -0.77059  -0.76403  -0.75283
 Alpha  occ. eigenvalues --   -0.74794  -0.74545  -0.73548  -0.72653  -0.72111
 Alpha  occ. eigenvalues --   -0.71395  -0.70375  -0.69175  -0.68662  -0.67262
 Alpha  occ. eigenvalues --   -0.67163  -0.66393  -0.66199  -0.66141  -0.65435
 Alpha  occ. eigenvalues --   -0.65203  -0.64262  -0.64150  -0.62625  -0.62008
 Alpha  occ. eigenvalues --   -0.61857  -0.61524  -0.60921  -0.59976  -0.59297
 Alpha  occ. eigenvalues --   -0.58811  -0.58426  -0.58079  -0.57413  -0.57019
 Alpha  occ. eigenvalues --   -0.56637  -0.56557  -0.56401  -0.55857  -0.55284
 Alpha  occ. eigenvalues --   -0.55138  -0.55038  -0.54673  -0.54368  -0.54073
 Alpha  occ. eigenvalues --   -0.53909  -0.53830  -0.53656  -0.53592  -0.53465
 Alpha  occ. eigenvalues --   -0.53257  -0.53197  -0.52970  -0.52565  -0.52273
 Alpha  occ. eigenvalues --   -0.52059  -0.51779  -0.51645  -0.51439  -0.51334
 Alpha  occ. eigenvalues --   -0.51219  -0.50930  -0.50849  -0.50583  -0.50451
 Alpha  occ. eigenvalues --   -0.50366  -0.50356  -0.50311  -0.50112  -0.49814
 Alpha  occ. eigenvalues --   -0.49621  -0.49366  -0.49000  -0.48827  -0.48763
 Alpha  occ. eigenvalues --   -0.48625  -0.48194  -0.47792  -0.47784  -0.47571
 Alpha  occ. eigenvalues --   -0.47311  -0.47286  -0.47106  -0.46966  -0.46932
 Alpha  occ. eigenvalues --   -0.46796  -0.46565  -0.46273  -0.45792  -0.45632
 Alpha  occ. eigenvalues --   -0.45444  -0.45299  -0.45064  -0.45026  -0.44849
 Alpha  occ. eigenvalues --   -0.44719  -0.44655  -0.44402  -0.44039  -0.43965
 Alpha  occ. eigenvalues --   -0.43626  -0.43523  -0.43232  -0.43144  -0.42824
 Alpha  occ. eigenvalues --   -0.42553  -0.42487  -0.42188  -0.41829  -0.41792
 Alpha  occ. eigenvalues --   -0.41743  -0.41694  -0.41300  -0.41170  -0.40689
 Alpha  occ. eigenvalues --   -0.40205  -0.40048  -0.39928  -0.39885  -0.39479
 Alpha  occ. eigenvalues --   -0.39101  -0.38820  -0.38474  -0.38236  -0.37998
 Alpha  occ. eigenvalues --   -0.37484  -0.37296  -0.36897  -0.36629  -0.36280
 Alpha  occ. eigenvalues --   -0.35495  -0.35393  -0.34371  -0.33422  -0.32977
 Alpha  occ. eigenvalues --   -0.32852  -0.32692  -0.32381  -0.31815  -0.25635
 Alpha  occ. eigenvalues --   -0.22950
 Alpha virt. eigenvalues --   -0.06893   0.00036   0.01975   0.04240   0.05652
 Alpha virt. eigenvalues --    0.06946   0.08143   0.08262   0.08692   0.09523
 Alpha virt. eigenvalues --    0.10926   0.11731   0.12316   0.12626   0.12739

 Mulliken charges:
               1
     1  Mg   0.998278
     2  C    0.005422
     3  C   -0.101317
     4  C   -0.044121
     5  C   -0.080633
     6  N   -0.354916
     7  C   -0.000064
     8  C    0.022934
     9  C   -0.159691
    10  C    0.074246
    11  C   -0.007273
    12  C   -0.012906
    13  C   -0.003565
    14  C    0.231816
    15  O   -0.220807
    16  O   -0.420135
    17  N   -0.449614
    18  C    0.192111
    19  C   -0.146060
    20  C   -0.115613
    21  C    0.196879
    22  C    0.048026
    23  C    0.053981
    24  O   -0.200523
    25  C   -0.029191
    26  N   -0.327306
    27  C   -0.048315
    28  C   -0.070285
    29  C   -0.052063
    30  C    0.057423
    31  C    0.013581
    32  C   -0.020403
    33  C   -0.058090
    34  N   -0.489173
    35  C    0.143880
    36  C   -0.156410
    37  C    0.001222
    38  C    0.138363
    39  C    0.055130
    40  C    0.100907
    41  O   -0.204162
    42  C   -0.124024
    43  C    0.256919
    44  O   -0.257888
    45  O   -0.400379
    46  C    0.146566
    47  C    0.286648
    48  C   -0.178495
    49  C   -0.192174
    50  C    0.001398
    51  C    0.030142
    52  C    0.015881
    53  C    0.046758
    54  C   -0.244724
    55  C   -0.024504
    56  C    0.005418
    57  C   -0.006479
    58  C   -0.002408
    59  C   -0.200931
    60  C    0.013861
    61  C    0.006211
    62  C   -0.049976
    63  C    0.011172
    64  C   -0.230184
    65  C    0.005005
    66  C   -0.009541
    67  H   -0.013896
    68  H    0.005868
    69  H   -0.007233
    70  H    0.056685
    71  H    0.038180
    72  H    0.039141
    73  H    0.040741
    74  H    0.050378
    75  H    0.035934
    76  H    0.050832
    77  H    0.046177
    78  H    0.058043
    79  H    0.050117
    80  H    0.047897
    81  H    0.039694
    82  H    0.047402
    83  H    0.053108
    84  H    0.067057
    85  H    0.048392
    86  H    0.030587
    87  H    0.043931
    88  H    0.057824
    89  H    0.046139
    90  H    0.034728
    91  H    0.025087
    92  H    0.023304
    93  H    0.034271
    94  H    0.046546
    95  H    0.070711
    96  H    0.041470
    97  H    0.060493
    98  H    0.059056
    99  H    0.070703
   100  H    0.061678
   101  H    0.049472
   102  H    0.052122
   103  H    0.072796
   104  H    0.019651
   105  H    0.026882
   106  H    0.027721
   107  H    0.055759
   108  H    0.016047
   109  H    0.035513
   110  H    0.023282
   111  H    0.032757
   112  H    0.016781
   113  H    0.022942
   114  H    0.015026
   115  H    0.015721
   116  H    0.033276
   117  H    0.026263
   118  H    0.027896
   119  H    0.008243
   120  H    0.039019
   121  H    0.022537
   122  H    0.015022
   123  H    0.008583
   124  H    0.014931
   125  H    0.036383
   126  H    0.036854
   127  H    0.023070
   128  H    0.017234
   129  H    0.021146
   130  H    0.023074
   131  H    0.018604
   132  H    0.019291
   133  H    0.013784
   134  H    0.027274
   135  H    0.032825
   136  H    0.016983
   137  H    0.030916
   138  H    0.029509
   139  H    0.022454
   140  H    0.025479
 Sum of Mulliken charges =  -0.00000

 Dipole moment (field-independent basis, Debye):
    X=             -2.7740    Y=              3.2560    Z=              1.2946  Tot=              4.4691
 Quadrupole moment (field-independent basis, Debye-Ang):
   XX=           -369.7856   YY=           -417.4845   ZZ=           -402.1384
   XY=             11.3823   XZ=             19.5667   YZ=             -9.6558

 Normal termination of Gaussian 16 at Wed Apr 27 16:30:22 2022.
