 Gaussian 16, Revision A.03,
 Gaussian 16:  ES64L-G16RevA.03 25-Dec-2016

 --------------------
 #p ZINDO=(nstates=5)
 --------------------

 ------------------------------
 step_1251_chromophore_16 ZINDO
 ------------------------------
 Symbolic Z-matrix:
 Charge =  0 Multiplicity = 1

                         Standard orientation:
 ---------------------------------------------------------------------
 Center     Atomic      Atomic             Coordinates (Angstroms)
 Number     Number       Type             X           Y           Z
 ---------------------------------------------------------------------
      1         12           0        6.122694    0.706089    0.150148
      2          6           0        4.078785   -2.034312    0.378319
      3          6           0        3.661530    2.429018   -1.634392
      4          6           0        8.282277    3.355087   -0.367199
      5          6           0        8.773809   -1.039036    1.499066
      6          7           0        4.054735    0.181287   -0.653733
      7          6           0        3.409997   -0.985213   -0.346161
      8          6           0        1.913437   -0.974763   -0.897822
      9          6           0        1.888714    0.439998   -1.549358
     10          6           0        3.281202    1.107172   -1.344960
     11          6           0        1.412420    0.590925   -3.090046
     12          6           0        0.812563   -1.376978    0.150173
     13          6           0       -0.729366   -1.223046   -0.231760
     14          6           0       -1.529669   -2.549307   -0.647911
     15          8           0       -1.394896   -3.259166   -1.606164
     16          8           0       -2.489489   -2.774425    0.382687
     17          7           0        5.927972    2.530867   -0.822470
     18          6           0        4.883109    3.085425   -1.480741
     19          6           0        5.110087    4.462296   -1.879609
     20          6           0        6.396115    4.791964   -1.317898
     21          6           0        6.936455    3.511661   -0.823657
     22          6           0        4.106180    5.225415   -2.778686
     23          6           0        7.085239    6.161067   -1.267876
     24          8           0        8.172291    6.424952   -0.824870
     25          6           0        6.187150    7.285947   -1.834735
     26          7           0        8.290217    1.147464    0.558645
     27          6           0        8.950708    2.298711    0.259271
     28          6           0       10.435454    2.340086    0.786364
     29          6           0       10.592121    0.873067    1.366705
     30          6           0        9.134638    0.282409    1.188288
     31          6           0       11.430572    2.772201   -0.307259
     32          6           0       11.323035    0.826319    2.715392
     33          6           0       10.427397    1.049118    3.910835
     34          7           0        6.400623   -1.122061    0.738946
     35          6           0        7.531743   -1.668929    1.316034
     36          6           0        7.212782   -3.072746    1.741245
     37          6           0        5.832110   -3.214244    1.456113
     38          6           0        5.443910   -2.023146    0.814834
     39          6           0        8.054983   -3.939050    2.558265
     40          6           0        4.847063   -4.158349    1.538359
     41          8           0        4.776791   -5.322087    1.905323
     42          6           0        3.574418   -3.428370    0.855679
     43          6           0        3.074688   -4.285625   -0.204472
     44          8           0        3.615246   -4.426661   -1.296634
     45          8           0        1.983656   -5.025460    0.214162
     46          6           0        1.451093   -6.182258   -0.610517
     47          6           0       -3.500028   -3.891949    0.210491
     48          6           0       -4.638698   -3.384444   -0.659811
     49          6           0       -5.835206   -3.911791   -0.914025
     50          6           0       -6.322299   -5.165734   -0.128367
     51          6           0       -6.760213   -3.184184   -1.774134
     52          6           0       -7.877788   -2.345317   -1.068235
     53          6           0       -8.368500   -1.281986   -2.009143
     54          6           0       -9.910597   -1.216614   -2.080255
     55          6           0      -10.416362   -1.060718   -3.558231
     56          6           0      -10.559884   -0.113673   -1.203402
     57          6           0      -12.043463   -0.441768   -0.694974
     58          6           0      -12.990284    0.797868   -0.896326
     59          6           0      -13.910596    1.084946    0.284374
     60          6           0      -15.213702    0.215641    0.251358
     61          6           0      -14.336711    2.604467    0.307830
     62          6           0      -13.397063    3.401924    1.303817
     63          6           0      -14.022631    3.202469    2.747996
     64          6           0      -14.956246    4.425867    3.049547
     65          6           0      -16.390261    3.966131    3.190433
     66          6           0      -14.401380    5.116044    4.378694
     67          1           0        2.853529    2.963840   -2.136780
     68          1           0        9.072502    4.103654   -0.451359
     69          1           0        9.523427   -1.675782    1.974247
     70          1           0        1.855428   -1.627602   -1.768657
     71          1           0        1.156743    1.065231   -1.037541
     72          1           0        0.518301    1.200737   -3.216389
     73          1           0        1.145839   -0.403924   -3.448653
     74          1           0        2.251809    0.957930   -3.680316
     75          1           0        1.003215   -0.972473    1.143812
     76          1           0        0.943972   -2.438105    0.361247
     77          1           0       -0.714698   -0.529648   -1.073332
     78          1           0       -1.271618   -0.697818    0.554062
     79          1           0        4.747585    5.724048   -3.505773
     80          1           0        3.428991    5.942559   -2.314328
     81          1           0        3.333485    4.670204   -3.311193
     82          1           0        6.640049    8.223265   -1.511816
     83          1           0        5.252696    7.222035   -1.277072
     84          1           0        6.095769    7.180141   -2.915672
     85          1           0       10.442180    2.962599    1.680533
     86          1           0       11.295820    0.343472    0.725351
     87          1           0       11.589834    3.811790   -0.018800
     88          1           0       10.981189    2.838826   -1.298941
     89          1           0       12.397140    2.271113   -0.277152
     90          1           0       12.210543    1.458186    2.753409
     91          1           0       11.757063   -0.172030    2.772820
     92          1           0       10.594361    2.005147    4.407919
     93          1           0       10.675830    0.343840    4.704378
     94          1           0        9.349528    1.109724    3.758783
     95          1           0        7.890484   -3.842252    3.631559
     96          1           0        9.107744   -3.849535    2.289598
     97          1           0        7.704527   -4.929238    2.267283
     98          1           0        2.708216   -3.325621    1.510331
     99          1           0        2.208571   -6.916226   -0.884244
    100          1           0        0.931380   -5.771366   -1.476409
    101          1           0        0.650134   -6.674445   -0.060117
    102          1           0       -3.943830   -3.929677    1.205922
    103          1           0       -3.107658   -4.843983   -0.146786
    104          1           0       -4.388494   -2.457976   -1.177019
    105          1           0       -7.366415   -5.020212    0.148222
    106          1           0       -5.915909   -5.318321    0.871130
    107          1           0       -6.229005   -6.088232   -0.702095
    108          1           0       -7.241596   -4.029756   -2.266613
    109          1           0       -6.159421   -2.682057   -2.533053
    110          1           0       -7.415876   -1.795443   -0.248280
    111          1           0       -8.710074   -2.947726   -0.703487
    112          1           0       -8.107624   -1.448780   -3.054848
    113          1           0       -8.062819   -0.279622   -1.711689
    114          1           0      -10.371575   -2.187583   -1.898115
    115          1           0      -11.176809   -0.292998   -3.703489
    116          1           0      -10.899057   -1.982364   -3.880369
    117          1           0       -9.638314   -0.705250   -4.234107
    118          1           0      -10.459846    0.864461   -1.674548
    119          1           0       -9.954800   -0.148906   -0.297099
    120          1           0      -12.032563   -0.822413    0.326396
    121          1           0      -12.284708   -1.162798   -1.476230
    122          1           0      -13.562925    0.738703   -1.821777
    123          1           0      -12.394174    1.690451   -1.083872
    124          1           0      -13.345298    0.851392    1.186243
    125          1           0      -15.965674    0.791848   -0.287058
    126          1           0      -15.536383   -0.084418    1.248082
    127          1           0      -14.874907   -0.647226   -0.321845
    128          1           0      -15.363603    2.690752    0.661901
    129          1           0      -14.131786    3.117624   -0.631623
    130          1           0      -13.360373    4.457006    1.035626
    131          1           0      -12.376876    3.016050    1.282780
    132          1           0      -13.275954    3.073300    3.531414
    133          1           0      -14.636427    2.301646    2.751440
    134          1           0      -15.028877    5.205055    2.290413
    135          1           0      -16.922714    4.239274    2.278618
    136          1           0      -16.869338    4.539132    3.983517
    137          1           0      -16.446087    2.902485    3.424078
    138          1           0      -13.478164    4.684931    4.766768
    139          1           0      -15.193911    5.111898    5.125935
    140          1           0      -14.146666    6.156138    4.172103
 ---------------------------------------------------------------------

 SCF Done:  E(RZINDO/S) =  -473.785582245     A.U. after   20 cycles

 Excitation energies and oscillator strengths:

 Excited State   1:      Singlet-A      1.2511 eV  991.02 nm  f=0.5921  <S**2>=0.000
     175 ->178        -0.20788
     176 ->177         0.65845
 This state for optimization and/or second-order correction.
 Total Energy, E(CIS/TDA) =  -473.739606191
 Copying the excited state density for this state as the 1-particle RhoCI density.

 Excited State   2:      Singlet-A      1.9077 eV  649.92 nm  f=0.0362  <S**2>=0.000
     175 ->177         0.54365
     176 ->178         0.43046

 Excited State   3:      Singlet-A      2.9525 eV  419.92 nm  f=0.0478  <S**2>=0.000
     169 ->179        -0.11528
     170 ->177         0.29505
     170 ->179        -0.34667
     170 ->180         0.22957
     170 ->185        -0.13182
     170 ->201         0.12262
     176 ->178        -0.12919
     176 ->179        -0.29025

 Excited State   4:      Singlet-A      2.9826 eV  415.70 nm  f=0.2210  <S**2>=0.000
     169 ->179        -0.10130
     170 ->177         0.16021
     170 ->179        -0.18605
     170 ->180         0.10831
     175 ->177        -0.18004
     176 ->178         0.26237
     176 ->179         0.49679

 Excited State   5:      Singlet-A      3.0373 eV  408.20 nm  f=1.0879  <S**2>=0.000
     175 ->177        -0.35901
     176 ->178         0.44336
     176 ->179        -0.35701
     176 ->180        -0.11321

 The electronic state is 1-A.
 Alpha  occ. eigenvalues --   -1.84654  -1.78779  -1.76369  -1.69520  -1.68825
 Alpha  occ. eigenvalues --   -1.67433  -1.65052  -1.61927  -1.59043  -1.56830
 Alpha  occ. eigenvalues --   -1.55000  -1.51488  -1.47920  -1.47136  -1.46632
 Alpha  occ. eigenvalues --   -1.43258  -1.42226  -1.39545  -1.38107  -1.37947
 Alpha  occ. eigenvalues --   -1.36096  -1.34386  -1.32073  -1.31143  -1.28124
 Alpha  occ. eigenvalues --   -1.26030  -1.24614  -1.21683  -1.19708  -1.17777
 Alpha  occ. eigenvalues --   -1.16800  -1.16005  -1.15685  -1.14543  -1.12846
 Alpha  occ. eigenvalues --   -1.12412  -1.11061  -1.09125  -1.04336  -1.04154
 Alpha  occ. eigenvalues --   -1.02470  -1.00800  -0.99771  -0.98012  -0.96720
 Alpha  occ. eigenvalues --   -0.95448  -0.94169  -0.93127  -0.93090  -0.92204
 Alpha  occ. eigenvalues --   -0.90811  -0.90436  -0.90130  -0.87216  -0.86757
 Alpha  occ. eigenvalues --   -0.85628  -0.83267  -0.82502  -0.81302  -0.80453
 Alpha  occ. eigenvalues --   -0.80341  -0.77418  -0.76758  -0.75997  -0.75808
 Alpha  occ. eigenvalues --   -0.75334  -0.75009  -0.74513  -0.74222  -0.73273
 Alpha  occ. eigenvalues --   -0.72969  -0.72405  -0.71993  -0.71341  -0.71012
 Alpha  occ. eigenvalues --   -0.70522  -0.69186  -0.68484  -0.67794  -0.67550
 Alpha  occ. eigenvalues --   -0.67179  -0.66632  -0.66388  -0.66128  -0.65534
 Alpha  occ. eigenvalues --   -0.64353  -0.64186  -0.63990  -0.63616  -0.63340
 Alpha  occ. eigenvalues --   -0.62497  -0.62462  -0.62225  -0.61975  -0.61646
 Alpha  occ. eigenvalues --   -0.61320  -0.60631  -0.60360  -0.60339  -0.60010
 Alpha  occ. eigenvalues --   -0.59205  -0.59147  -0.58943  -0.58470  -0.58026
 Alpha  occ. eigenvalues --   -0.57882  -0.57553  -0.56964  -0.56641  -0.56385
 Alpha  occ. eigenvalues --   -0.56206  -0.55666  -0.55557  -0.54931  -0.54768
 Alpha  occ. eigenvalues --   -0.54558  -0.53921  -0.53367  -0.53214  -0.52886
 Alpha  occ. eigenvalues --   -0.52376  -0.52176  -0.52069  -0.51724  -0.51324
 Alpha  occ. eigenvalues --   -0.50676  -0.50589  -0.50495  -0.50003  -0.49535
 Alpha  occ. eigenvalues --   -0.49363  -0.49129  -0.48939  -0.48840  -0.48493
 Alpha  occ. eigenvalues --   -0.48441  -0.48408  -0.48067  -0.47742  -0.47590
 Alpha  occ. eigenvalues --   -0.47386  -0.47230  -0.47050  -0.46923  -0.46822
 Alpha  occ. eigenvalues --   -0.46648  -0.46520  -0.45954  -0.45908  -0.45604
 Alpha  occ. eigenvalues --   -0.45455  -0.45195  -0.44978  -0.44385  -0.44284
 Alpha  occ. eigenvalues --   -0.44136  -0.43874  -0.42899  -0.42843  -0.42281
 Alpha  occ. eigenvalues --   -0.41780  -0.41547  -0.40729  -0.39564  -0.38893
 Alpha  occ. eigenvalues --   -0.37518  -0.37307  -0.35745  -0.34931  -0.34648
 Alpha  occ. eigenvalues --   -0.33496  -0.32994  -0.32196  -0.32077  -0.26442
 Alpha  occ. eigenvalues --   -0.21771
 Alpha virt. eigenvalues --   -0.08454  -0.02239  -0.00729   0.01161   0.01942
 Alpha virt. eigenvalues --    0.02311   0.02732   0.03476   0.05110   0.05378
 Alpha virt. eigenvalues --    0.06310   0.06550   0.06844   0.07355   0.07938

 Mulliken charges:
               1
     1  Mg   0.432365
     2  C   -0.062299
     3  C   -0.077025
     4  C   -0.060434
     5  C   -0.056533
     6  N   -0.293850
     7  C    0.125114
     8  C    0.014007
     9  C    0.001099
    10  C    0.124039
    11  C   -0.058312
    12  C   -0.021683
    13  C    0.001656
    14  C    0.465375
    15  O   -0.478928
    16  O   -0.300489
    17  N   -0.320436
    18  C    0.129620
    19  C   -0.004336
    20  C   -0.044683
    21  C    0.127321
    22  C   -0.044573
    23  C    0.328856
    24  O   -0.501782
    25  C   -0.039636
    26  N   -0.264630
    27  C    0.120592
    28  C    0.003364
    29  C   -0.002034
    30  C    0.111325
    31  C   -0.050574
    32  C   -0.017333
    33  C   -0.056107
    34  N   -0.292831
    35  C    0.078178
    36  C    0.036920
    37  C   -0.050189
    38  C    0.137735
    39  C   -0.034020
    40  C    0.343101
    41  O   -0.525332
    42  C    0.047559
    43  C    0.494406
    44  O   -0.532234
    45  O   -0.285542
    46  C    0.076527
    47  C    0.103610
    48  C   -0.083056
    49  C   -0.011703
    50  C   -0.051143
    51  C   -0.016009
    52  C   -0.021078
    53  C   -0.031851
    54  C   -0.023954
    55  C   -0.068832
    56  C   -0.040816
    57  C   -0.048670
    58  C   -0.032241
    59  C   -0.015726
    60  C   -0.064292
    61  C   -0.043512
    62  C   -0.047898
    63  C   -0.038084
    64  C   -0.017260
    65  C   -0.057091
    66  C   -0.067433
    67  H    0.018570
    68  H    0.042535
    69  H    0.027361
    70  H    0.047216
    71  H    0.019441
    72  H    0.024143
    73  H    0.022504
    74  H    0.028576
    75  H    0.027039
    76  H    0.024761
    77  H    0.035551
    78  H    0.037608
    79  H    0.026557
    80  H    0.031296
    81  H    0.027164
    82  H    0.032263
    83  H    0.033722
    84  H    0.048946
    85  H    0.039079
    86  H    0.022214
    87  H    0.015713
    88  H    0.034060
    89  H    0.028321
    90  H    0.024972
    91  H    0.009984
    92  H    0.009344
    93  H    0.015654
    94  H    0.027888
    95  H    0.042841
    96  H    0.026408
    97  H    0.033806
    98  H    0.047906
    99  H    0.055380
   100  H    0.043159
   101  H    0.031575
   102  H    0.039362
   103  H    0.067298
   104  H    0.026207
   105  H    0.014366
   106  H    0.022093
   107  H    0.032946
   108  H    0.014706
   109  H    0.032194
   110  H    0.019367
   111  H    0.032737
   112  H    0.022904
   113  H    0.021533
   114  H    0.020541
   115  H    0.009589
   116  H    0.017797
   117  H    0.017981
   118  H    0.031357
   119  H    0.003622
   120  H    0.036665
   121  H    0.024997
   122  H    0.018413
   123  H    0.011893
   124  H    0.022853
   125  H    0.026310
   126  H    0.023857
   127  H    0.017287
   128  H    0.027917
   129  H    0.020598
   130  H    0.019085
   131  H    0.017133
   132  H    0.020580
   133  H    0.020656
   134  H    0.028013
   135  H    0.015593
   136  H    0.012738
   137  H    0.023993
   138  H    0.022982
   139  H    0.020597
   140  H    0.011386
 Sum of Mulliken charges =  -0.00000

 Dipole moment (field-independent basis, Debye):
    X=             -4.7694    Y=              5.6361    Z=              1.4325  Tot=              7.5210
 N-N= 4.141993061082D+03 E-N= 0.000000000000D+00  KE=-8.958244737924D+03
 Leave Link  601 at Wed Apr 27 16:41:17 2022, MaxMem=  6710886400 cpu:               0.7 elap:               0.0
 (Enter /sw/apps/gaussian-16.0/g16/l9999.exe)
 1\1\GINC-BP1-COMPUTE137\SP\RZINDO CIS\STO-3G\C55H74Mg1N4O6\OF15641\27-
 Apr-2022\0\\#p ZINDO=(nstates=5)\\step_1251_chromophore_16 ZINDO\\0,1\
 Mg,0,40.403,42.164,27.105\C,0,39.666,44.239,29.73\C,0,41.224,39.596,29
 .328\C,0,41.455,40.167,24.487\C,0,40.056,44.744,24.843\N,0,40.529,41.9
 8,29.374\C,0,40.088,42.955,30.226\C,0,40.132,42.455,31.74\C,0,40.673,4
 1.011,31.519\C,0,40.892,40.789,29.993\C,0,41.972,40.519,32.352\C,0,38.
 808,42.682,32.557\C,0,38.67,42.057,34.019\C,0,38.872,43.039,35.271\O,0

 Normal termination of Gaussian 16 at Wed Apr 27 16:41:17 2022.
