 Gaussian 16, Revision A.03,
 Gaussian 16:  ES64L-G16RevA.03 25-Dec-2016

 ------------------------------
 #p blyp/Def2SVP td=(nstates=5)
 ------------------------------

 -------------------------------------------------
 step_751_chromophore_4 TDDFT with blyp functional
 -------------------------------------------------
 Symbolic Z-matrix:
 Charge =  0 Multiplicity = 1

                         Standard orientation:
 ---------------------------------------------------------------------
 Center     Atomic      Atomic             Coordinates (Angstroms)
 Number     Number       Type             X           Y           Z
 ---------------------------------------------------------------------
      1         12           0        5.933375    0.494388    0.277754
      2          6           0        3.548580   -2.043716    0.146909
      3          6           0        3.387932    2.760364   -0.540264
      4          6           0        8.141631    2.971769   -0.031761
      5          6           0        8.453744   -1.772563    0.338655
      6          7           0        3.667099    0.320650   -0.282382
      7          6           0        2.935460   -0.846036   -0.175754
      8          6           0        1.435489   -0.563572   -0.436731
      9          6           0        1.464362    0.999769   -0.731629
     10          6           0        2.897328    1.420248   -0.489028
     11          6           0        1.126469    1.281043   -2.220296
     12          6           0        0.462046   -0.949194    0.773048
     13          6           0       -1.035763   -0.689934    0.432227
     14          6           0       -2.058028   -1.788082    0.633607
     15          8           0       -2.140909   -2.392261    1.716773
     16          8           0       -2.786517   -2.188932   -0.498990
     17          7           0        5.727416    2.562301   -0.084418
     18          6           0        4.640538    3.354466   -0.279183
     19          6           0        4.953980    4.744143   -0.375218
     20          6           0        6.396794    4.796420   -0.350135
     21          6           0        6.793043    3.411527   -0.087466
     22          6           0        3.950293    5.871869   -0.592304
     23          6           0        7.359366    5.976086   -0.350615
     24          8           0        8.578467    5.893149   -0.274699
     25          6           0        6.802627    7.407204   -0.408716
     26          7           0        8.012673    0.613801    0.192991
     27          6           0        8.701402    1.712619    0.148384
     28          6           0       10.209805    1.433228    0.167449
     29          6           0       10.298385   -0.102073    0.174638
     30          6           0        8.835885   -0.505003    0.177191
     31          6           0       10.926757    1.922181   -1.098154
     32          6           0       11.138722   -0.806171    1.290814
     33          6           0       12.663002   -0.882803    1.003276
     34          7           0        6.028165   -1.433721    0.403472
     35          6           0        7.127226   -2.299376    0.522845
     36          6           0        6.725430   -3.637813    0.725591
     37          6           0        5.337512   -3.586521    0.606631
     38          6           0        4.975345   -2.259037    0.433709
     39          6           0        7.604219   -4.843395    0.792512
     40          6           0        4.175876   -4.398161    0.647006
     41          8           0        4.088684   -5.636782    0.757849
     42          6           0        2.938380   -3.444591    0.365725
     43          6           0        2.085778   -3.849794   -0.881014
     44          8           0        2.402051   -3.698804   -2.037223
     45          8           0        0.962910   -4.584873   -0.445197
     46          6           0        0.120437   -5.195803   -1.508395
     47          6           0       -3.759958   -3.306122   -0.310593
     48          6           0       -5.110542   -2.590985   -0.187071
     49          6           0       -6.284027   -3.171496    0.118455
     50          6           0       -6.547770   -4.653075    0.383746
     51          6           0       -7.452494   -2.332188    0.368483
     52          6           0       -8.097412   -1.554574   -0.781475
     53          6           0       -7.932715    0.015261   -0.790776
     54          6           0       -9.330311    0.695685   -0.729591
     55          6           0       -9.872378    0.906748   -2.170568
     56          6           0       -9.296139    1.965551    0.068702
     57          6           0       -9.518885    1.759138    1.627803
     58          6           0      -10.357907    2.942996    2.252036
     59          6           0      -11.871002    2.555980    2.469615
     60          6           0      -12.502204    2.921558    3.849840
     61          6           0      -12.805737    2.901307    1.232708
     62          6           0      -13.060821    1.717409    0.260733
     63          6           0      -14.576704    1.595342   -0.164230
     64          6           0      -14.714035    0.379147   -1.172388
     65          6           0      -14.234977    0.552530   -2.623095
     66          6           0      -16.222243    0.043258   -1.198508
     67          1           0        2.565241    3.437195   -0.782242
     68          1           0        8.893765    3.739998   -0.222508
     69          1           0        9.229315   -2.541014    0.320060
     70          1           0        1.345495   -1.139550   -1.356811
     71          1           0        0.737471    1.604685   -0.190451
     72          1           0        0.737480    0.389071   -2.709150
     73          1           0        2.025451    1.634934   -2.725341
     74          1           0        0.260568    1.941578   -2.271905
     75          1           0        0.771106   -0.321599    1.608324
     76          1           0        0.746115   -1.981777    0.978590
     77          1           0       -1.066664   -0.355543   -0.603898
     78          1           0       -1.395433    0.066533    1.130208
     79          1           0        3.929991    6.106736   -1.656494
     80          1           0        4.287643    6.798619   -0.128982
     81          1           0        2.923916    5.697855   -0.268740
     82          1           0        7.621674    8.118966   -0.300516
     83          1           0        6.081295    7.502641    0.402484
     84          1           0        6.235717    7.560767   -1.326475
     85          1           0       10.578644    2.001922    1.020923
     86          1           0       10.790253   -0.381692   -0.757982
     87          1           0       10.345212    2.001983   -2.017381
     88          1           0       11.913503    1.492045   -1.268675
     89          1           0       11.163648    2.966412   -0.891236
     90          1           0       10.765043   -1.790118    1.574726
     91          1           0       10.982686   -0.267250    2.225934
     92          1           0       13.239134   -0.155933    1.574623
     93          1           0       12.809356   -0.654188   -0.053370
     94          1           0       13.144832   -1.852592    1.131098
     95          1           0        8.369222   -4.700098    0.030171
     96          1           0        7.150685   -5.824184    0.648323
     97          1           0        8.135367   -4.844855    1.744443
     98          1           0        2.180723   -3.501505    1.147685
     99          1           0        0.687908   -6.022730   -1.933827
    100          1           0       -0.104124   -4.586951   -2.384508
    101          1           0       -0.840805   -5.584736   -1.173002
    102          1           0       -3.497268   -3.921384    0.549703
    103          1           0       -3.673447   -3.828458   -1.263300
    104          1           0       -5.165867   -1.505552   -0.096917
    105          1           0       -7.357993   -5.030603   -0.239239
    106          1           0       -6.813539   -4.784134    1.432842
    107          1           0       -5.579603   -5.130682    0.229848
    108          1           0       -7.194611   -1.535651    1.066608
    109          1           0       -8.222468   -2.985527    0.779845
    110          1           0       -9.136673   -1.879744   -0.817749
    111          1           0       -7.686737   -1.977697   -1.698976
    112          1           0       -7.397216    0.347370   -1.680569
    113          1           0       -7.432487    0.445594    0.076769
    114          1           0       -9.958606   -0.033911   -0.218599
    115          1           0       -9.394940    0.161879   -2.807222
    116          1           0       -9.518533    1.862247   -2.556202
    117          1           0      -10.953526    0.766466   -2.179859
    118          1           0       -9.910144    2.697564   -0.455005
    119          1           0       -8.270933    2.327799   -0.014429
    120          1           0       -8.633036    1.619483    2.247352
    121          1           0      -10.095868    0.843089    1.754419
    122          1           0      -10.250387    3.754809    1.532828
    123          1           0       -9.749447    3.281427    3.091494
    124          1           0      -11.951760    1.469661    2.483031
    125          1           0      -12.401326    2.118674    4.580213
    126          1           0      -13.577143    2.982078    3.679613
    127          1           0      -12.180695    3.911631    4.172805
    128          1           0      -12.204415    3.673425    0.751939
    129          1           0      -13.765145    3.363368    1.465994
    130          1           0      -12.688633    0.765721    0.639659
    131          1           0      -12.571811    1.823194   -0.707954
    132          1           0      -14.982935    2.475003   -0.663747
    133          1           0      -15.054541    1.420953    0.800900
    134          1           0      -14.232528   -0.521089   -0.790787
    135          1           0      -13.705718    1.481503   -2.833450
    136          1           0      -14.869204    0.084922   -3.376464
    137          1           0      -13.342846   -0.073979   -2.606702
    138          1           0      -16.626656    0.109849   -2.209007
    139          1           0      -16.864563    0.644158   -0.555455
    140          1           0      -16.244392   -0.941539   -0.731390
 ---------------------------------------------------------------------

 SCF Done:  E(RB-LYP) =  -3007.37495705     A.U. after   21 cycles

 Excitation energies and oscillator strengths:

 Excited State   1:      Singlet-A      1.8137 eV  683.60 nm  f=0.0236  <S**2>=0.000
     244 -> 247        0.62951
     245 -> 247        0.26493
     246 -> 247       -0.16563
 This state for optimization and/or second-order correction.
 Total Energy, E(TD-HF/TD-DFT) =  -3007.30830521
 Copying the excited state density for this state as the 1-particle RhoCI density.

 Excited State   2:      Singlet-A      1.8262 eV  678.92 nm  f=0.2785  <S**2>=0.000
     244 -> 247        0.20235
     245 -> 248        0.13602
     245 -> 249       -0.12860
     246 -> 247        0.65920
     246 <- 247       -0.13452

 Excited State   3:      Singlet-A      1.9607 eV  632.36 nm  f=0.1010  <S**2>=0.000
     243 -> 247        0.29897
     244 -> 247       -0.23428
     245 -> 247        0.55669
     246 -> 247        0.11644
     246 -> 248       -0.12646
     246 -> 249        0.10439

 Excited State   4:      Singlet-A      2.0324 eV  610.03 nm  f=0.0277  <S**2>=0.000
     243 -> 247        0.63816
     245 -> 247       -0.27020

 Excited State   5:      Singlet-A      2.2235 eV  557.60 nm  f=0.0000  <S**2>=0.000
     242 -> 247        0.70711

 The electronic state is 1-A.
 Alpha  occ. eigenvalues --  -46.26491 -18.81885 -18.81744 -18.77253 -18.76317
 Alpha  occ. eigenvalues --  -18.76211 -18.75144 -14.02929 -14.02671 -14.01276
 Alpha  occ. eigenvalues --  -14.00885 -10.04132 -10.04059 -10.00597  -9.99241
 Alpha  occ. eigenvalues --   -9.98369  -9.97449  -9.96879  -9.96394  -9.96014
 Alpha  occ. eigenvalues --   -9.95945  -9.95921  -9.95467  -9.95178  -9.94972
 Alpha  occ. eigenvalues --   -9.94646  -9.94505  -9.94392  -9.94280  -9.94217
 Alpha  occ. eigenvalues --   -9.94182  -9.93939  -9.93857  -9.93580  -9.93547
 Alpha  occ. eigenvalues --   -9.93345  -9.93129  -9.92970  -9.92720  -9.92483
 Alpha  occ. eigenvalues --   -9.92254  -9.92227  -9.92190  -9.92150  -9.92104
 Alpha  occ. eigenvalues --   -9.92096  -9.92074  -9.91874  -9.91809  -9.91709
 Alpha  occ. eigenvalues --   -9.91552  -9.91501  -9.91434  -9.91421  -9.91409
 Alpha  occ. eigenvalues --   -9.91336  -9.91231  -9.91189  -9.91147  -9.91081
 Alpha  occ. eigenvalues --   -9.91047  -9.91003  -9.90952  -9.90858  -9.90443
 Alpha  occ. eigenvalues --   -9.90222  -2.91375  -1.71781  -1.71249  -1.71116
 Alpha  occ. eigenvalues --   -0.96561  -0.95992  -0.92120  -0.89664  -0.89527
 Alpha  occ. eigenvalues --   -0.88443  -0.87303  -0.86312  -0.86225  -0.85048
 Alpha  occ. eigenvalues --   -0.74705  -0.73999  -0.72754  -0.72710  -0.72326
 Alpha  occ. eigenvalues --   -0.71905  -0.71646  -0.71125  -0.70856  -0.70515
 Alpha  occ. eigenvalues --   -0.70213  -0.69102  -0.67665  -0.67223  -0.66878
 Alpha  occ. eigenvalues --   -0.66219  -0.65824  -0.65080  -0.64836  -0.64288
 Alpha  occ. eigenvalues --   -0.64044  -0.63034  -0.62489  -0.61667  -0.60780
 Alpha  occ. eigenvalues --   -0.60478  -0.60302  -0.59763  -0.59595  -0.58775
 Alpha  occ. eigenvalues --   -0.58425  -0.58054  -0.56546  -0.55961  -0.55045
 Alpha  occ. eigenvalues --   -0.54340  -0.53504  -0.53238  -0.52280  -0.51816
 Alpha  occ. eigenvalues --   -0.51487  -0.51241  -0.50898  -0.50237  -0.50008
 Alpha  occ. eigenvalues --   -0.49147  -0.48552  -0.48429  -0.48226  -0.47033
 Alpha  occ. eigenvalues --   -0.46165  -0.45893  -0.45682  -0.45103  -0.44893
 Alpha  occ. eigenvalues --   -0.43404  -0.43171  -0.43098  -0.42505  -0.42117
 Alpha  occ. eigenvalues --   -0.42041  -0.41857  -0.41586  -0.41011  -0.40853
 Alpha  occ. eigenvalues --   -0.40458  -0.40306  -0.40287  -0.39816  -0.39799
 Alpha  occ. eigenvalues --   -0.39708  -0.39472  -0.39310  -0.39179  -0.38747
 Alpha  occ. eigenvalues --   -0.38722  -0.38602  -0.38453  -0.38234  -0.38072
 Alpha  occ. eigenvalues --   -0.37967  -0.37665  -0.37539  -0.37439  -0.37285
 Alpha  occ. eigenvalues --   -0.36974  -0.36950  -0.36741  -0.36588  -0.36466
 Alpha  occ. eigenvalues --   -0.36241  -0.35996  -0.35935  -0.35716  -0.35614
 Alpha  occ. eigenvalues --   -0.35562  -0.35425  -0.35302  -0.35134  -0.35056
 Alpha  occ. eigenvalues --   -0.34480  -0.34364  -0.34337  -0.34065  -0.34011
 Alpha  occ. eigenvalues --   -0.33794  -0.33710  -0.33368  -0.33229  -0.33098
 Alpha  occ. eigenvalues --   -0.32812  -0.32768  -0.32707  -0.32600  -0.32373
 Alpha  occ. eigenvalues --   -0.32339  -0.32184  -0.31871  -0.31715  -0.31655
 Alpha  occ. eigenvalues --   -0.31294  -0.31178  -0.31105  -0.30909  -0.30667
 Alpha  occ. eigenvalues --   -0.30542  -0.30311  -0.30145  -0.29870  -0.29820
 Alpha  occ. eigenvalues --   -0.29664  -0.29590  -0.29423  -0.29269  -0.29253
 Alpha  occ. eigenvalues --   -0.28998  -0.28748  -0.28367  -0.27771  -0.27736
 Alpha  occ. eigenvalues --   -0.27461  -0.27433  -0.27385  -0.26883  -0.26615
 Alpha  occ. eigenvalues --   -0.26191  -0.26146  -0.25532  -0.25504  -0.25185
 Alpha  occ. eigenvalues --   -0.24795  -0.24318  -0.24049  -0.23787  -0.23722
 Alpha  occ. eigenvalues --   -0.23576  -0.22459  -0.21789  -0.21356  -0.21246
 Alpha  occ. eigenvalues --   -0.20863  -0.19966  -0.19099  -0.18427  -0.16992
 Alpha  occ. eigenvalues --   -0.16231
 Alpha virt. eigenvalues --   -0.11795  -0.06474  -0.06160  -0.04853  -0.03428
 Alpha virt. eigenvalues --   -0.02805  -0.02119  -0.02022  -0.01192   0.00330
 Alpha virt. eigenvalues --    0.01460   0.01655   0.01933   0.02651   0.02917

 Mulliken charges:
               1
     1  Mg   0.730950
     2  C    0.067725
     3  C   -0.060679
     4  C   -0.057590
     5  C   -0.110544
     6  N   -0.188979
     7  C   -0.144284
     8  C    0.049601
     9  C   -0.037722
    10  C    0.004889
    11  C    0.114025
    12  C    0.140879
    13  C    0.158691
    14  C    0.074881
    15  O   -0.216818
    16  O   -0.298660
    17  N   -0.254729
    18  C    0.143693
    19  C   -0.122596
    20  C    0.008971
    21  C    0.108649
    22  C    0.172989
    23  C   -0.061148
    24  O   -0.156383
    25  C    0.113298
    26  N   -0.225025
    27  C    0.001792
    28  C    0.026350
    29  C    0.093422
    30  C    0.066041
    31  C    0.103261
    32  C    0.079741
    33  C    0.061951
    34  N   -0.324137
    35  C    0.111165
    36  C   -0.159408
    37  C    0.099726
    38  C    0.067527
    39  C    0.183211
    40  C   -0.023452
    41  O   -0.153799
    42  C    0.010125
    43  C    0.105192
    44  O   -0.160730
    45  O   -0.290393
    46  C    0.221822
    47  C    0.314925
    48  C   -0.102860
    49  C   -0.180124
    50  C    0.154216
    51  C    0.154127
    52  C    0.076480
    53  C    0.101330
    54  C   -0.133286
    55  C    0.114681
    56  C    0.135806
    57  C    0.038871
    58  C    0.113673
    59  C   -0.069450
    60  C    0.108822
    61  C    0.143524
    62  C    0.028487
    63  C    0.072683
    64  C   -0.123615
    65  C    0.125885
    66  C    0.107022
    67  H   -0.077814
    68  H   -0.051926
    69  H   -0.063965
    70  H   -0.001621
    71  H   -0.024862
    72  H   -0.009067
    73  H    0.008942
    74  H   -0.015431
    75  H   -0.018700
    76  H    0.003086
    77  H   -0.009610
    78  H    0.007590
    79  H    0.005180
    80  H   -0.020158
    81  H    0.000416
    82  H   -0.000389
    83  H    0.014865
    84  H    0.006021
    85  H   -0.013288
    86  H   -0.025596
    87  H    0.000083
    88  H   -0.005280
    89  H   -0.013277
    90  H   -0.023520
    91  H   -0.033542
    92  H   -0.003040
    93  H   -0.018578
    94  H   -0.008720
    95  H   -0.003780
    96  H    0.009805
    97  H   -0.010075
    98  H    0.013176
    99  H    0.009613
   100  H    0.007429
   101  H    0.016901
   102  H    0.032029
   103  H    0.003989
   104  H   -0.030598
   105  H    0.003924
   106  H    0.008187
   107  H   -0.023248
   108  H   -0.020963
   109  H   -0.054013
   110  H   -0.030410
   111  H   -0.040528
   112  H   -0.030043
   113  H   -0.030430
   114  H   -0.037260
   115  H   -0.028457
   116  H   -0.017611
   117  H    0.000627
   118  H   -0.030196
   119  H   -0.043267
   120  H   -0.024029
   121  H   -0.032379
   122  H   -0.032469
   123  H   -0.040420
   124  H   -0.036802
   125  H   -0.010907
   126  H   -0.033793
   127  H   -0.008996
   128  H   -0.044364
   129  H   -0.033086
   130  H   -0.025425
   131  H   -0.035009
   132  H   -0.017101
   133  H   -0.023571
   134  H   -0.035206
   135  H   -0.009634
   136  H   -0.006214
   137  H   -0.027530
   138  H   -0.017235
   139  H   -0.023263
   140  H   -0.019850
 Sum of Mulliken charges =  -0.00000

 Dipole moment (field-independent basis, Debye):
    X=             -2.2179    Y=              3.5868    Z=             -0.6708  Tot=              4.2701
 Quadrupole moment (field-independent basis, Debye-Ang):
   XX=           -380.1461   YY=           -418.1108   ZZ=           -412.8168
   XY=              7.6094   XZ=              9.6889   YZ=              5.3600

 Normal termination of Gaussian 16 at Thu May  5 09:34:12 2022.
