 Gaussian 16, Revision A.03,
 Gaussian 16:  ES64L-G16RevA.03 25-Dec-2016

 -----------------------------------
 #p cam-b3lyp/Def2SVP td=(nstates=5)
 -----------------------------------

 ------------------------------------------------------
 step_751_chromophore_4 TDDFT with cam-b3lyp functional
 ------------------------------------------------------
 Symbolic Z-matrix:
 Charge =  0 Multiplicity = 1

                         Standard orientation:
 ---------------------------------------------------------------------
 Center     Atomic      Atomic             Coordinates (Angstroms)
 Number     Number       Type             X           Y           Z
 ---------------------------------------------------------------------
      1         12           0        5.933375    0.494388    0.277754
      2          6           0        3.548580   -2.043716    0.146909
      3          6           0        3.387932    2.760364   -0.540264
      4          6           0        8.141631    2.971769   -0.031761
      5          6           0        8.453744   -1.772563    0.338655
      6          7           0        3.667099    0.320650   -0.282382
      7          6           0        2.935460   -0.846036   -0.175754
      8          6           0        1.435489   -0.563572   -0.436731
      9          6           0        1.464362    0.999769   -0.731629
     10          6           0        2.897328    1.420248   -0.489028
     11          6           0        1.126469    1.281043   -2.220296
     12          6           0        0.462046   -0.949194    0.773048
     13          6           0       -1.035763   -0.689934    0.432227
     14          6           0       -2.058028   -1.788082    0.633607
     15          8           0       -2.140909   -2.392261    1.716773
     16          8           0       -2.786517   -2.188932   -0.498990
     17          7           0        5.727416    2.562301   -0.084418
     18          6           0        4.640538    3.354466   -0.279183
     19          6           0        4.953980    4.744143   -0.375218
     20          6           0        6.396794    4.796420   -0.350135
     21          6           0        6.793043    3.411527   -0.087466
     22          6           0        3.950293    5.871869   -0.592304
     23          6           0        7.359366    5.976086   -0.350615
     24          8           0        8.578467    5.893149   -0.274699
     25          6           0        6.802627    7.407204   -0.408716
     26          7           0        8.012673    0.613801    0.192991
     27          6           0        8.701402    1.712619    0.148384
     28          6           0       10.209805    1.433228    0.167449
     29          6           0       10.298385   -0.102073    0.174638
     30          6           0        8.835885   -0.505003    0.177191
     31          6           0       10.926757    1.922181   -1.098154
     32          6           0       11.138722   -0.806171    1.290814
     33          6           0       12.663002   -0.882803    1.003276
     34          7           0        6.028165   -1.433721    0.403472
     35          6           0        7.127226   -2.299376    0.522845
     36          6           0        6.725430   -3.637813    0.725591
     37          6           0        5.337512   -3.586521    0.606631
     38          6           0        4.975345   -2.259037    0.433709
     39          6           0        7.604219   -4.843395    0.792512
     40          6           0        4.175876   -4.398161    0.647006
     41          8           0        4.088684   -5.636782    0.757849
     42          6           0        2.938380   -3.444591    0.365725
     43          6           0        2.085778   -3.849794   -0.881014
     44          8           0        2.402051   -3.698804   -2.037223
     45          8           0        0.962910   -4.584873   -0.445197
     46          6           0        0.120437   -5.195803   -1.508395
     47          6           0       -3.759958   -3.306122   -0.310593
     48          6           0       -5.110542   -2.590985   -0.187071
     49          6           0       -6.284027   -3.171496    0.118455
     50          6           0       -6.547770   -4.653075    0.383746
     51          6           0       -7.452494   -2.332188    0.368483
     52          6           0       -8.097412   -1.554574   -0.781475
     53          6           0       -7.932715    0.015261   -0.790776
     54          6           0       -9.330311    0.695685   -0.729591
     55          6           0       -9.872378    0.906748   -2.170568
     56          6           0       -9.296139    1.965551    0.068702
     57          6           0       -9.518885    1.759138    1.627803
     58          6           0      -10.357907    2.942996    2.252036
     59          6           0      -11.871002    2.555980    2.469615
     60          6           0      -12.502204    2.921558    3.849840
     61          6           0      -12.805737    2.901307    1.232708
     62          6           0      -13.060821    1.717409    0.260733
     63          6           0      -14.576704    1.595342   -0.164230
     64          6           0      -14.714035    0.379147   -1.172388
     65          6           0      -14.234977    0.552530   -2.623095
     66          6           0      -16.222243    0.043258   -1.198508
     67          1           0        2.565241    3.437195   -0.782242
     68          1           0        8.893765    3.739998   -0.222508
     69          1           0        9.229315   -2.541014    0.320060
     70          1           0        1.345495   -1.139550   -1.356811
     71          1           0        0.737471    1.604685   -0.190451
     72          1           0        0.737480    0.389071   -2.709150
     73          1           0        2.025451    1.634934   -2.725341
     74          1           0        0.260568    1.941578   -2.271905
     75          1           0        0.771106   -0.321599    1.608324
     76          1           0        0.746115   -1.981777    0.978590
     77          1           0       -1.066664   -0.355543   -0.603898
     78          1           0       -1.395433    0.066533    1.130208
     79          1           0        3.929991    6.106736   -1.656494
     80          1           0        4.287643    6.798619   -0.128982
     81          1           0        2.923916    5.697855   -0.268740
     82          1           0        7.621674    8.118966   -0.300516
     83          1           0        6.081295    7.502641    0.402484
     84          1           0        6.235717    7.560767   -1.326475
     85          1           0       10.578644    2.001922    1.020923
     86          1           0       10.790253   -0.381692   -0.757982
     87          1           0       10.345212    2.001983   -2.017381
     88          1           0       11.913503    1.492045   -1.268675
     89          1           0       11.163648    2.966412   -0.891236
     90          1           0       10.765043   -1.790118    1.574726
     91          1           0       10.982686   -0.267250    2.225934
     92          1           0       13.239134   -0.155933    1.574623
     93          1           0       12.809356   -0.654188   -0.053370
     94          1           0       13.144832   -1.852592    1.131098
     95          1           0        8.369222   -4.700098    0.030171
     96          1           0        7.150685   -5.824184    0.648323
     97          1           0        8.135367   -4.844855    1.744443
     98          1           0        2.180723   -3.501505    1.147685
     99          1           0        0.687908   -6.022730   -1.933827
    100          1           0       -0.104124   -4.586951   -2.384508
    101          1           0       -0.840805   -5.584736   -1.173002
    102          1           0       -3.497268   -3.921384    0.549703
    103          1           0       -3.673447   -3.828458   -1.263300
    104          1           0       -5.165867   -1.505552   -0.096917
    105          1           0       -7.357993   -5.030603   -0.239239
    106          1           0       -6.813539   -4.784134    1.432842
    107          1           0       -5.579603   -5.130682    0.229848
    108          1           0       -7.194611   -1.535651    1.066608
    109          1           0       -8.222468   -2.985527    0.779845
    110          1           0       -9.136673   -1.879744   -0.817749
    111          1           0       -7.686737   -1.977697   -1.698976
    112          1           0       -7.397216    0.347370   -1.680569
    113          1           0       -7.432487    0.445594    0.076769
    114          1           0       -9.958606   -0.033911   -0.218599
    115          1           0       -9.394940    0.161879   -2.807222
    116          1           0       -9.518533    1.862247   -2.556202
    117          1           0      -10.953526    0.766466   -2.179859
    118          1           0       -9.910144    2.697564   -0.455005
    119          1           0       -8.270933    2.327799   -0.014429
    120          1           0       -8.633036    1.619483    2.247352
    121          1           0      -10.095868    0.843089    1.754419
    122          1           0      -10.250387    3.754809    1.532828
    123          1           0       -9.749447    3.281427    3.091494
    124          1           0      -11.951760    1.469661    2.483031
    125          1           0      -12.401326    2.118674    4.580213
    126          1           0      -13.577143    2.982078    3.679613
    127          1           0      -12.180695    3.911631    4.172805
    128          1           0      -12.204415    3.673425    0.751939
    129          1           0      -13.765145    3.363368    1.465994
    130          1           0      -12.688633    0.765721    0.639659
    131          1           0      -12.571811    1.823194   -0.707954
    132          1           0      -14.982935    2.475003   -0.663747
    133          1           0      -15.054541    1.420953    0.800900
    134          1           0      -14.232528   -0.521089   -0.790787
    135          1           0      -13.705718    1.481503   -2.833450
    136          1           0      -14.869204    0.084922   -3.376464
    137          1           0      -13.342846   -0.073979   -2.606702
    138          1           0      -16.626656    0.109849   -2.209007
    139          1           0      -16.864563    0.644158   -0.555455
    140          1           0      -16.244392   -0.941539   -0.731390
 ---------------------------------------------------------------------

 SCF Done:  E(RCAM-B3LYP) =  -3007.16613271     A.U. after   17 cycles

 Excitation energies and oscillator strengths:

 Excited State   1:      Singlet-A      1.8243 eV  679.64 nm  f=0.3791  <S**2>=0.000
     245 -> 248        0.17011
     246 -> 247        0.68660
 This state for optimization and/or second-order correction.
 Total Energy, E(TD-HF/TD-DFT) =  -3007.09909246
 Copying the excited state density for this state as the 1-particle RhoCI density.

 Excited State   2:      Singlet-A      2.1723 eV  570.75 nm  f=0.1991  <S**2>=0.000
     245 -> 247        0.66910
     246 -> 248       -0.21268

 Excited State   3:      Singlet-A      3.4515 eV  359.22 nm  f=0.0031  <S**2>=0.000
     239 -> 247        0.13014
     239 -> 249       -0.13418
     240 -> 247        0.30622
     241 -> 247        0.43612
     243 -> 247       -0.34849
     246 -> 248        0.13291

 Excited State   4:      Singlet-A      3.5434 eV  349.90 nm  f=0.0002  <S**2>=0.000
     239 -> 247        0.36342
     239 -> 249       -0.18925
     242 -> 247        0.31919
     242 -> 249        0.18563
     242 -> 250        0.18883
     243 -> 247        0.30369

 Excited State   5:      Singlet-A      3.5677 eV  347.52 nm  f=0.0042  <S**2>=0.000
     239 -> 247        0.40607
     239 -> 249       -0.17743
     241 -> 247       -0.21432
     242 -> 247       -0.36335
     242 -> 249       -0.17716
     242 -> 250       -0.18071
     246 -> 248       -0.10267

 The electronic state is 1-A.
 Alpha  occ. eigenvalues --  -46.87958 -19.24622 -19.24581 -19.20247 -19.19997
 Alpha  occ. eigenvalues --  -19.19308 -19.17670 -14.41917 -14.41397 -14.40000
 Alpha  occ. eigenvalues --  -14.38930 -10.39542 -10.39453 -10.36379 -10.34102
 Alpha  occ. eigenvalues --  -10.32442 -10.31881 -10.31314 -10.31089 -10.30999
 Alpha  occ. eigenvalues --  -10.30745 -10.30558 -10.30521 -10.29281 -10.28740
 Alpha  occ. eigenvalues --  -10.28580 -10.28559 -10.28491 -10.28388 -10.28378
 Alpha  occ. eigenvalues --  -10.28362 -10.28353 -10.28192 -10.28106 -10.27588
 Alpha  occ. eigenvalues --  -10.27522 -10.27049 -10.26787 -10.26481 -10.26275
 Alpha  occ. eigenvalues --  -10.26179 -10.26133 -10.26109 -10.25994 -10.25847
 Alpha  occ. eigenvalues --  -10.25832 -10.25542 -10.25508 -10.25443 -10.25392
 Alpha  occ. eigenvalues --  -10.25362 -10.25301 -10.25226 -10.25185 -10.25146
 Alpha  occ. eigenvalues --  -10.25128 -10.24954 -10.24920 -10.24870 -10.24707
 Alpha  occ. eigenvalues --  -10.24692 -10.24638 -10.24586 -10.24469 -10.23797
 Alpha  occ. eigenvalues --  -10.23716  -3.16756  -1.91633  -1.91195  -1.91101
 Alpha  occ. eigenvalues --   -1.14949  -1.14374  -1.11073  -1.07379  -1.07283
 Alpha  occ. eigenvalues --   -1.06248  -1.05099  -1.04242  -1.03546  -1.02628
 Alpha  occ. eigenvalues --   -0.91507  -0.90908  -0.89518  -0.89407  -0.89107
 Alpha  occ. eigenvalues --   -0.88614  -0.88503  -0.87893  -0.87693  -0.87087
 Alpha  occ. eigenvalues --   -0.86461  -0.85548  -0.83887  -0.83293  -0.82975
 Alpha  occ. eigenvalues --   -0.82279  -0.82090  -0.81288  -0.80639  -0.80049
 Alpha  occ. eigenvalues --   -0.79812  -0.79210  -0.77991  -0.77025  -0.76089
 Alpha  occ. eigenvalues --   -0.75853  -0.75637  -0.74995  -0.74903  -0.74011
 Alpha  occ. eigenvalues --   -0.73470  -0.73005  -0.71496  -0.70827  -0.69653
 Alpha  occ. eigenvalues --   -0.69044  -0.68060  -0.67758  -0.66644  -0.65887
 Alpha  occ. eigenvalues --   -0.65745  -0.65511  -0.64897  -0.64109  -0.64090
 Alpha  occ. eigenvalues --   -0.63117  -0.62441  -0.62087  -0.61711  -0.61094
 Alpha  occ. eigenvalues --   -0.59644  -0.59441  -0.59131  -0.58391  -0.58115
 Alpha  occ. eigenvalues --   -0.56847  -0.56550  -0.56430  -0.55638  -0.55370
 Alpha  occ. eigenvalues --   -0.55136  -0.54671  -0.54357  -0.53993  -0.53674
 Alpha  occ. eigenvalues --   -0.53502  -0.53169  -0.52974  -0.52879  -0.52766
 Alpha  occ. eigenvalues --   -0.52341  -0.52306  -0.51798  -0.51714  -0.51377
 Alpha  occ. eigenvalues --   -0.51064  -0.50957  -0.50872  -0.50698  -0.50576
 Alpha  occ. eigenvalues --   -0.50460  -0.50209  -0.50032  -0.49879  -0.49833
 Alpha  occ. eigenvalues --   -0.49625  -0.49333  -0.49129  -0.48949  -0.48631
 Alpha  occ. eigenvalues --   -0.48473  -0.48290  -0.48042  -0.47914  -0.47776
 Alpha  occ. eigenvalues --   -0.47564  -0.47519  -0.47287  -0.47149  -0.46973
 Alpha  occ. eigenvalues --   -0.46263  -0.46105  -0.45983  -0.45933  -0.45769
 Alpha  occ. eigenvalues --   -0.45664  -0.45490  -0.45236  -0.45016  -0.44868
 Alpha  occ. eigenvalues --   -0.44761  -0.44398  -0.44349  -0.44200  -0.44093
 Alpha  occ. eigenvalues --   -0.43900  -0.43831  -0.43568  -0.43148  -0.43094
 Alpha  occ. eigenvalues --   -0.42959  -0.42676  -0.42555  -0.42485  -0.42193
 Alpha  occ. eigenvalues --   -0.41909  -0.41808  -0.41572  -0.41367  -0.41286
 Alpha  occ. eigenvalues --   -0.40986  -0.40879  -0.40741  -0.40332  -0.40218
 Alpha  occ. eigenvalues --   -0.40024  -0.39726  -0.39339  -0.38960  -0.38716
 Alpha  occ. eigenvalues --   -0.38591  -0.38374  -0.38269  -0.37688  -0.37402
 Alpha  occ. eigenvalues --   -0.36944  -0.36657  -0.36575  -0.36216  -0.36166
 Alpha  occ. eigenvalues --   -0.35835  -0.35549  -0.34793  -0.34514  -0.34160
 Alpha  occ. eigenvalues --   -0.33984  -0.33562  -0.33036  -0.31839  -0.31674
 Alpha  occ. eigenvalues --   -0.30665  -0.30055  -0.29657  -0.29561  -0.23722
 Alpha  occ. eigenvalues --   -0.21838
 Alpha virt. eigenvalues --   -0.08964  -0.00985   0.00191   0.02162   0.02864
 Alpha virt. eigenvalues --    0.04336   0.05129   0.05265   0.06125   0.06380
 Alpha virt. eigenvalues --    0.08117   0.08301   0.08553   0.09197   0.09302

 Mulliken charges:
               1
     1  Mg   0.865233
     2  C    0.040250
     3  C   -0.078474
     4  C   -0.086599
     5  C   -0.112601
     6  N   -0.254240
     7  C   -0.100126
     8  C    0.000185
     9  C   -0.094736
    10  C    0.030732
    11  C    0.055510
    12  C    0.094082
    13  C    0.084218
    14  C    0.161897
    15  O   -0.257169
    16  O   -0.364757
    17  N   -0.344191
    18  C    0.156956
    19  C   -0.126490
    20  C   -0.049688
    21  C    0.136621
    22  C    0.116719
    23  C    0.015374
    24  O   -0.194344
    25  C    0.035266
    26  N   -0.302651
    27  C    0.038251
    28  C   -0.032549
    29  C    0.035312
    30  C    0.079565
    31  C    0.042764
    32  C    0.024207
    33  C    0.001653
    34  N   -0.416803
    35  C    0.106726
    36  C   -0.156515
    37  C    0.016702
    38  C    0.100998
    39  C    0.126565
    40  C    0.070154
    41  O   -0.198233
    42  C   -0.059036
    43  C    0.193590
    44  O   -0.196297
    45  O   -0.355865
    46  C    0.183462
    47  C    0.280294
    48  C   -0.121564
    49  C   -0.199454
    50  C    0.094501
    51  C    0.088896
    52  C    0.020782
    53  C    0.047439
    54  C   -0.181369
    55  C    0.063080
    56  C    0.074042
    57  C   -0.007077
    58  C    0.057303
    59  C   -0.128782
    60  C    0.055449
    61  C    0.088948
    62  C   -0.016227
    63  C    0.020076
    64  C   -0.179029
    65  C    0.059592
    66  C    0.046799
    67  H   -0.041855
    68  H   -0.009965
    69  H   -0.028179
    70  H    0.031923
    71  H    0.009831
    72  H    0.017770
    73  H    0.035576
    74  H    0.009531
    75  H    0.012310
    76  H    0.028494
    77  H    0.022580
    78  H    0.038345
    79  H    0.036085
    80  H    0.008708
    81  H    0.030607
    82  H    0.036568
    83  H    0.039680
    84  H    0.033602
    85  H    0.021261
    86  H    0.009390
    87  H    0.027138
    88  H    0.020454
    89  H    0.011099
    90  H    0.007291
    91  H   -0.005125
    92  H    0.019262
    93  H    0.001372
    94  H    0.016194
    95  H    0.017356
    96  H    0.037629
    97  H    0.013749
    98  H    0.055088
    99  H    0.033250
   100  H    0.030044
   101  H    0.037603
   102  H    0.062946
   103  H    0.031845
   104  H    0.000267
   105  H    0.027805
   106  H    0.032901
   107  H    0.000072
   108  H    0.008832
   109  H   -0.020432
   110  H   -0.001880
   111  H   -0.009110
   112  H   -0.000462
   113  H   -0.004604
   114  H   -0.008116
   115  H   -0.003541
   116  H    0.006543
   117  H    0.017101
   118  H   -0.002391
   119  H   -0.013356
   120  H    0.003723
   121  H   -0.007068
   122  H   -0.004756
   123  H   -0.008970
   124  H   -0.005151
   125  H    0.013016
   126  H   -0.009537
   127  H    0.013463
   128  H   -0.015361
   129  H   -0.003181
   130  H   -0.001150
   131  H   -0.013735
   132  H    0.010367
   133  H    0.004006
   134  H   -0.003093
   135  H    0.014589
   136  H    0.020621
   137  H   -0.004917
   138  H    0.006593
   139  H    0.002078
   140  H    0.004050
 Sum of Mulliken charges =  -0.00000

 Dipole moment (field-independent basis, Debye):
    X=             -2.4468    Y=              5.6294    Z=             -0.9069  Tot=              6.2048
 Quadrupole moment (field-independent basis, Debye-Ang):
   XX=           -380.8017   YY=           -411.9520   ZZ=           -413.4890
   XY=             18.7643   XZ=              8.6430   YZ=              5.3619

 Normal termination of Gaussian 16 at Thu May  5 08:16:13 2022.
