 Gaussian 16, Revision A.03,
 Gaussian 16:  ES64L-G16RevA.03 25-Dec-2016

 ---------------------------------
 #p PBE1PBE/Def2SVP td=(nstates=5)
 ---------------------------------

 ----------------------------------------------------
 step_751_chromophore_4 TDDFT with PBE1PBE functional
 ----------------------------------------------------
 Symbolic Z-matrix:
 Charge =  0 Multiplicity = 1

                         Standard orientation:
 ---------------------------------------------------------------------
 Center     Atomic      Atomic             Coordinates (Angstroms)
 Number     Number       Type             X           Y           Z
 ---------------------------------------------------------------------
      1         12           0        5.933375    0.494388    0.277754
      2          6           0        3.548580   -2.043716    0.146909
      3          6           0        3.387932    2.760364   -0.540264
      4          6           0        8.141631    2.971769   -0.031761
      5          6           0        8.453744   -1.772563    0.338655
      6          7           0        3.667099    0.320650   -0.282382
      7          6           0        2.935460   -0.846036   -0.175754
      8          6           0        1.435489   -0.563572   -0.436731
      9          6           0        1.464362    0.999769   -0.731629
     10          6           0        2.897328    1.420248   -0.489028
     11          6           0        1.126469    1.281043   -2.220296
     12          6           0        0.462046   -0.949194    0.773048
     13          6           0       -1.035763   -0.689934    0.432227
     14          6           0       -2.058028   -1.788082    0.633607
     15          8           0       -2.140909   -2.392261    1.716773
     16          8           0       -2.786517   -2.188932   -0.498990
     17          7           0        5.727416    2.562301   -0.084418
     18          6           0        4.640538    3.354466   -0.279183
     19          6           0        4.953980    4.744143   -0.375218
     20          6           0        6.396794    4.796420   -0.350135
     21          6           0        6.793043    3.411527   -0.087466
     22          6           0        3.950293    5.871869   -0.592304
     23          6           0        7.359366    5.976086   -0.350615
     24          8           0        8.578467    5.893149   -0.274699
     25          6           0        6.802627    7.407204   -0.408716
     26          7           0        8.012673    0.613801    0.192991
     27          6           0        8.701402    1.712619    0.148384
     28          6           0       10.209805    1.433228    0.167449
     29          6           0       10.298385   -0.102073    0.174638
     30          6           0        8.835885   -0.505003    0.177191
     31          6           0       10.926757    1.922181   -1.098154
     32          6           0       11.138722   -0.806171    1.290814
     33          6           0       12.663002   -0.882803    1.003276
     34          7           0        6.028165   -1.433721    0.403472
     35          6           0        7.127226   -2.299376    0.522845
     36          6           0        6.725430   -3.637813    0.725591
     37          6           0        5.337512   -3.586521    0.606631
     38          6           0        4.975345   -2.259037    0.433709
     39          6           0        7.604219   -4.843395    0.792512
     40          6           0        4.175876   -4.398161    0.647006
     41          8           0        4.088684   -5.636782    0.757849
     42          6           0        2.938380   -3.444591    0.365725
     43          6           0        2.085778   -3.849794   -0.881014
     44          8           0        2.402051   -3.698804   -2.037223
     45          8           0        0.962910   -4.584873   -0.445197
     46          6           0        0.120437   -5.195803   -1.508395
     47          6           0       -3.759958   -3.306122   -0.310593
     48          6           0       -5.110542   -2.590985   -0.187071
     49          6           0       -6.284027   -3.171496    0.118455
     50          6           0       -6.547770   -4.653075    0.383746
     51          6           0       -7.452494   -2.332188    0.368483
     52          6           0       -8.097412   -1.554574   -0.781475
     53          6           0       -7.932715    0.015261   -0.790776
     54          6           0       -9.330311    0.695685   -0.729591
     55          6           0       -9.872378    0.906748   -2.170568
     56          6           0       -9.296139    1.965551    0.068702
     57          6           0       -9.518885    1.759138    1.627803
     58          6           0      -10.357907    2.942996    2.252036
     59          6           0      -11.871002    2.555980    2.469615
     60          6           0      -12.502204    2.921558    3.849840
     61          6           0      -12.805737    2.901307    1.232708
     62          6           0      -13.060821    1.717409    0.260733
     63          6           0      -14.576704    1.595342   -0.164230
     64          6           0      -14.714035    0.379147   -1.172388
     65          6           0      -14.234977    0.552530   -2.623095
     66          6           0      -16.222243    0.043258   -1.198508
     67          1           0        2.565241    3.437195   -0.782242
     68          1           0        8.893765    3.739998   -0.222508
     69          1           0        9.229315   -2.541014    0.320060
     70          1           0        1.345495   -1.139550   -1.356811
     71          1           0        0.737471    1.604685   -0.190451
     72          1           0        0.737480    0.389071   -2.709150
     73          1           0        2.025451    1.634934   -2.725341
     74          1           0        0.260568    1.941578   -2.271905
     75          1           0        0.771106   -0.321599    1.608324
     76          1           0        0.746115   -1.981777    0.978590
     77          1           0       -1.066664   -0.355543   -0.603898
     78          1           0       -1.395433    0.066533    1.130208
     79          1           0        3.929991    6.106736   -1.656494
     80          1           0        4.287643    6.798619   -0.128982
     81          1           0        2.923916    5.697855   -0.268740
     82          1           0        7.621674    8.118966   -0.300516
     83          1           0        6.081295    7.502641    0.402484
     84          1           0        6.235717    7.560767   -1.326475
     85          1           0       10.578644    2.001922    1.020923
     86          1           0       10.790253   -0.381692   -0.757982
     87          1           0       10.345212    2.001983   -2.017381
     88          1           0       11.913503    1.492045   -1.268675
     89          1           0       11.163648    2.966412   -0.891236
     90          1           0       10.765043   -1.790118    1.574726
     91          1           0       10.982686   -0.267250    2.225934
     92          1           0       13.239134   -0.155933    1.574623
     93          1           0       12.809356   -0.654188   -0.053370
     94          1           0       13.144832   -1.852592    1.131098
     95          1           0        8.369222   -4.700098    0.030171
     96          1           0        7.150685   -5.824184    0.648323
     97          1           0        8.135367   -4.844855    1.744443
     98          1           0        2.180723   -3.501505    1.147685
     99          1           0        0.687908   -6.022730   -1.933827
    100          1           0       -0.104124   -4.586951   -2.384508
    101          1           0       -0.840805   -5.584736   -1.173002
    102          1           0       -3.497268   -3.921384    0.549703
    103          1           0       -3.673447   -3.828458   -1.263300
    104          1           0       -5.165867   -1.505552   -0.096917
    105          1           0       -7.357993   -5.030603   -0.239239
    106          1           0       -6.813539   -4.784134    1.432842
    107          1           0       -5.579603   -5.130682    0.229848
    108          1           0       -7.194611   -1.535651    1.066608
    109          1           0       -8.222468   -2.985527    0.779845
    110          1           0       -9.136673   -1.879744   -0.817749
    111          1           0       -7.686737   -1.977697   -1.698976
    112          1           0       -7.397216    0.347370   -1.680569
    113          1           0       -7.432487    0.445594    0.076769
    114          1           0       -9.958606   -0.033911   -0.218599
    115          1           0       -9.394940    0.161879   -2.807222
    116          1           0       -9.518533    1.862247   -2.556202
    117          1           0      -10.953526    0.766466   -2.179859
    118          1           0       -9.910144    2.697564   -0.455005
    119          1           0       -8.270933    2.327799   -0.014429
    120          1           0       -8.633036    1.619483    2.247352
    121          1           0      -10.095868    0.843089    1.754419
    122          1           0      -10.250387    3.754809    1.532828
    123          1           0       -9.749447    3.281427    3.091494
    124          1           0      -11.951760    1.469661    2.483031
    125          1           0      -12.401326    2.118674    4.580213
    126          1           0      -13.577143    2.982078    3.679613
    127          1           0      -12.180695    3.911631    4.172805
    128          1           0      -12.204415    3.673425    0.751939
    129          1           0      -13.765145    3.363368    1.465994
    130          1           0      -12.688633    0.765721    0.639659
    131          1           0      -12.571811    1.823194   -0.707954
    132          1           0      -14.982935    2.475003   -0.663747
    133          1           0      -15.054541    1.420953    0.800900
    134          1           0      -14.232528   -0.521089   -0.790787
    135          1           0      -13.705718    1.481503   -2.833450
    136          1           0      -14.869204    0.084922   -3.376464
    137          1           0      -13.342846   -0.073979   -2.606702
    138          1           0      -16.626656    0.109849   -2.209007
    139          1           0      -16.864563    0.644158   -0.555455
    140          1           0      -16.244392   -0.941539   -0.731390
 ---------------------------------------------------------------------

 SCF Done:  E(RPBE1PBE) =  -3005.35261351     A.U. after   16 cycles

 Excitation energies and oscillator strengths:

 Excited State   1:      Singlet-A      1.8984 eV  653.11 nm  f=0.3644  <S**2>=0.000
     245 -> 248        0.16831
     246 -> 247        0.69105
 This state for optimization and/or second-order correction.
 Total Energy, E(TD-HF/TD-DFT) =  -3005.28284938
 Copying the excited state density for this state as the 1-particle RhoCI density.

 Excited State   2:      Singlet-A      2.1659 eV  572.44 nm  f=0.1801  <S**2>=0.000
     245 -> 247        0.67547
     246 -> 248       -0.19563

 Excited State   3:      Singlet-A      2.9333 eV  422.68 nm  f=0.0002  <S**2>=0.000
     243 -> 247        0.67682
     243 -> 249       -0.15027
     243 -> 250        0.10451

 Excited State   4:      Singlet-A      3.0419 eV  407.59 nm  f=0.0005  <S**2>=0.000
     240 -> 247        0.32263
     240 -> 249        0.10077
     241 -> 247        0.54033
     241 -> 249        0.10623
     242 -> 247       -0.25120

 Excited State   5:      Singlet-A      3.1564 eV  392.80 nm  f=0.0027  <S**2>=0.000
     240 -> 247        0.25775
     241 -> 247        0.12423
     242 -> 247        0.63544

 The electronic state is 1-A.
 Alpha  occ. eigenvalues --  -46.91406 -19.25416 -19.25338 -19.20559 -19.19883
 Alpha  occ. eigenvalues --  -19.19626 -19.18342 -14.41372 -14.40954 -14.39479
 Alpha  occ. eigenvalues --  -14.38869 -10.36618 -10.36612 -10.33189 -10.31588
 Alpha  occ. eigenvalues --  -10.29891 -10.29259 -10.28630 -10.28533 -10.28347
 Alpha  occ. eigenvalues --  -10.28159 -10.28134 -10.27626 -10.27325 -10.26880
 Alpha  occ. eigenvalues --  -10.26496 -10.26474 -10.26331 -10.26062 -10.26054
 Alpha  occ. eigenvalues --  -10.25983 -10.25892 -10.25853 -10.25441 -10.25258
 Alpha  occ. eigenvalues --  -10.25051 -10.24989 -10.24721 -10.24032 -10.23807
 Alpha  occ. eigenvalues --  -10.23806 -10.23727 -10.23702 -10.23529 -10.23522
 Alpha  occ. eigenvalues --  -10.23496 -10.23103 -10.23014 -10.23010 -10.22989
 Alpha  occ. eigenvalues --  -10.22933 -10.22906 -10.22877 -10.22766 -10.22735
 Alpha  occ. eigenvalues --  -10.22726 -10.22652 -10.22451 -10.22438 -10.22261
 Alpha  occ. eigenvalues --  -10.22246 -10.22057 -10.21991 -10.21929 -10.21855
 Alpha  occ. eigenvalues --  -10.21210  -3.13777  -1.86595  -1.86135  -1.86047
 Alpha  occ. eigenvalues --   -1.09803  -1.09196  -1.05480  -1.02406  -1.02319
 Alpha  occ. eigenvalues --   -1.01138  -0.99679  -0.98700  -0.98474  -0.97291
 Alpha  occ. eigenvalues --   -0.86064  -0.85052  -0.83752  -0.83621  -0.83299
 Alpha  occ. eigenvalues --   -0.82711  -0.82659  -0.82065  -0.81965  -0.81187
 Alpha  occ. eigenvalues --   -0.81054  -0.79780  -0.78099  -0.77574  -0.77304
 Alpha  occ. eigenvalues --   -0.76462  -0.76183  -0.75430  -0.74867  -0.74361
 Alpha  occ. eigenvalues --   -0.73988  -0.73228  -0.72361  -0.71431  -0.70471
 Alpha  occ. eigenvalues --   -0.69958  -0.69822  -0.69356  -0.69051  -0.68172
 Alpha  occ. eigenvalues --   -0.67907  -0.67435  -0.65852  -0.65153  -0.64024
 Alpha  occ. eigenvalues --   -0.63463  -0.62338  -0.62243  -0.60899  -0.60322
 Alpha  occ. eigenvalues --   -0.60136  -0.59701  -0.59509  -0.58736  -0.58183
 Alpha  occ. eigenvalues --   -0.57292  -0.56683  -0.56615  -0.56430  -0.55408
 Alpha  occ. eigenvalues --   -0.54249  -0.53978  -0.53531  -0.53011  -0.52951
 Alpha  occ. eigenvalues --   -0.51286  -0.51075  -0.50923  -0.50225  -0.49908
 Alpha  occ. eigenvalues --   -0.49711  -0.49066  -0.48824  -0.48539  -0.48230
 Alpha  occ. eigenvalues --   -0.48027  -0.47644  -0.47533  -0.47328  -0.47088
 Alpha  occ. eigenvalues --   -0.46762  -0.46730  -0.46413  -0.46255  -0.46019
 Alpha  occ. eigenvalues --   -0.45655  -0.45572  -0.45486  -0.45338  -0.45120
 Alpha  occ. eigenvalues --   -0.45036  -0.44642  -0.44438  -0.44370  -0.44232
 Alpha  occ. eigenvalues --   -0.44101  -0.43916  -0.43798  -0.43610  -0.43280
 Alpha  occ. eigenvalues --   -0.43152  -0.42985  -0.42702  -0.42534  -0.42345
 Alpha  occ. eigenvalues --   -0.42238  -0.42172  -0.41921  -0.41866  -0.41557
 Alpha  occ. eigenvalues --   -0.40954  -0.40857  -0.40706  -0.40646  -0.40574
 Alpha  occ. eigenvalues --   -0.40358  -0.40337  -0.40045  -0.39725  -0.39608
 Alpha  occ. eigenvalues --   -0.39443  -0.39134  -0.39010  -0.38902  -0.38818
 Alpha  occ. eigenvalues --   -0.38725  -0.38694  -0.38403  -0.38088  -0.37836
 Alpha  occ. eigenvalues --   -0.37507  -0.37396  -0.37354  -0.37339  -0.37120
 Alpha  occ. eigenvalues --   -0.36865  -0.36487  -0.36478  -0.36298  -0.36193
 Alpha  occ. eigenvalues --   -0.35888  -0.35707  -0.35550  -0.35179  -0.35138
 Alpha  occ. eigenvalues --   -0.34852  -0.34707  -0.34139  -0.33993  -0.33582
 Alpha  occ. eigenvalues --   -0.33500  -0.33323  -0.33083  -0.32439  -0.32198
 Alpha  occ. eigenvalues --   -0.31755  -0.31727  -0.31656  -0.31229  -0.31107
 Alpha  occ. eigenvalues --   -0.30718  -0.30504  -0.29978  -0.29464  -0.29215
 Alpha  occ. eigenvalues --   -0.28945  -0.28617  -0.28370  -0.27089  -0.26485
 Alpha  occ. eigenvalues --   -0.26072  -0.25736  -0.25197  -0.24849  -0.20643
 Alpha  occ. eigenvalues --   -0.19304
 Alpha virt. eigenvalues --   -0.11447  -0.04639  -0.03981  -0.02305  -0.00291
 Alpha virt. eigenvalues --    0.00178   0.00352   0.00861   0.01680   0.03063
 Alpha virt. eigenvalues --    0.04192   0.04781   0.04826   0.05526   0.05908

 Mulliken charges:
               1
     1  Mg   1.018894
     2  C    0.021656
     3  C   -0.067371
     4  C   -0.075399
     5  C   -0.106358
     6  N   -0.353890
     7  C   -0.020816
     8  C   -0.067648
     9  C   -0.174951
    10  C    0.069156
    11  C    0.003344
    12  C    0.036312
    13  C    0.002016
    14  C    0.231721
    15  O   -0.287577
    16  O   -0.394868
    17  N   -0.457701
    18  C    0.168512
    19  C   -0.153971
    20  C   -0.089739
    21  C    0.161303
    22  C    0.059249
    23  C    0.060008
    24  O   -0.234742
    25  C   -0.039303
    26  N   -0.415317
    27  C    0.083787
    28  C   -0.114584
    29  C   -0.042771
    30  C    0.119448
    31  C   -0.016596
    32  C   -0.035274
    33  C   -0.068976
    34  N   -0.549512
    35  C    0.128892
    36  C   -0.169354
    37  C   -0.036296
    38  C    0.158728
    39  C    0.072072
    40  C    0.163679
    41  O   -0.240785
    42  C   -0.159474
    43  C    0.282489
    44  O   -0.230811
    45  O   -0.387127
    46  C    0.127645
    47  C    0.236346
    48  C   -0.129000
    49  C   -0.238675
    50  C    0.025004
    51  C    0.020996
    52  C   -0.038064
    53  C   -0.008771
    54  C   -0.263110
    55  C   -0.005114
    56  C    0.014985
    57  C   -0.064879
    58  C    0.002889
    59  C   -0.214795
    60  C   -0.005422
    61  C    0.037214
    62  C   -0.084162
    63  C   -0.040593
    64  C   -0.267659
    65  C   -0.004211
    66  C   -0.011851
    67  H   -0.008394
    68  H    0.023877
    69  H    0.004504
    70  H    0.070153
    71  H    0.045326
    72  H    0.043242
    73  H    0.063345
    74  H    0.036265
    75  H    0.045249
    76  H    0.067393
    77  H    0.056310
    78  H    0.070362
    79  H    0.062452
    80  H    0.034805
    81  H    0.054768
    82  H    0.062654
    83  H    0.066139
    84  H    0.060157
    85  H    0.056869
    86  H    0.048054
    87  H    0.054852
    88  H    0.048943
    89  H    0.039579
    90  H    0.038412
    91  H    0.029349
    92  H    0.047326
    93  H    0.028889
    94  H    0.043726
    95  H    0.046204
    96  H    0.065907
    97  H    0.044507
    98  H    0.091137
    99  H    0.055786
   100  H    0.051887
   101  H    0.059818
   102  H    0.086738
   103  H    0.059031
   104  H    0.031002
   105  H    0.055618
   106  H    0.061001
   107  H    0.029322
   108  H    0.043139
   109  H    0.012625
   110  H    0.028656
   111  H    0.024437
   112  H    0.032099
   113  H    0.027515
   114  H    0.030402
   115  H    0.025815
   116  H    0.034284
   117  H    0.049683
   118  H    0.028349
   119  H    0.021960
   120  H    0.034247
   121  H    0.024643
   122  H    0.027921
   123  H    0.023230
   124  H    0.034590
   125  H    0.040378
   126  H    0.018841
   127  H    0.041116
   128  H    0.018258
   129  H    0.027434
   130  H    0.029604
   131  H    0.026354
   132  H    0.042590
   133  H    0.038008
   134  H    0.033972
   135  H    0.041389
   136  H    0.047727
   137  H    0.024983
   138  H    0.033125
   139  H    0.029536
   140  H    0.031697
 Sum of Mulliken charges =  -0.00000

 Dipole moment (field-independent basis, Debye):
    X=             -2.2979    Y=              4.6154    Z=             -0.8228  Tot=              5.2211
 Quadrupole moment (field-independent basis, Debye-Ang):
   XX=           -373.3887   YY=           -410.2732   ZZ=           -411.1628
   XY=             12.4548   XZ=              9.3975   YZ=              5.1588

 Normal termination of Gaussian 16 at Thu May  5 08:38:33 2022.
