 Gaussian 16, Revision A.03,
 Gaussian 16:  ES64L-G16RevA.03 25-Dec-2016

 --------------------------------
 #p wB97XD/Def2SVP td=(nstates=5)
 --------------------------------

 ---------------------------------------------------
 step_751_chromophore_4 TDDFT with wB97XD functional
 ---------------------------------------------------
 Symbolic Z-matrix:
 Charge =  0 Multiplicity = 1

                         Standard orientation:
 ---------------------------------------------------------------------
 Center     Atomic      Atomic             Coordinates (Angstroms)
 Number     Number       Type             X           Y           Z
 ---------------------------------------------------------------------
      1         12           0        5.933375    0.494388    0.277754
      2          6           0        3.548580   -2.043716    0.146909
      3          6           0        3.387932    2.760364   -0.540264
      4          6           0        8.141631    2.971769   -0.031761
      5          6           0        8.453744   -1.772563    0.338655
      6          7           0        3.667099    0.320650   -0.282382
      7          6           0        2.935460   -0.846036   -0.175754
      8          6           0        1.435489   -0.563572   -0.436731
      9          6           0        1.464362    0.999769   -0.731629
     10          6           0        2.897328    1.420248   -0.489028
     11          6           0        1.126469    1.281043   -2.220296
     12          6           0        0.462046   -0.949194    0.773048
     13          6           0       -1.035763   -0.689934    0.432227
     14          6           0       -2.058028   -1.788082    0.633607
     15          8           0       -2.140909   -2.392261    1.716773
     16          8           0       -2.786517   -2.188932   -0.498990
     17          7           0        5.727416    2.562301   -0.084418
     18          6           0        4.640538    3.354466   -0.279183
     19          6           0        4.953980    4.744143   -0.375218
     20          6           0        6.396794    4.796420   -0.350135
     21          6           0        6.793043    3.411527   -0.087466
     22          6           0        3.950293    5.871869   -0.592304
     23          6           0        7.359366    5.976086   -0.350615
     24          8           0        8.578467    5.893149   -0.274699
     25          6           0        6.802627    7.407204   -0.408716
     26          7           0        8.012673    0.613801    0.192991
     27          6           0        8.701402    1.712619    0.148384
     28          6           0       10.209805    1.433228    0.167449
     29          6           0       10.298385   -0.102073    0.174638
     30          6           0        8.835885   -0.505003    0.177191
     31          6           0       10.926757    1.922181   -1.098154
     32          6           0       11.138722   -0.806171    1.290814
     33          6           0       12.663002   -0.882803    1.003276
     34          7           0        6.028165   -1.433721    0.403472
     35          6           0        7.127226   -2.299376    0.522845
     36          6           0        6.725430   -3.637813    0.725591
     37          6           0        5.337512   -3.586521    0.606631
     38          6           0        4.975345   -2.259037    0.433709
     39          6           0        7.604219   -4.843395    0.792512
     40          6           0        4.175876   -4.398161    0.647006
     41          8           0        4.088684   -5.636782    0.757849
     42          6           0        2.938380   -3.444591    0.365725
     43          6           0        2.085778   -3.849794   -0.881014
     44          8           0        2.402051   -3.698804   -2.037223
     45          8           0        0.962910   -4.584873   -0.445197
     46          6           0        0.120437   -5.195803   -1.508395
     47          6           0       -3.759958   -3.306122   -0.310593
     48          6           0       -5.110542   -2.590985   -0.187071
     49          6           0       -6.284027   -3.171496    0.118455
     50          6           0       -6.547770   -4.653075    0.383746
     51          6           0       -7.452494   -2.332188    0.368483
     52          6           0       -8.097412   -1.554574   -0.781475
     53          6           0       -7.932715    0.015261   -0.790776
     54          6           0       -9.330311    0.695685   -0.729591
     55          6           0       -9.872378    0.906748   -2.170568
     56          6           0       -9.296139    1.965551    0.068702
     57          6           0       -9.518885    1.759138    1.627803
     58          6           0      -10.357907    2.942996    2.252036
     59          6           0      -11.871002    2.555980    2.469615
     60          6           0      -12.502204    2.921558    3.849840
     61          6           0      -12.805737    2.901307    1.232708
     62          6           0      -13.060821    1.717409    0.260733
     63          6           0      -14.576704    1.595342   -0.164230
     64          6           0      -14.714035    0.379147   -1.172388
     65          6           0      -14.234977    0.552530   -2.623095
     66          6           0      -16.222243    0.043258   -1.198508
     67          1           0        2.565241    3.437195   -0.782242
     68          1           0        8.893765    3.739998   -0.222508
     69          1           0        9.229315   -2.541014    0.320060
     70          1           0        1.345495   -1.139550   -1.356811
     71          1           0        0.737471    1.604685   -0.190451
     72          1           0        0.737480    0.389071   -2.709150
     73          1           0        2.025451    1.634934   -2.725341
     74          1           0        0.260568    1.941578   -2.271905
     75          1           0        0.771106   -0.321599    1.608324
     76          1           0        0.746115   -1.981777    0.978590
     77          1           0       -1.066664   -0.355543   -0.603898
     78          1           0       -1.395433    0.066533    1.130208
     79          1           0        3.929991    6.106736   -1.656494
     80          1           0        4.287643    6.798619   -0.128982
     81          1           0        2.923916    5.697855   -0.268740
     82          1           0        7.621674    8.118966   -0.300516
     83          1           0        6.081295    7.502641    0.402484
     84          1           0        6.235717    7.560767   -1.326475
     85          1           0       10.578644    2.001922    1.020923
     86          1           0       10.790253   -0.381692   -0.757982
     87          1           0       10.345212    2.001983   -2.017381
     88          1           0       11.913503    1.492045   -1.268675
     89          1           0       11.163648    2.966412   -0.891236
     90          1           0       10.765043   -1.790118    1.574726
     91          1           0       10.982686   -0.267250    2.225934
     92          1           0       13.239134   -0.155933    1.574623
     93          1           0       12.809356   -0.654188   -0.053370
     94          1           0       13.144832   -1.852592    1.131098
     95          1           0        8.369222   -4.700098    0.030171
     96          1           0        7.150685   -5.824184    0.648323
     97          1           0        8.135367   -4.844855    1.744443
     98          1           0        2.180723   -3.501505    1.147685
     99          1           0        0.687908   -6.022730   -1.933827
    100          1           0       -0.104124   -4.586951   -2.384508
    101          1           0       -0.840805   -5.584736   -1.173002
    102          1           0       -3.497268   -3.921384    0.549703
    103          1           0       -3.673447   -3.828458   -1.263300
    104          1           0       -5.165867   -1.505552   -0.096917
    105          1           0       -7.357993   -5.030603   -0.239239
    106          1           0       -6.813539   -4.784134    1.432842
    107          1           0       -5.579603   -5.130682    0.229848
    108          1           0       -7.194611   -1.535651    1.066608
    109          1           0       -8.222468   -2.985527    0.779845
    110          1           0       -9.136673   -1.879744   -0.817749
    111          1           0       -7.686737   -1.977697   -1.698976
    112          1           0       -7.397216    0.347370   -1.680569
    113          1           0       -7.432487    0.445594    0.076769
    114          1           0       -9.958606   -0.033911   -0.218599
    115          1           0       -9.394940    0.161879   -2.807222
    116          1           0       -9.518533    1.862247   -2.556202
    117          1           0      -10.953526    0.766466   -2.179859
    118          1           0       -9.910144    2.697564   -0.455005
    119          1           0       -8.270933    2.327799   -0.014429
    120          1           0       -8.633036    1.619483    2.247352
    121          1           0      -10.095868    0.843089    1.754419
    122          1           0      -10.250387    3.754809    1.532828
    123          1           0       -9.749447    3.281427    3.091494
    124          1           0      -11.951760    1.469661    2.483031
    125          1           0      -12.401326    2.118674    4.580213
    126          1           0      -13.577143    2.982078    3.679613
    127          1           0      -12.180695    3.911631    4.172805
    128          1           0      -12.204415    3.673425    0.751939
    129          1           0      -13.765145    3.363368    1.465994
    130          1           0      -12.688633    0.765721    0.639659
    131          1           0      -12.571811    1.823194   -0.707954
    132          1           0      -14.982935    2.475003   -0.663747
    133          1           0      -15.054541    1.420953    0.800900
    134          1           0      -14.232528   -0.521089   -0.790787
    135          1           0      -13.705718    1.481503   -2.833450
    136          1           0      -14.869204    0.084922   -3.376464
    137          1           0      -13.342846   -0.073979   -2.606702
    138          1           0      -16.626656    0.109849   -2.209007
    139          1           0      -16.864563    0.644158   -0.555455
    140          1           0      -16.244392   -0.941539   -0.731390
 ---------------------------------------------------------------------

 SCF Done:  E(RwB97XD) =  -3007.86466000     A.U. after   19 cycles

 Excitation energies and oscillator strengths:

 Excited State   1:      Singlet-A      1.8096 eV  685.13 nm  f=0.3792  <S**2>=0.000
     245 -> 248        0.17180
     246 -> 247        0.68444
     245 <- 248        0.10394
 This state for optimization and/or second-order correction.
 Total Energy, E(TD-HF/TD-DFT) =  -3007.79815720
 Copying the excited state density for this state as the 1-particle RhoCI density.

 Excited State   2:      Singlet-A      2.1263 eV  583.09 nm  f=0.1947  <S**2>=0.000
     245 -> 247        0.66605
     246 -> 248       -0.21471

 Excited State   3:      Singlet-A      3.4576 eV  358.59 nm  f=0.0039  <S**2>=0.000
     239 -> 247        0.16587
     240 -> 247        0.32704
     240 -> 249       -0.18083
     241 -> 247        0.46015
     243 -> 247       -0.25399
     246 -> 248        0.15721

 Excited State   4:      Singlet-A      3.5590 eV  348.36 nm  f=0.0029  <S**2>=0.000
     239 -> 247        0.40129
     239 -> 249       -0.13469
     240 -> 247       -0.38311
     240 -> 249        0.23931
     240 -> 250       -0.11511
     241 -> 247        0.12746
     243 -> 247       -0.20747

 Excited State   5:      Singlet-A      3.6277 eV  341.77 nm  f=0.0041  <S**2>=0.000
     239 -> 247        0.12883
     241 -> 247        0.12659
     242 -> 247        0.38445
     242 -> 249        0.24481
     242 -> 250        0.27107
     243 -> 247        0.31498
     243 -> 249        0.15505
     243 -> 250        0.14851
     246 -> 248        0.11534

 The electronic state is 1-A.
 Alpha  occ. eigenvalues --  -46.94311 -19.29852 -19.29829 -19.25123 -19.25112
 Alpha  occ. eigenvalues --  -19.24280 -19.22650 -14.46528 -14.45978 -14.44662
 Alpha  occ. eigenvalues --  -14.43491 -10.43380 -10.43284 -10.40445 -10.38046
 Alpha  occ. eigenvalues --  -10.36353 -10.36003 -10.35262 -10.35174 -10.35031
 Alpha  occ. eigenvalues --  -10.34828 -10.34815 -10.34546 -10.33213 -10.32978
 Alpha  occ. eigenvalues --  -10.32668 -10.32506 -10.32474 -10.32431 -10.32400
 Alpha  occ. eigenvalues --  -10.32313 -10.32295 -10.32209 -10.32184 -10.31702
 Alpha  occ. eigenvalues --  -10.31562 -10.31079 -10.30730 -10.30452 -10.30205
 Alpha  occ. eigenvalues --  -10.30145 -10.30010 -10.30000 -10.29959 -10.29799
 Alpha  occ. eigenvalues --  -10.29797 -10.29600 -10.29441 -10.29388 -10.29299
 Alpha  occ. eigenvalues --  -10.29237 -10.29206 -10.29128 -10.29088 -10.29081
 Alpha  occ. eigenvalues --  -10.29015 -10.28929 -10.28853 -10.28814 -10.28635
 Alpha  occ. eigenvalues --  -10.28613 -10.28473 -10.28434 -10.28292 -10.27629
 Alpha  occ. eigenvalues --  -10.27615  -3.20527  -1.94097  -1.93638  -1.93545
 Alpha  occ. eigenvalues --   -1.17059  -1.16561  -1.13374  -1.09549  -1.09432
 Alpha  occ. eigenvalues --   -1.08468  -1.07150  -1.06338  -1.05531  -1.04644
 Alpha  occ. eigenvalues --   -0.93426  -0.92707  -0.91314  -0.91287  -0.90960
 Alpha  occ. eigenvalues --   -0.90477  -0.90379  -0.89902  -0.89628  -0.88858
 Alpha  occ. eigenvalues --   -0.88361  -0.87458  -0.85763  -0.85153  -0.84873
 Alpha  occ. eigenvalues --   -0.84131  -0.84054  -0.83210  -0.82502  -0.81977
 Alpha  occ. eigenvalues --   -0.81663  -0.81237  -0.79880  -0.78925  -0.78015
 Alpha  occ. eigenvalues --   -0.77646  -0.77485  -0.76923  -0.76734  -0.75849
 Alpha  occ. eigenvalues --   -0.75404  -0.74943  -0.73462  -0.72783  -0.71597
 Alpha  occ. eigenvalues --   -0.71038  -0.69936  -0.69780  -0.68526  -0.67823
 Alpha  occ. eigenvalues --   -0.67682  -0.67363  -0.66898  -0.66112  -0.65886
 Alpha  occ. eigenvalues --   -0.64944  -0.64288  -0.64082  -0.63692  -0.63173
 Alpha  occ. eigenvalues --   -0.61579  -0.61432  -0.61030  -0.60384  -0.60077
 Alpha  occ. eigenvalues --   -0.58861  -0.58493  -0.58338  -0.57580  -0.57354
 Alpha  occ. eigenvalues --   -0.57040  -0.56533  -0.56248  -0.55936  -0.55589
 Alpha  occ. eigenvalues --   -0.55467  -0.55109  -0.54908  -0.54749  -0.54734
 Alpha  occ. eigenvalues --   -0.54272  -0.54167  -0.53688  -0.53624  -0.53327
 Alpha  occ. eigenvalues --   -0.52944  -0.52861  -0.52768  -0.52601  -0.52483
 Alpha  occ. eigenvalues --   -0.52406  -0.52180  -0.52027  -0.51842  -0.51738
 Alpha  occ. eigenvalues --   -0.51529  -0.51257  -0.51021  -0.50851  -0.50508
 Alpha  occ. eigenvalues --   -0.50384  -0.50236  -0.49964  -0.49789  -0.49752
 Alpha  occ. eigenvalues --   -0.49461  -0.49424  -0.49168  -0.49064  -0.48845
 Alpha  occ. eigenvalues --   -0.48153  -0.47968  -0.47963  -0.47837  -0.47664
 Alpha  occ. eigenvalues --   -0.47540  -0.47416  -0.47130  -0.46983  -0.46747
 Alpha  occ. eigenvalues --   -0.46712  -0.46317  -0.46199  -0.46063  -0.45977
 Alpha  occ. eigenvalues --   -0.45851  -0.45711  -0.45509  -0.45074  -0.45016
 Alpha  occ. eigenvalues --   -0.44966  -0.44547  -0.44470  -0.44405  -0.44132
 Alpha  occ. eigenvalues --   -0.43858  -0.43656  -0.43445  -0.43313  -0.43272
 Alpha  occ. eigenvalues --   -0.42890  -0.42772  -0.42612  -0.42209  -0.42135
 Alpha  occ. eigenvalues --   -0.41889  -0.41608  -0.41191  -0.40875  -0.40578
 Alpha  occ. eigenvalues --   -0.40505  -0.40263  -0.40120  -0.39521  -0.39238
 Alpha  occ. eigenvalues --   -0.38836  -0.38779  -0.38478  -0.38180  -0.38055
 Alpha  occ. eigenvalues --   -0.37714  -0.37492  -0.36783  -0.36358  -0.36115
 Alpha  occ. eigenvalues --   -0.35826  -0.35474  -0.35253  -0.33986  -0.33829
 Alpha  occ. eigenvalues --   -0.32877  -0.31982  -0.31715  -0.31593  -0.25680
 Alpha  occ. eigenvalues --   -0.23690
 Alpha virt. eigenvalues --   -0.07287   0.00948   0.02206   0.04279   0.05981
 Alpha virt. eigenvalues --    0.06582   0.07289   0.07557   0.08475   0.09240
 Alpha virt. eigenvalues --    0.10756   0.11479   0.11643   0.12189   0.12515

 Mulliken charges:
               1
     1  Mg   1.006217
     2  C    0.026180
     3  C   -0.089589
     4  C   -0.095714
     5  C   -0.116862
     6  N   -0.318721
     7  C   -0.059555
     8  C   -0.040010
     9  C   -0.152770
    10  C    0.060864
    11  C    0.011558
    12  C    0.054211
    13  C    0.019879
    14  C    0.220722
    15  O   -0.285326
    16  O   -0.394660
    17  N   -0.427623
    18  C    0.170910
    19  C   -0.142599
    20  C   -0.085966
    21  C    0.158684
    22  C    0.070313
    23  C    0.059001
    24  O   -0.225830
    25  C   -0.026287
    26  N   -0.378872
    27  C    0.071409
    28  C   -0.091247
    29  C   -0.011142
    30  C    0.100935
    31  C   -0.006070
    32  C   -0.021979
    33  C   -0.051746
    34  N   -0.512668
    35  C    0.115927
    36  C   -0.167390
    37  C   -0.031965
    38  C    0.137444
    39  C    0.081382
    40  C    0.143291
    41  O   -0.234533
    42  C   -0.124783
    43  C    0.258521
    44  O   -0.225569
    45  O   -0.386420
    46  C    0.142962
    47  C    0.250037
    48  C   -0.140731
    49  C   -0.225723
    50  C    0.042332
    51  C    0.041304
    52  C   -0.023858
    53  C    0.007795
    54  C   -0.229995
    55  C    0.016141
    56  C    0.032760
    57  C   -0.046534
    58  C    0.015938
    59  C   -0.183053
    60  C    0.008194
    61  C    0.049783
    62  C   -0.052750
    63  C   -0.024388
    64  C   -0.238417
    65  C    0.007018
    66  C   -0.000115
    67  H   -0.015615
    68  H    0.016007
    69  H   -0.004266
    70  H    0.056820
    71  H    0.036697
    72  H    0.039129
    73  H    0.057075
    74  H    0.031692
    75  H    0.038320
    76  H    0.051620
    77  H    0.048285
    78  H    0.064819
    79  H    0.060333
    80  H    0.030617
    81  H    0.053689
    82  H    0.063437
    83  H    0.059406
    84  H    0.055627
    85  H    0.049007
    86  H    0.033960
    87  H    0.050030
    88  H    0.042992
    89  H    0.032957
    90  H    0.030840
    91  H    0.020333
    92  H    0.041008
    93  H    0.019510
    94  H    0.038984
    95  H    0.037668
    96  H    0.062380
    97  H    0.036842
    98  H    0.084924
    99  H    0.051439
   100  H    0.047027
   101  H    0.056558
   102  H    0.082925
   103  H    0.055443
   104  H    0.025862
   105  H    0.050250
   106  H    0.055286
   107  H    0.022572
   108  H    0.032608
   109  H    0.005935
   110  H    0.021044
   111  H    0.015504
   112  H    0.024338
   113  H    0.014269
   114  H    0.011903
   115  H    0.018825
   116  H    0.028039
   117  H    0.036430
   118  H    0.017201
   119  H    0.011389
   120  H    0.028548
   121  H    0.010933
   122  H    0.016748
   123  H    0.017394
   124  H    0.018037
   125  H    0.035528
   126  H    0.011486
   127  H    0.035223
   128  H    0.007819
   129  H    0.019563
   130  H    0.017485
   131  H    0.003578
   132  H    0.034585
   133  H    0.027993
   134  H    0.023300
   135  H    0.035993
   136  H    0.043187
   137  H    0.016035
   138  H    0.027033
   139  H    0.023172
   140  H    0.026128
 Sum of Mulliken charges =  -0.00000

 Dipole moment (field-independent basis, Debye):
    X=             -2.4898    Y=              5.9617    Z=             -0.9565  Tot=              6.5311
 Quadrupole moment (field-independent basis, Debye-Ang):
   XX=           -375.7031   YY=           -407.0552   ZZ=           -410.8550
   XY=             20.5523   XZ=              8.6015   YZ=              5.2479

 Normal termination of Gaussian 16 at Thu May  5 09:17:05 2022.
