 Gaussian 16, Revision A.03,
 Gaussian 16:  ES64L-G16RevA.03 25-Dec-2016

 --------------------
 #p ZINDO=(nstates=5)
 --------------------

 ----------------------------
 step_751_chromophore_4 ZINDO
 ----------------------------
 Symbolic Z-matrix:
 Charge =  0 Multiplicity = 1

                         Standard orientation:
 ---------------------------------------------------------------------
 Center     Atomic      Atomic             Coordinates (Angstroms)
 Number     Number       Type             X           Y           Z
 ---------------------------------------------------------------------
      1         12           0        5.933375    0.494388    0.277754
      2          6           0        3.548580   -2.043716    0.146909
      3          6           0        3.387932    2.760364   -0.540264
      4          6           0        8.141631    2.971769   -0.031761
      5          6           0        8.453744   -1.772563    0.338655
      6          7           0        3.667099    0.320650   -0.282382
      7          6           0        2.935460   -0.846036   -0.175754
      8          6           0        1.435489   -0.563572   -0.436731
      9          6           0        1.464362    0.999769   -0.731629
     10          6           0        2.897328    1.420248   -0.489028
     11          6           0        1.126469    1.281043   -2.220296
     12          6           0        0.462046   -0.949194    0.773048
     13          6           0       -1.035763   -0.689934    0.432227
     14          6           0       -2.058028   -1.788082    0.633607
     15          8           0       -2.140909   -2.392261    1.716773
     16          8           0       -2.786517   -2.188932   -0.498990
     17          7           0        5.727416    2.562301   -0.084418
     18          6           0        4.640538    3.354466   -0.279183
     19          6           0        4.953980    4.744143   -0.375218
     20          6           0        6.396794    4.796420   -0.350135
     21          6           0        6.793043    3.411527   -0.087466
     22          6           0        3.950293    5.871869   -0.592304
     23          6           0        7.359366    5.976086   -0.350615
     24          8           0        8.578467    5.893149   -0.274699
     25          6           0        6.802627    7.407204   -0.408716
     26          7           0        8.012673    0.613801    0.192991
     27          6           0        8.701402    1.712619    0.148384
     28          6           0       10.209805    1.433228    0.167449
     29          6           0       10.298385   -0.102073    0.174638
     30          6           0        8.835885   -0.505003    0.177191
     31          6           0       10.926757    1.922181   -1.098154
     32          6           0       11.138722   -0.806171    1.290814
     33          6           0       12.663002   -0.882803    1.003276
     34          7           0        6.028165   -1.433721    0.403472
     35          6           0        7.127226   -2.299376    0.522845
     36          6           0        6.725430   -3.637813    0.725591
     37          6           0        5.337512   -3.586521    0.606631
     38          6           0        4.975345   -2.259037    0.433709
     39          6           0        7.604219   -4.843395    0.792512
     40          6           0        4.175876   -4.398161    0.647006
     41          8           0        4.088684   -5.636782    0.757849
     42          6           0        2.938380   -3.444591    0.365725
     43          6           0        2.085778   -3.849794   -0.881014
     44          8           0        2.402051   -3.698804   -2.037223
     45          8           0        0.962910   -4.584873   -0.445197
     46          6           0        0.120437   -5.195803   -1.508395
     47          6           0       -3.759958   -3.306122   -0.310593
     48          6           0       -5.110542   -2.590985   -0.187071
     49          6           0       -6.284027   -3.171496    0.118455
     50          6           0       -6.547770   -4.653075    0.383746
     51          6           0       -7.452494   -2.332188    0.368483
     52          6           0       -8.097412   -1.554574   -0.781475
     53          6           0       -7.932715    0.015261   -0.790776
     54          6           0       -9.330311    0.695685   -0.729591
     55          6           0       -9.872378    0.906748   -2.170568
     56          6           0       -9.296139    1.965551    0.068702
     57          6           0       -9.518885    1.759138    1.627803
     58          6           0      -10.357907    2.942996    2.252036
     59          6           0      -11.871002    2.555980    2.469615
     60          6           0      -12.502204    2.921558    3.849840
     61          6           0      -12.805737    2.901307    1.232708
     62          6           0      -13.060821    1.717409    0.260733
     63          6           0      -14.576704    1.595342   -0.164230
     64          6           0      -14.714035    0.379147   -1.172388
     65          6           0      -14.234977    0.552530   -2.623095
     66          6           0      -16.222243    0.043258   -1.198508
     67          1           0        2.565241    3.437195   -0.782242
     68          1           0        8.893765    3.739998   -0.222508
     69          1           0        9.229315   -2.541014    0.320060
     70          1           0        1.345495   -1.139550   -1.356811
     71          1           0        0.737471    1.604685   -0.190451
     72          1           0        0.737480    0.389071   -2.709150
     73          1           0        2.025451    1.634934   -2.725341
     74          1           0        0.260568    1.941578   -2.271905
     75          1           0        0.771106   -0.321599    1.608324
     76          1           0        0.746115   -1.981777    0.978590
     77          1           0       -1.066664   -0.355543   -0.603898
     78          1           0       -1.395433    0.066533    1.130208
     79          1           0        3.929991    6.106736   -1.656494
     80          1           0        4.287643    6.798619   -0.128982
     81          1           0        2.923916    5.697855   -0.268740
     82          1           0        7.621674    8.118966   -0.300516
     83          1           0        6.081295    7.502641    0.402484
     84          1           0        6.235717    7.560767   -1.326475
     85          1           0       10.578644    2.001922    1.020923
     86          1           0       10.790253   -0.381692   -0.757982
     87          1           0       10.345212    2.001983   -2.017381
     88          1           0       11.913503    1.492045   -1.268675
     89          1           0       11.163648    2.966412   -0.891236
     90          1           0       10.765043   -1.790118    1.574726
     91          1           0       10.982686   -0.267250    2.225934
     92          1           0       13.239134   -0.155933    1.574623
     93          1           0       12.809356   -0.654188   -0.053370
     94          1           0       13.144832   -1.852592    1.131098
     95          1           0        8.369222   -4.700098    0.030171
     96          1           0        7.150685   -5.824184    0.648323
     97          1           0        8.135367   -4.844855    1.744443
     98          1           0        2.180723   -3.501505    1.147685
     99          1           0        0.687908   -6.022730   -1.933827
    100          1           0       -0.104124   -4.586951   -2.384508
    101          1           0       -0.840805   -5.584736   -1.173002
    102          1           0       -3.497268   -3.921384    0.549703
    103          1           0       -3.673447   -3.828458   -1.263300
    104          1           0       -5.165867   -1.505552   -0.096917
    105          1           0       -7.357993   -5.030603   -0.239239
    106          1           0       -6.813539   -4.784134    1.432842
    107          1           0       -5.579603   -5.130682    0.229848
    108          1           0       -7.194611   -1.535651    1.066608
    109          1           0       -8.222468   -2.985527    0.779845
    110          1           0       -9.136673   -1.879744   -0.817749
    111          1           0       -7.686737   -1.977697   -1.698976
    112          1           0       -7.397216    0.347370   -1.680569
    113          1           0       -7.432487    0.445594    0.076769
    114          1           0       -9.958606   -0.033911   -0.218599
    115          1           0       -9.394940    0.161879   -2.807222
    116          1           0       -9.518533    1.862247   -2.556202
    117          1           0      -10.953526    0.766466   -2.179859
    118          1           0       -9.910144    2.697564   -0.455005
    119          1           0       -8.270933    2.327799   -0.014429
    120          1           0       -8.633036    1.619483    2.247352
    121          1           0      -10.095868    0.843089    1.754419
    122          1           0      -10.250387    3.754809    1.532828
    123          1           0       -9.749447    3.281427    3.091494
    124          1           0      -11.951760    1.469661    2.483031
    125          1           0      -12.401326    2.118674    4.580213
    126          1           0      -13.577143    2.982078    3.679613
    127          1           0      -12.180695    3.911631    4.172805
    128          1           0      -12.204415    3.673425    0.751939
    129          1           0      -13.765145    3.363368    1.465994
    130          1           0      -12.688633    0.765721    0.639659
    131          1           0      -12.571811    1.823194   -0.707954
    132          1           0      -14.982935    2.475003   -0.663747
    133          1           0      -15.054541    1.420953    0.800900
    134          1           0      -14.232528   -0.521089   -0.790787
    135          1           0      -13.705718    1.481503   -2.833450
    136          1           0      -14.869204    0.084922   -3.376464
    137          1           0      -13.342846   -0.073979   -2.606702
    138          1           0      -16.626656    0.109849   -2.209007
    139          1           0      -16.864563    0.644158   -0.555455
    140          1           0      -16.244392   -0.941539   -0.731390
 ---------------------------------------------------------------------

 SCF Done:  E(RZINDO/S) =  -474.156512412     A.U. after   18 cycles

 Excitation energies and oscillator strengths:

 Excited State   1:      Singlet-A      1.4015 eV  884.66 nm  f=0.5125  <S**2>=0.000
     175 ->178         0.14676
     176 ->177         0.67665
 This state for optimization and/or second-order correction.
 Total Energy, E(CIS/TDA) =  -474.105008597
 Copying the excited state density for this state as the 1-particle RhoCI density.

 Excited State   2:      Singlet-A      1.9408 eV  638.84 nm  f=0.1638  <S**2>=0.000
     175 ->177         0.60397
     176 ->178        -0.31807

 Excited State   3:      Singlet-A      2.8571 eV  433.95 nm  f=0.0013  <S**2>=0.000
     167 ->177         0.10830
     167 ->179        -0.15628
     168 ->177         0.33746
     168 ->179        -0.42584
     168 ->181         0.12892
     168 ->184        -0.12436
     168 ->185        -0.17925
     169 ->177         0.12173
     169 ->179        -0.10882

 Excited State   4:      Singlet-A      3.0422 eV  407.55 nm  f=0.5057  <S**2>=0.000
     171 ->177        -0.12062
     171 ->179        -0.11786
     171 ->180        -0.10835
     171 ->181        -0.21281
     175 ->177         0.23365
     176 ->178         0.46118
     176 ->179        -0.13964
     176 ->181        -0.16178
     176 ->183         0.11193

 Excited State   5:      Singlet-A      3.0829 eV  402.17 nm  f=0.2603  <S**2>=0.000
     171 ->177         0.22681
     171 ->178        -0.14478
     171 ->179         0.19385
     171 ->180         0.17409
     171 ->181         0.34304
     171 ->185         0.16146
     171 ->188         0.13847
     175 ->177         0.15520
     176 ->178         0.30831

 The electronic state is 1-A.
 Alpha  occ. eigenvalues --   -1.84888  -1.83126  -1.80497  -1.72406  -1.69879
 Alpha  occ. eigenvalues --   -1.68179  -1.65538  -1.60113  -1.59891  -1.55285
 Alpha  occ. eigenvalues --   -1.55216  -1.51714  -1.48701  -1.47685  -1.46648
 Alpha  occ. eigenvalues --   -1.43682  -1.42114  -1.40774  -1.39415  -1.36870
 Alpha  occ. eigenvalues --   -1.35928  -1.32948  -1.32390  -1.31885  -1.28795
 Alpha  occ. eigenvalues --   -1.27962  -1.24949  -1.22243  -1.20759  -1.18381
 Alpha  occ. eigenvalues --   -1.16883  -1.16130  -1.14828  -1.13925  -1.12902
 Alpha  occ. eigenvalues --   -1.12395  -1.11871  -1.10946  -1.05316  -1.03561
 Alpha  occ. eigenvalues --   -1.03112  -1.01361  -0.98737  -0.97761  -0.96778
 Alpha  occ. eigenvalues --   -0.95993  -0.94576  -0.93590  -0.92370  -0.92164
 Alpha  occ. eigenvalues --   -0.91668  -0.91459  -0.89284  -0.88419  -0.86544
 Alpha  occ. eigenvalues --   -0.86060  -0.83537  -0.82298  -0.81987  -0.80626
 Alpha  occ. eigenvalues --   -0.80059  -0.79182  -0.77597  -0.76492  -0.75672
 Alpha  occ. eigenvalues --   -0.74680  -0.74592  -0.73759  -0.73442  -0.73219
 Alpha  occ. eigenvalues --   -0.72748  -0.71871  -0.71169  -0.71161  -0.70163
 Alpha  occ. eigenvalues --   -0.69856  -0.69038  -0.68746  -0.68346  -0.67803
 Alpha  occ. eigenvalues --   -0.67632  -0.66446  -0.66386  -0.66249  -0.66093
 Alpha  occ. eigenvalues --   -0.65386  -0.64435  -0.63824  -0.63254  -0.63203
 Alpha  occ. eigenvalues --   -0.62631  -0.62166  -0.61969  -0.61705  -0.61397
 Alpha  occ. eigenvalues --   -0.61189  -0.60901  -0.60539  -0.60474  -0.60042
 Alpha  occ. eigenvalues --   -0.59852  -0.59635  -0.59253  -0.59105  -0.58869
 Alpha  occ. eigenvalues --   -0.58618  -0.57950  -0.56897  -0.56601  -0.56263
 Alpha  occ. eigenvalues --   -0.55763  -0.55645  -0.55333  -0.55302  -0.54600
 Alpha  occ. eigenvalues --   -0.54266  -0.53967  -0.53479  -0.53314  -0.52574
 Alpha  occ. eigenvalues --   -0.52322  -0.52056  -0.51952  -0.51752  -0.51549
 Alpha  occ. eigenvalues --   -0.51153  -0.51049  -0.50762  -0.50483  -0.50196
 Alpha  occ. eigenvalues --   -0.49786  -0.49608  -0.49588  -0.49338  -0.48943
 Alpha  occ. eigenvalues --   -0.48412  -0.48360  -0.48248  -0.48076  -0.48017
 Alpha  occ. eigenvalues --   -0.47580  -0.47213  -0.46909  -0.46810  -0.46612
 Alpha  occ. eigenvalues --   -0.46443  -0.46204  -0.45928  -0.45423  -0.45108
 Alpha  occ. eigenvalues --   -0.44984  -0.44618  -0.44458  -0.43933  -0.43848
 Alpha  occ. eigenvalues --   -0.43422  -0.43340  -0.42365  -0.42303  -0.41842
 Alpha  occ. eigenvalues --   -0.41780  -0.41368  -0.41104  -0.38909  -0.38706
 Alpha  occ. eigenvalues --   -0.38056  -0.37292  -0.36364  -0.34870  -0.34475
 Alpha  occ. eigenvalues --   -0.33652  -0.32279  -0.31890  -0.31621  -0.26631
 Alpha  occ. eigenvalues --   -0.22541
 Alpha virt. eigenvalues --   -0.08693  -0.01440  -0.00781   0.01228   0.01458
 Alpha virt. eigenvalues --    0.02628   0.03082   0.03283   0.04595   0.04823
 Alpha virt. eigenvalues --    0.05700   0.06581   0.07012   0.07583   0.08060

 Mulliken charges:
               1
     1  Mg   0.428661
     2  C   -0.038198
     3  C   -0.096683
     4  C   -0.088922
     5  C   -0.043876
     6  N   -0.296892
     7  C    0.089112
     8  C   -0.011148
     9  C    0.005416
    10  C    0.188087
    11  C   -0.054264
    12  C   -0.016999
    13  C    0.012527
    14  C    0.463646
    15  O   -0.524666
    16  O   -0.284887
    17  N   -0.336683
    18  C    0.158559
    19  C    0.035523
    20  C   -0.037425
    21  C    0.160771
    22  C   -0.039783
    23  C    0.329473
    24  O   -0.505925
    25  C   -0.030388
    26  N   -0.262302
    27  C    0.195454
    28  C    0.013600
    29  C    0.003691
    30  C    0.070270
    31  C   -0.052861
    32  C   -0.031234
    33  C   -0.061374
    34  N   -0.309772
    35  C    0.041196
    36  C    0.010783
    37  C   -0.054817
    38  C    0.104867
    39  C   -0.036982
    40  C    0.327857
    41  O   -0.544461
    42  C    0.049386
    43  C    0.473947
    44  O   -0.501880
    45  O   -0.272262
    46  C    0.071721
    47  C    0.108564
    48  C   -0.100392
    49  C    0.001616
    50  C   -0.044324
    51  C   -0.020603
    52  C   -0.033387
    53  C   -0.036001
    54  C   -0.017909
    55  C   -0.061345
    56  C   -0.033137
    57  C   -0.045156
    58  C   -0.038293
    59  C   -0.015383
    60  C   -0.059235
    61  C   -0.038361
    62  C   -0.046373
    63  C   -0.036293
    64  C   -0.015785
    65  C   -0.067571
    66  C   -0.068672
    67  H    0.010318
    68  H    0.042675
    69  H    0.023526
    70  H    0.054053
    71  H    0.031556
    72  H    0.023536
    73  H    0.034430
    74  H    0.016654
    75  H    0.029161
    76  H    0.041584
    77  H    0.032687
    78  H    0.045944
    79  H    0.034216
    80  H    0.028437
    81  H    0.032699
    82  H    0.044416
    83  H    0.033036
    84  H    0.035733
    85  H    0.041148
    86  H    0.030376
    87  H    0.031982
    88  H    0.024785
    89  H    0.004368
    90  H    0.027351
    91  H    0.012342
    92  H    0.019593
    93  H    0.013136
    94  H    0.022225
    95  H    0.019452
    96  H    0.038302
    97  H    0.022974
    98  H    0.056851
    99  H    0.039094
   100  H    0.039366
   101  H    0.036089
   102  H    0.070073
   103  H    0.042429
   104  H    0.038108
   105  H    0.034031
   106  H    0.032282
   107  H    0.019833
   108  H    0.025185
   109  H    0.012614
   110  H    0.018975
   111  H    0.012090
   112  H    0.021567
   113  H    0.021777
   114  H    0.018717
   115  H    0.012748
   116  H    0.022025
   117  H    0.024182
   118  H    0.026646
   119  H    0.010412
   120  H    0.024905
   121  H    0.016783
   122  H    0.016902
   123  H    0.020839
   124  H    0.015125
   125  H    0.025307
   126  H    0.011212
   127  H    0.023697
   128  H    0.013995
   129  H    0.025987
   130  H    0.025576
   131  H    0.015038
   132  H    0.029619
   133  H    0.022011
   134  H    0.022564
   135  H    0.031429
   136  H    0.037157
   137  H    0.000587
   138  H    0.022594
   139  H    0.014117
   140  H    0.014942
 Sum of Mulliken charges =  -0.00000

 Dipole moment (field-independent basis, Debye):
    X=             -4.5307    Y=             11.7627    Z=             -1.4407  Tot=             12.6871
 N-N= 4.258906947907D+03 E-N= 0.000000000000D+00  KE=-9.192301323210D+03
 Leave Link  601 at Thu May  5 09:34:19 2022, MaxMem=  6710886400 cpu:               2.1 elap:               0.1
 (Enter /sw/apps/gaussian-16.0/g16/l9999.exe)
 1\1\GINC-BP1-COMPUTE181\SP\RZINDO CIS\STO-3G\C55H74Mg1N4O6\OF15641\05-
 May-2022\0\\#p ZINDO=(nstates=5)\\step_751_chromophore_4 ZINDO\\0,1\Mg
 ,0,8.924,3.23,28.323\C,0,10.213,1.947,31.296\C,0,7.26,5.652,30.233\C,0
 ,7.294,4.333,25.633\C,0,9.933,0.483,26.611\N,0,8.668,3.659,30.61\C,0,9
 .382,3.011,31.599\C,0,9.112,3.67,32.974\C,0,8.084,4.815,32.569\C,0,7.9
 96,4.75,31.06\C,0,6.675,4.513,33.146\C,0,10.414,4.237,33.711\C,0,10.08
 6,4.841,35.109\C,0,10.867,4.396,36.327\O,0,12.11,4.406,36.327\O,0,10.1

 Normal termination of Gaussian 16 at Thu May  5 09:34:19 2022.
