 Gaussian 16, Revision A.03,
 Gaussian 16:  ES64L-G16RevA.03 25-Dec-2016

 ------------------------------
 #p blyp/Def2SVP td=(nstates=5)
 ------------------------------

 --------------------------------------------------
 step_701_chromophore_20 TDDFT with blyp functional
 --------------------------------------------------
 Symbolic Z-matrix:
 Charge =  0 Multiplicity = 1

                         Standard orientation:
 ---------------------------------------------------------------------
 Center     Atomic      Atomic             Coordinates (Angstroms)
 Number     Number       Type             X           Y           Z
 ---------------------------------------------------------------------
      1         12           0        4.413339    1.293808   -0.563677
      2          6           0        3.887899   -2.124644   -0.918325
      3          6           0        1.843129    1.875592   -2.815640
      4          6           0        4.091744    4.495664    0.613647
      5          6           0        6.739133    0.551516    1.930772
      6          7           0        2.885912    0.043547   -1.563987
      7          6           0        2.923478   -1.343981   -1.648123
      8          6           0        1.938044   -1.854555   -2.666763
      9          6           0        1.613124   -0.546453   -3.464004
     10          6           0        2.142068    0.577800   -2.560256
     11          6           0        2.263756   -0.462097   -4.904427
     12          6           0        0.592480   -2.636021   -2.131565
     13          6           0        0.159824   -3.807395   -3.008962
     14          6           0       -0.696623   -4.713276   -2.314883
     15          8           0       -0.380665   -5.855410   -1.955216
     16          8           0       -1.990534   -4.266258   -2.116899
     17          7           0        3.212493    2.993321   -1.112343
     18          6           0        2.342180    3.043827   -2.085634
     19          6           0        1.880502    4.400415   -2.260440
     20          6           0        2.584352    5.185229   -1.368685
     21          6           0        3.364671    4.231096   -0.606875
     22          6           0        0.969753    4.782975   -3.391056
     23          6           0        2.596663    6.721818   -1.378383
     24          8           0        1.836028    7.383364   -2.017590
     25          6           0        3.701506    7.455155   -0.679718
     26          7           0        5.240617    2.367015    1.017572
     27          6           0        4.833682    3.679802    1.396670
     28          6           0        5.488487    4.076797    2.738504
     29          6           0        6.278595    2.772706    3.171747
     30          6           0        6.098562    1.791028    1.984088
     31          6           0        6.297289    5.376563    2.897291
     32          6           0        5.936466    2.092442    4.594229
     33          6           0        7.109868    1.838785    5.592666
     34          7           0        5.326839   -0.374419    0.258675
     35          6           0        6.300983   -0.537939    1.210449
     36          6           0        6.713404   -1.917222    1.301897
     37          6           0        5.827701   -2.600042    0.415310
     38          6           0        4.911647   -1.618877   -0.076970
     39          6           0        7.716677   -2.506366    2.211180
     40          6           0        5.463330   -3.881427   -0.099817
     41          8           0        5.927130   -5.020450    0.091937
     42          6           0        4.218139   -3.588367   -1.050245
     43          6           0        3.168349   -4.457230   -0.602616
     44          8           0        2.314505   -4.174895    0.168520
     45          8           0        3.313734   -5.709981   -1.207862
     46          6           0        2.357762   -6.814809   -0.940165
     47          6           0       -2.879425   -5.143954   -1.335913
     48          6           0       -3.789997   -4.197737   -0.513733
     49          6           0       -4.709843   -4.536431    0.409635
     50          6           0       -5.131023   -5.960092    0.703768
     51          6           0       -5.629232   -3.471221    1.114176
     52          6           0       -5.389737   -3.072196    2.609576
     53          6           0       -6.592192   -3.209958    3.572177
     54          6           0       -7.194453   -1.805875    3.949659
     55          6           0       -7.807038   -1.846940    5.375679
     56          6           0       -8.164683   -1.333195    2.882031
     57          6           0       -8.182472    0.165409    2.708711
     58          6           0       -7.367322    0.494955    1.433580
     59          6           0       -8.211845    0.721865    0.164975
     60          6           0       -7.712316   -0.142634   -0.995489
     61          6           0       -8.253953    2.298076   -0.155379
     62          6           0       -9.103694    2.783716   -1.336507
     63          6           0      -10.472157    3.439971   -0.846812
     64          6           0      -10.594442    4.943667   -1.158323
     65          6           0       -9.721285    5.920079   -0.250470
     66          6           0      -12.104323    5.242498   -1.153561
     67          1           0        1.239935    2.158402   -3.680457
     68          1           0        3.994629    5.512737    0.999841
     69          1           0        7.502086    0.383772    2.692794
     70          1           0        2.440386   -2.578427   -3.308588
     71          1           0        0.529249   -0.434057   -3.502618
     72          1           0        2.870560   -1.341935   -5.120868
     73          1           0        2.894174    0.426319   -4.869171
     74          1           0        1.437556   -0.374310   -5.610809
     75          1           0       -0.245699   -1.941918   -2.067630
     76          1           0        0.814743   -2.824693   -1.081568
     77          1           0        1.050418   -4.310485   -3.385608
     78          1           0       -0.315852   -3.239909   -3.808701
     79          1           0        0.330501    5.562813   -2.978295
     80          1           0        0.392699    3.956373   -3.805597
     81          1           0        1.540495    5.183840   -4.229010
     82          1           0        4.599254    6.837991   -0.686855
     83          1           0        3.433378    7.681457    0.351702
     84          1           0        3.882670    8.435311   -1.121054
     85          1           0        4.599779    4.289096    3.331875
     86          1           0        7.341849    2.999473    3.091060
     87          1           0        6.080673    6.094646    2.106626
     88          1           0        7.368136    5.177453    2.843662
     89          1           0        6.038794    5.928138    3.800999
     90          1           0        5.501102    1.153349    4.250932
     91          1           0        5.259755    2.776070    5.106617
     92          1           0        7.303264    0.786055    5.798143
     93          1           0        6.954166    2.329321    6.553417
     94          1           0        7.937263    2.336445    5.085694
     95          1           0        7.272854   -2.669378    3.193654
     96          1           0        8.492147   -1.749455    2.326688
     97          1           0        8.076077   -3.456969    1.818362
     98          1           0        4.498797   -3.893144   -2.058718
     99          1           0        1.586151   -6.534764   -0.223632
    100          1           0        2.920234   -7.614844   -0.459932
    101          1           0        1.902851   -7.054517   -1.901844
    102          1           0       -2.479768   -5.896772   -0.657209
    103          1           0       -3.588913   -5.688635   -1.959396
    104          1           0       -3.624453   -3.134939   -0.694126
    105          1           0       -4.420055   -6.448901    1.369992
    106          1           0       -5.245379   -6.462044   -0.257468
    107          1           0       -6.084940   -5.983254    1.229995
    108          1           0       -6.647438   -3.824765    0.951557
    109          1           0       -5.632564   -2.597932    0.462065
    110          1           0       -4.980190   -2.078704    2.792050
    111          1           0       -4.632458   -3.757974    2.988992
    112          1           0       -6.268738   -3.826230    4.410212
    113          1           0       -7.377584   -3.832871    3.143341
    114          1           0       -6.452095   -1.016055    4.068277
    115          1           0       -7.061983   -1.353669    6.000599
    116          1           0       -7.970794   -2.816236    5.845652
    117          1           0       -8.673742   -1.190136    5.442465
    118          1           0       -9.204638   -1.473360    3.175210
    119          1           0       -8.193520   -1.923853    1.966738
    120          1           0       -7.714947    0.767306    3.488278
    121          1           0       -9.239198    0.370319    2.540320
    122          1           0       -6.473997   -0.122436    1.339925
    123          1           0       -6.970782    1.473945    1.703074
    124          1           0       -9.264815    0.610209    0.422393
    125          1           0       -7.104007   -0.986862   -0.670584
    126          1           0       -7.233178    0.314979   -1.860983
    127          1           0       -8.621701   -0.612158   -1.372341
    128          1           0       -7.268034    2.751834   -0.247168
    129          1           0       -8.697306    2.792967    0.708539
    130          1           0       -9.408531    1.864196   -1.836485
    131          1           0       -8.431027    3.448561   -1.878230
    132          1           0      -10.546208    3.325323    0.234204
    133          1           0      -11.280393    2.840646   -1.267180
    134          1           0      -10.351184    5.170755   -2.196688
    135          1           0       -9.205152    5.449920    0.586521
    136          1           0      -10.420841    6.670278    0.117126
    137          1           0       -9.054180    6.553233   -0.833470
    138          1           0      -12.247634    6.204331   -0.661484
    139          1           0      -12.715337    4.563133   -0.560593
    140          1           0      -12.403200    5.311631   -2.199721
 ---------------------------------------------------------------------

 SCF Done:  E(RB-LYP) =  -3007.35673134     A.U. after   23 cycles

 Excitation energies and oscillator strengths:

 Excited State   1:      Singlet-A      1.7664 eV  701.92 nm  f=0.3107  <S**2>=0.000
     245 -> 248       -0.17837
     246 -> 247        0.69573
     246 <- 247       -0.16596
 This state for optimization and/or second-order correction.
 Total Energy, E(TD-HF/TD-DFT) =  -3007.29181842
 Copying the excited state density for this state as the 1-particle RhoCI density.

 Excited State   2:      Singlet-A      1.8817 eV  658.89 nm  f=0.0040  <S**2>=0.000
     243 -> 247        0.69668

 Excited State   3:      Singlet-A      1.8985 eV  653.07 nm  f=0.0017  <S**2>=0.000
     244 -> 247        0.70308

 Excited State   4:      Singlet-A      2.0334 eV  609.73 nm  f=0.0737  <S**2>=0.000
     243 -> 247       -0.10174
     245 -> 247        0.63397
     246 -> 248        0.25966

 Excited State   5:      Singlet-A      2.1356 eV  580.56 nm  f=0.0003  <S**2>=0.000
     242 -> 247        0.70667

 The electronic state is 1-A.
 Alpha  occ. eigenvalues --  -46.27527 -18.82505 -18.79319 -18.76493 -18.75880
 Alpha  occ. eigenvalues --  -18.75783 -18.75763 -14.03641 -14.03467 -14.01095
 Alpha  occ. eigenvalues --  -14.01052 -10.04176 -10.02206  -9.99947  -9.99841
 Alpha  occ. eigenvalues --   -9.98240  -9.97567  -9.97215  -9.96741  -9.96240
 Alpha  occ. eigenvalues --   -9.95997  -9.95698  -9.95254  -9.95095  -9.95011
 Alpha  occ. eigenvalues --   -9.94648  -9.94615  -9.94497  -9.94135  -9.94120
 Alpha  occ. eigenvalues --   -9.94001  -9.93905  -9.93493  -9.93395  -9.93316
 Alpha  occ. eigenvalues --   -9.93043  -9.93029  -9.92978  -9.92931  -9.92926
 Alpha  occ. eigenvalues --   -9.92727  -9.92718  -9.92428  -9.92427  -9.92008
 Alpha  occ. eigenvalues --   -9.91921  -9.91913  -9.91908  -9.91845  -9.91759
 Alpha  occ. eigenvalues --   -9.91731  -9.91617  -9.91577  -9.91418  -9.91403
 Alpha  occ. eigenvalues --   -9.91082  -9.91017  -9.91010  -9.90628  -9.90576
 Alpha  occ. eigenvalues --   -9.90563  -9.90423  -9.90304  -9.90236  -9.90059
 Alpha  occ. eigenvalues --   -9.89960  -2.92163  -1.72571  -1.72016  -1.71906
 Alpha  occ. eigenvalues --   -0.97561  -0.96310  -0.93352  -0.90206  -0.88999
 Alpha  occ. eigenvalues --   -0.88689  -0.87729  -0.86607  -0.85739  -0.83408
 Alpha  occ. eigenvalues --   -0.75823  -0.73424  -0.73147  -0.72294  -0.72061
 Alpha  occ. eigenvalues --   -0.71505  -0.71464  -0.71172  -0.70687  -0.70324
 Alpha  occ. eigenvalues --   -0.70241  -0.69802  -0.68119  -0.67808  -0.67676
 Alpha  occ. eigenvalues --   -0.66129  -0.65994  -0.65167  -0.64833  -0.64627
 Alpha  occ. eigenvalues --   -0.63839  -0.62863  -0.62212  -0.61775  -0.60196
 Alpha  occ. eigenvalues --   -0.60037  -0.60003  -0.59713  -0.59524  -0.58367
 Alpha  occ. eigenvalues --   -0.58217  -0.57647  -0.56924  -0.55948  -0.54614
 Alpha  occ. eigenvalues --   -0.54452  -0.53839  -0.53067  -0.52241  -0.51646
 Alpha  occ. eigenvalues --   -0.51467  -0.50970  -0.50842  -0.50602  -0.50347
 Alpha  occ. eigenvalues --   -0.49452  -0.48948  -0.48077  -0.47005  -0.46861
 Alpha  occ. eigenvalues --   -0.46383  -0.45981  -0.45416  -0.44910  -0.44438
 Alpha  occ. eigenvalues --   -0.44044  -0.43922  -0.43294  -0.42519  -0.42390
 Alpha  occ. eigenvalues --   -0.42189  -0.41319  -0.41117  -0.40908  -0.40840
 Alpha  occ. eigenvalues --   -0.40511  -0.40158  -0.39917  -0.39822  -0.39662
 Alpha  occ. eigenvalues --   -0.39529  -0.39499  -0.39314  -0.39185  -0.39142
 Alpha  occ. eigenvalues --   -0.38718  -0.38645  -0.38408  -0.38220  -0.38045
 Alpha  occ. eigenvalues --   -0.37899  -0.37797  -0.37679  -0.37507  -0.37319
 Alpha  occ. eigenvalues --   -0.36860  -0.36711  -0.36631  -0.36499  -0.36472
 Alpha  occ. eigenvalues --   -0.36250  -0.35975  -0.35842  -0.35660  -0.35477
 Alpha  occ. eigenvalues --   -0.35373  -0.35135  -0.35090  -0.34987  -0.34790
 Alpha  occ. eigenvalues --   -0.34678  -0.34638  -0.34285  -0.34241  -0.34108
 Alpha  occ. eigenvalues --   -0.33957  -0.33760  -0.33581  -0.33372  -0.32976
 Alpha  occ. eigenvalues --   -0.32954  -0.32819  -0.32714  -0.32632  -0.32453
 Alpha  occ. eigenvalues --   -0.32217  -0.31982  -0.31954  -0.31872  -0.31571
 Alpha  occ. eigenvalues --   -0.31349  -0.31256  -0.31094  -0.30813  -0.30749
 Alpha  occ. eigenvalues --   -0.30646  -0.30360  -0.30013  -0.29840  -0.29700
 Alpha  occ. eigenvalues --   -0.29324  -0.29151  -0.29128  -0.28806  -0.28669
 Alpha  occ. eigenvalues --   -0.28261  -0.28242  -0.28024  -0.27771  -0.27518
 Alpha  occ. eigenvalues --   -0.27440  -0.27103  -0.26854  -0.26531  -0.26383
 Alpha  occ. eigenvalues --   -0.26212  -0.25927  -0.25488  -0.24964  -0.24814
 Alpha  occ. eigenvalues --   -0.24440  -0.24011  -0.23913  -0.23679  -0.23213
 Alpha  occ. eigenvalues --   -0.22395  -0.22191  -0.21529  -0.21306  -0.20978
 Alpha  occ. eigenvalues --   -0.20656  -0.19875  -0.18899  -0.18885  -0.17764
 Alpha  occ. eigenvalues --   -0.16019
 Alpha virt. eigenvalues --   -0.12028  -0.07125  -0.06538  -0.04692  -0.03751
 Alpha virt. eigenvalues --   -0.03369  -0.01680  -0.01240  -0.01131   0.00244
 Alpha virt. eigenvalues --    0.01038   0.01613   0.02357   0.03052   0.03164

 Mulliken charges:
               1
     1  Mg   0.702841
     2  C    0.066271
     3  C   -0.058634
     4  C   -0.050695
     5  C   -0.087550
     6  N   -0.220684
     7  C   -0.039986
     8  C    0.014963
     9  C   -0.028174
    10  C    0.062675
    11  C    0.134221
    12  C    0.038632
    13  C    0.202843
    14  C    0.100896
    15  O   -0.204698
    16  O   -0.284052
    17  N   -0.189373
    18  C    0.044963
    19  C   -0.154984
    20  C    0.034898
    21  C    0.071028
    22  C    0.174363
    23  C   -0.083720
    24  O   -0.130091
    25  C    0.118541
    26  N   -0.300701
    27  C    0.044287
    28  C    0.031491
    29  C    0.027975
    30  C    0.029227
    31  C    0.126093
    32  C    0.088151
    33  C    0.058491
    34  N   -0.263840
    35  C    0.132633
    36  C   -0.171347
    37  C    0.109798
    38  C    0.054323
    39  C    0.174972
    40  C   -0.061818
    41  O   -0.142097
    42  C    0.024436
    43  C    0.091013
    44  O   -0.142457
    45  O   -0.309999
    46  C    0.213785
    47  C    0.332859
    48  C   -0.125079
    49  C   -0.166423
    50  C    0.141534
    51  C    0.107947
    52  C    0.113533
    53  C    0.087175
    54  C   -0.050162
    55  C    0.115468
    56  C    0.117122
    57  C    0.057441
    58  C    0.111635
    59  C   -0.037974
    60  C    0.134507
    61  C    0.007440
    62  C    0.128059
    63  C    0.070606
    64  C   -0.088223
    65  C    0.108210
    66  C    0.103322
    67  H   -0.060504
    68  H   -0.078633
    69  H   -0.063286
    70  H   -0.032996
    71  H   -0.024776
    72  H   -0.004166
    73  H   -0.001339
    74  H    0.002746
    75  H   -0.015991
    76  H    0.012768
    77  H   -0.001259
    78  H   -0.006741
    79  H    0.011749
    80  H   -0.017730
    81  H    0.003294
    82  H    0.003346
    83  H    0.013906
    84  H   -0.006169
    85  H   -0.019211
    86  H   -0.018640
    87  H   -0.018184
    88  H   -0.009138
    89  H   -0.008720
    90  H   -0.000466
    91  H   -0.014349
    92  H    0.005461
    93  H   -0.005852
    94  H   -0.013912
    95  H    0.010835
    96  H   -0.006160
    97  H    0.016931
    98  H    0.003884
    99  H    0.015077
   100  H    0.008867
   101  H    0.027479
   102  H    0.019961
   103  H   -0.000408
   104  H   -0.033588
   105  H    0.007966
   106  H   -0.000002
   107  H   -0.018971
   108  H   -0.027681
   109  H   -0.026892
   110  H   -0.023479
   111  H   -0.036310
   112  H   -0.043411
   113  H   -0.036898
   114  H   -0.037983
   115  H   -0.032479
   116  H   -0.009894
   117  H   -0.025956
   118  H   -0.061435
   119  H   -0.038919
   120  H   -0.023166
   121  H   -0.036479
   122  H   -0.033788
   123  H   -0.058334
   124  H   -0.043190
   125  H   -0.021907
   126  H   -0.007280
   127  H   -0.027047
   128  H   -0.039089
   129  H   -0.039100
   130  H   -0.040698
   131  H   -0.022180
   132  H   -0.029885
   133  H   -0.032103
   134  H   -0.037995
   135  H   -0.001061
   136  H   -0.031079
   137  H   -0.015937
   138  H   -0.036883
   139  H   -0.013560
   140  H   -0.008883
 Sum of Mulliken charges =  -0.00000

 Dipole moment (field-independent basis, Debye):
    X=              0.6658    Y=              2.8358    Z=              0.6445  Tot=              2.9833
 Quadrupole moment (field-independent basis, Debye-Ang):
   XX=           -382.3673   YY=           -441.1156   ZZ=           -383.2804
   XY=             41.4384   XZ=             10.5753   YZ=             18.1320

 Normal termination of Gaussian 16 at Sat Apr 30 10:51:19 2022.
