 Gaussian 16, Revision A.03,
 Gaussian 16:  ES64L-G16RevA.03 25-Dec-2016

 -----------------------------------
 #p cam-b3lyp/Def2SVP td=(nstates=5)
 -----------------------------------

 -------------------------------------------------------
 step_701_chromophore_20 TDDFT with cam-b3lyp functional
 -------------------------------------------------------
 Symbolic Z-matrix:
 Charge =  0 Multiplicity = 1

                         Standard orientation:
 ---------------------------------------------------------------------
 Center     Atomic      Atomic             Coordinates (Angstroms)
 Number     Number       Type             X           Y           Z
 ---------------------------------------------------------------------
      1         12           0        4.413339    1.293808   -0.563677
      2          6           0        3.887899   -2.124644   -0.918325
      3          6           0        1.843129    1.875592   -2.815640
      4          6           0        4.091744    4.495664    0.613647
      5          6           0        6.739133    0.551516    1.930772
      6          7           0        2.885912    0.043547   -1.563987
      7          6           0        2.923478   -1.343981   -1.648123
      8          6           0        1.938044   -1.854555   -2.666763
      9          6           0        1.613124   -0.546453   -3.464004
     10          6           0        2.142068    0.577800   -2.560256
     11          6           0        2.263756   -0.462097   -4.904427
     12          6           0        0.592480   -2.636021   -2.131565
     13          6           0        0.159824   -3.807395   -3.008962
     14          6           0       -0.696623   -4.713276   -2.314883
     15          8           0       -0.380665   -5.855410   -1.955216
     16          8           0       -1.990534   -4.266258   -2.116899
     17          7           0        3.212493    2.993321   -1.112343
     18          6           0        2.342180    3.043827   -2.085634
     19          6           0        1.880502    4.400415   -2.260440
     20          6           0        2.584352    5.185229   -1.368685
     21          6           0        3.364671    4.231096   -0.606875
     22          6           0        0.969753    4.782975   -3.391056
     23          6           0        2.596663    6.721818   -1.378383
     24          8           0        1.836028    7.383364   -2.017590
     25          6           0        3.701506    7.455155   -0.679718
     26          7           0        5.240617    2.367015    1.017572
     27          6           0        4.833682    3.679802    1.396670
     28          6           0        5.488487    4.076797    2.738504
     29          6           0        6.278595    2.772706    3.171747
     30          6           0        6.098562    1.791028    1.984088
     31          6           0        6.297289    5.376563    2.897291
     32          6           0        5.936466    2.092442    4.594229
     33          6           0        7.109868    1.838785    5.592666
     34          7           0        5.326839   -0.374419    0.258675
     35          6           0        6.300983   -0.537939    1.210449
     36          6           0        6.713404   -1.917222    1.301897
     37          6           0        5.827701   -2.600042    0.415310
     38          6           0        4.911647   -1.618877   -0.076970
     39          6           0        7.716677   -2.506366    2.211180
     40          6           0        5.463330   -3.881427   -0.099817
     41          8           0        5.927130   -5.020450    0.091937
     42          6           0        4.218139   -3.588367   -1.050245
     43          6           0        3.168349   -4.457230   -0.602616
     44          8           0        2.314505   -4.174895    0.168520
     45          8           0        3.313734   -5.709981   -1.207862
     46          6           0        2.357762   -6.814809   -0.940165
     47          6           0       -2.879425   -5.143954   -1.335913
     48          6           0       -3.789997   -4.197737   -0.513733
     49          6           0       -4.709843   -4.536431    0.409635
     50          6           0       -5.131023   -5.960092    0.703768
     51          6           0       -5.629232   -3.471221    1.114176
     52          6           0       -5.389737   -3.072196    2.609576
     53          6           0       -6.592192   -3.209958    3.572177
     54          6           0       -7.194453   -1.805875    3.949659
     55          6           0       -7.807038   -1.846940    5.375679
     56          6           0       -8.164683   -1.333195    2.882031
     57          6           0       -8.182472    0.165409    2.708711
     58          6           0       -7.367322    0.494955    1.433580
     59          6           0       -8.211845    0.721865    0.164975
     60          6           0       -7.712316   -0.142634   -0.995489
     61          6           0       -8.253953    2.298076   -0.155379
     62          6           0       -9.103694    2.783716   -1.336507
     63          6           0      -10.472157    3.439971   -0.846812
     64          6           0      -10.594442    4.943667   -1.158323
     65          6           0       -9.721285    5.920079   -0.250470
     66          6           0      -12.104323    5.242498   -1.153561
     67          1           0        1.239935    2.158402   -3.680457
     68          1           0        3.994629    5.512737    0.999841
     69          1           0        7.502086    0.383772    2.692794
     70          1           0        2.440386   -2.578427   -3.308588
     71          1           0        0.529249   -0.434057   -3.502618
     72          1           0        2.870560   -1.341935   -5.120868
     73          1           0        2.894174    0.426319   -4.869171
     74          1           0        1.437556   -0.374310   -5.610809
     75          1           0       -0.245699   -1.941918   -2.067630
     76          1           0        0.814743   -2.824693   -1.081568
     77          1           0        1.050418   -4.310485   -3.385608
     78          1           0       -0.315852   -3.239909   -3.808701
     79          1           0        0.330501    5.562813   -2.978295
     80          1           0        0.392699    3.956373   -3.805597
     81          1           0        1.540495    5.183840   -4.229010
     82          1           0        4.599254    6.837991   -0.686855
     83          1           0        3.433378    7.681457    0.351702
     84          1           0        3.882670    8.435311   -1.121054
     85          1           0        4.599779    4.289096    3.331875
     86          1           0        7.341849    2.999473    3.091060
     87          1           0        6.080673    6.094646    2.106626
     88          1           0        7.368136    5.177453    2.843662
     89          1           0        6.038794    5.928138    3.800999
     90          1           0        5.501102    1.153349    4.250932
     91          1           0        5.259755    2.776070    5.106617
     92          1           0        7.303264    0.786055    5.798143
     93          1           0        6.954166    2.329321    6.553417
     94          1           0        7.937263    2.336445    5.085694
     95          1           0        7.272854   -2.669378    3.193654
     96          1           0        8.492147   -1.749455    2.326688
     97          1           0        8.076077   -3.456969    1.818362
     98          1           0        4.498797   -3.893144   -2.058718
     99          1           0        1.586151   -6.534764   -0.223632
    100          1           0        2.920234   -7.614844   -0.459932
    101          1           0        1.902851   -7.054517   -1.901844
    102          1           0       -2.479768   -5.896772   -0.657209
    103          1           0       -3.588913   -5.688635   -1.959396
    104          1           0       -3.624453   -3.134939   -0.694126
    105          1           0       -4.420055   -6.448901    1.369992
    106          1           0       -5.245379   -6.462044   -0.257468
    107          1           0       -6.084940   -5.983254    1.229995
    108          1           0       -6.647438   -3.824765    0.951557
    109          1           0       -5.632564   -2.597932    0.462065
    110          1           0       -4.980190   -2.078704    2.792050
    111          1           0       -4.632458   -3.757974    2.988992
    112          1           0       -6.268738   -3.826230    4.410212
    113          1           0       -7.377584   -3.832871    3.143341
    114          1           0       -6.452095   -1.016055    4.068277
    115          1           0       -7.061983   -1.353669    6.000599
    116          1           0       -7.970794   -2.816236    5.845652
    117          1           0       -8.673742   -1.190136    5.442465
    118          1           0       -9.204638   -1.473360    3.175210
    119          1           0       -8.193520   -1.923853    1.966738
    120          1           0       -7.714947    0.767306    3.488278
    121          1           0       -9.239198    0.370319    2.540320
    122          1           0       -6.473997   -0.122436    1.339925
    123          1           0       -6.970782    1.473945    1.703074
    124          1           0       -9.264815    0.610209    0.422393
    125          1           0       -7.104007   -0.986862   -0.670584
    126          1           0       -7.233178    0.314979   -1.860983
    127          1           0       -8.621701   -0.612158   -1.372341
    128          1           0       -7.268034    2.751834   -0.247168
    129          1           0       -8.697306    2.792967    0.708539
    130          1           0       -9.408531    1.864196   -1.836485
    131          1           0       -8.431027    3.448561   -1.878230
    132          1           0      -10.546208    3.325323    0.234204
    133          1           0      -11.280393    2.840646   -1.267180
    134          1           0      -10.351184    5.170755   -2.196688
    135          1           0       -9.205152    5.449920    0.586521
    136          1           0      -10.420841    6.670278    0.117126
    137          1           0       -9.054180    6.553233   -0.833470
    138          1           0      -12.247634    6.204331   -0.661484
    139          1           0      -12.715337    4.563133   -0.560593
    140          1           0      -12.403200    5.311631   -2.199721
 ---------------------------------------------------------------------

 SCF Done:  E(RCAM-B3LYP) =  -3007.14979051     A.U. after   17 cycles

 Excitation energies and oscillator strengths:

 Excited State   1:      Singlet-A      1.6404 eV  755.80 nm  f=0.3925  <S**2>=0.000
     245 -> 248        0.16559
     246 -> 247        0.69048
     245 <- 248        0.10518
 This state for optimization and/or second-order correction.
 Total Energy, E(TD-HF/TD-DFT) =  -3007.08950582
 Copying the excited state density for this state as the 1-particle RhoCI density.

 Excited State   2:      Singlet-A      2.2251 eV  557.21 nm  f=0.1128  <S**2>=0.000
     245 -> 247        0.64110
     246 -> 248       -0.28393

 Excited State   3:      Singlet-A      3.2733 eV  378.77 nm  f=0.0012  <S**2>=0.000
     240 -> 247        0.23496
     240 -> 249       -0.17195
     242 -> 247        0.16278
     243 -> 247        0.58294
     246 -> 248       -0.11707

 Excited State   4:      Singlet-A      3.3918 eV  365.54 nm  f=0.0072  <S**2>=0.000
     240 -> 247        0.48430
     240 -> 249       -0.24980
     242 -> 247        0.18583
     243 -> 247       -0.33298
     246 -> 248        0.10369

 Excited State   5:      Singlet-A      3.4424 eV  360.17 nm  f=0.1324  <S**2>=0.000
     240 -> 247       -0.15352
     242 -> 247        0.51431
     243 -> 247       -0.13404
     245 -> 247       -0.13293
     246 -> 248       -0.39607

 The electronic state is 1-A.
 Alpha  occ. eigenvalues --  -46.89126 -19.25419 -19.22265 -19.19527 -19.19271
 Alpha  occ. eigenvalues --  -19.19032 -19.18817 -14.42580 -14.42388 -14.39571
 Alpha  occ. eigenvalues --  -14.39497 -10.39531 -10.37760 -10.35483 -10.34881
 Alpha  occ. eigenvalues --  -10.32360 -10.32271 -10.31881 -10.31088 -10.30496
 Alpha  occ. eigenvalues --  -10.30183 -10.30173 -10.29688 -10.29268 -10.29013
 Alpha  occ. eigenvalues --  -10.28928 -10.28793 -10.28549 -10.28544 -10.28533
 Alpha  occ. eigenvalues --  -10.27979 -10.27814 -10.27783 -10.27537 -10.27204
 Alpha  occ. eigenvalues --  -10.27122 -10.26998 -10.26959 -10.26899 -10.26740
 Alpha  occ. eigenvalues --  -10.26716 -10.26615 -10.26543 -10.26098 -10.26096
 Alpha  occ. eigenvalues --  -10.25938 -10.25666 -10.25636 -10.25630 -10.25623
 Alpha  occ. eigenvalues --  -10.25538 -10.25446 -10.25404 -10.25222 -10.25075
 Alpha  occ. eigenvalues --  -10.24765 -10.24710 -10.24629 -10.24249 -10.24237
 Alpha  occ. eigenvalues --  -10.24128 -10.24000 -10.23938 -10.23879 -10.23655
 Alpha  occ. eigenvalues --  -10.23602  -3.17661  -1.92546  -1.92087  -1.91987
 Alpha  occ. eigenvalues --   -1.16014  -1.15076  -1.11663  -1.08744  -1.06851
 Alpha  occ. eigenvalues --   -1.06656  -1.05296  -1.04423  -1.03414  -1.00927
 Alpha  occ. eigenvalues --   -0.93171  -0.90273  -0.89975  -0.89010  -0.88828
 Alpha  occ. eigenvalues --   -0.88192  -0.88021  -0.87829  -0.87338  -0.86858
 Alpha  occ. eigenvalues --   -0.86732  -0.86229  -0.84429  -0.84035  -0.83892
 Alpha  occ. eigenvalues --   -0.82190  -0.82063  -0.81190  -0.80708  -0.80459
 Alpha  occ. eigenvalues --   -0.79603  -0.78617  -0.77759  -0.77248  -0.75508
 Alpha  occ. eigenvalues --   -0.75383  -0.75337  -0.75064  -0.74834  -0.73498
 Alpha  occ. eigenvalues --   -0.73400  -0.72667  -0.71836  -0.70825  -0.69292
 Alpha  occ. eigenvalues --   -0.69126  -0.68448  -0.67509  -0.66608  -0.65821
 Alpha  occ. eigenvalues --   -0.65623  -0.64953  -0.64901  -0.64603  -0.64219
 Alpha  occ. eigenvalues --   -0.63480  -0.62877  -0.61919  -0.60743  -0.60466
 Alpha  occ. eigenvalues --   -0.60106  -0.59509  -0.58954  -0.58223  -0.58124
 Alpha  occ. eigenvalues --   -0.57561  -0.57210  -0.56401  -0.55800  -0.55631
 Alpha  occ. eigenvalues --   -0.55401  -0.54251  -0.54104  -0.53749  -0.53597
 Alpha  occ. eigenvalues --   -0.53277  -0.53000  -0.52762  -0.52559  -0.52358
 Alpha  occ. eigenvalues --   -0.52243  -0.52188  -0.51930  -0.51827  -0.51692
 Alpha  occ. eigenvalues --   -0.51346  -0.51141  -0.50994  -0.50862  -0.50694
 Alpha  occ. eigenvalues --   -0.50403  -0.50195  -0.50112  -0.49889  -0.49726
 Alpha  occ. eigenvalues --   -0.49401  -0.49138  -0.48829  -0.48778  -0.48570
 Alpha  occ. eigenvalues --   -0.48526  -0.48277  -0.48017  -0.47807  -0.47497
 Alpha  occ. eigenvalues --   -0.47403  -0.47200  -0.46958  -0.46881  -0.46848
 Alpha  occ. eigenvalues --   -0.46712  -0.46622  -0.46188  -0.46029  -0.45948
 Alpha  occ. eigenvalues --   -0.45848  -0.45531  -0.45450  -0.45124  -0.44769
 Alpha  occ. eigenvalues --   -0.44730  -0.44435  -0.44380  -0.44316  -0.44154
 Alpha  occ. eigenvalues --   -0.43719  -0.43702  -0.43645  -0.43529  -0.43342
 Alpha  occ. eigenvalues --   -0.43084  -0.42977  -0.42434  -0.42257  -0.42105
 Alpha  occ. eigenvalues --   -0.41914  -0.41593  -0.41345  -0.41193  -0.40928
 Alpha  occ. eigenvalues --   -0.40445  -0.40395  -0.40237  -0.39875  -0.39841
 Alpha  occ. eigenvalues --   -0.39630  -0.39277  -0.39189  -0.38944  -0.38692
 Alpha  occ. eigenvalues --   -0.38412  -0.38104  -0.37975  -0.37344  -0.37303
 Alpha  occ. eigenvalues --   -0.37054  -0.36662  -0.36340  -0.36144  -0.35419
 Alpha  occ. eigenvalues --   -0.35121  -0.35012  -0.34639  -0.34488  -0.33873
 Alpha  occ. eigenvalues --   -0.33724  -0.33098  -0.32503  -0.31604  -0.31129
 Alpha  occ. eigenvalues --   -0.30927  -0.30313  -0.30066  -0.29550  -0.24626
 Alpha  occ. eigenvalues --   -0.21292
 Alpha virt. eigenvalues --   -0.09304  -0.01885  -0.00164   0.01306   0.02430
 Alpha virt. eigenvalues --    0.04191   0.05477   0.06145   0.06251   0.06955
 Alpha virt. eigenvalues --    0.08096   0.08312   0.08719   0.09245   0.09394

 Mulliken charges:
               1
     1  Mg   0.833892
     2  C    0.039290
     3  C   -0.062362
     4  C   -0.068917
     5  C   -0.099092
     6  N   -0.290365
     7  C    0.007682
     8  C   -0.030098
     9  C   -0.080280
    10  C    0.070471
    11  C    0.077044
    12  C   -0.011686
    13  C    0.121643
    14  C    0.185786
    15  O   -0.248099
    16  O   -0.348930
    17  N   -0.276033
    18  C    0.050391
    19  C   -0.160793
    20  C   -0.037085
    21  C    0.094696
    22  C    0.118580
    23  C   -0.000922
    24  O   -0.170526
    25  C    0.032242
    26  N   -0.372820
    27  C    0.065128
    28  C   -0.020355
    29  C   -0.030878
    30  C    0.055362
    31  C    0.068808
    32  C    0.032106
    33  C   -0.002131
    34  N   -0.353021
    35  C    0.138483
    36  C   -0.161056
    37  C    0.028712
    38  C    0.088186
    39  C    0.123827
    40  C    0.038884
    41  O   -0.178974
    42  C   -0.057021
    43  C    0.181179
    44  O   -0.178986
    45  O   -0.374903
    46  C    0.179761
    47  C    0.301667
    48  C   -0.142724
    49  C   -0.186445
    50  C    0.076878
    51  C    0.056262
    52  C    0.053630
    53  C    0.034542
    54  C   -0.106824
    55  C    0.057372
    56  C    0.060721
    57  C    0.002469
    58  C    0.055641
    59  C   -0.091812
    60  C    0.073461
    61  C   -0.031025
    62  C    0.064379
    63  C    0.018378
    64  C   -0.147169
    65  C    0.048337
    66  C    0.044207
    67  H   -0.024988
    68  H   -0.043074
    69  H   -0.028040
    70  H   -0.000010
    71  H    0.010006
    72  H    0.019247
    73  H    0.024231
    74  H    0.025969
    75  H    0.015284
    76  H    0.045845
    77  H    0.030680
    78  H    0.028584
    79  H    0.039719
    80  H    0.006098
    81  H    0.029298
    82  H    0.030848
    83  H    0.040253
    84  H    0.028133
    85  H    0.015151
    86  H    0.013716
    87  H    0.004840
    88  H    0.014770
    89  H    0.016653
    90  H    0.028955
    91  H    0.014313
    92  H    0.027426
    93  H    0.018667
    94  H    0.008039
    95  H    0.038753
    96  H    0.017645
    97  H    0.044959
    98  H    0.047885
    99  H    0.040123
   100  H    0.031204
   101  H    0.049029
   102  H    0.049434
   103  H    0.025207
   104  H    0.001512
   105  H    0.032022
   106  H    0.022907
   107  H    0.006935
   108  H   -0.000271
   109  H   -0.002771
   110  H    0.004700
   111  H   -0.005214
   112  H   -0.011823
   113  H   -0.009381
   114  H   -0.007020
   115  H   -0.007389
   116  H    0.014048
   117  H   -0.001503
   118  H   -0.028918
   119  H   -0.011608
   120  H    0.005195
   121  H   -0.007414
   122  H   -0.007995
   123  H   -0.025652
   124  H   -0.013291
   125  H   -0.001155
   126  H    0.017681
   127  H   -0.002612
   128  H   -0.010454
   129  H   -0.014704
   130  H   -0.010809
   131  H    0.006664
   132  H   -0.003535
   133  H   -0.001918
   134  H   -0.005328
   135  H    0.020640
   136  H   -0.006702
   137  H    0.008760
   138  H   -0.012226
   139  H    0.010068
   140  H    0.014942
 Sum of Mulliken charges =  -0.00000

 Dipole moment (field-independent basis, Debye):
    X=              0.8709    Y=              2.7530    Z=              0.7780  Tot=              2.9905
 Quadrupole moment (field-independent basis, Debye-Ang):
   XX=           -378.8853   YY=           -439.7004   ZZ=           -381.6332
   XY=             42.0244   XZ=             11.5357   YZ=             19.1874

 Normal termination of Gaussian 16 at Sat Apr 30 09:54:01 2022.
