 Gaussian 16, Revision A.03,
 Gaussian 16:  ES64L-G16RevA.03 25-Dec-2016

 ---------------------------------
 #p PBE1PBE/Def2SVP td=(nstates=5)
 ---------------------------------

 -----------------------------------------------------
 step_701_chromophore_20 TDDFT with PBE1PBE functional
 -----------------------------------------------------
 Symbolic Z-matrix:
 Charge =  0 Multiplicity = 1

                         Standard orientation:
 ---------------------------------------------------------------------
 Center     Atomic      Atomic             Coordinates (Angstroms)
 Number     Number       Type             X           Y           Z
 ---------------------------------------------------------------------
      1         12           0        4.413339    1.293808   -0.563677
      2          6           0        3.887899   -2.124644   -0.918325
      3          6           0        1.843129    1.875592   -2.815640
      4          6           0        4.091744    4.495664    0.613647
      5          6           0        6.739133    0.551516    1.930772
      6          7           0        2.885912    0.043547   -1.563987
      7          6           0        2.923478   -1.343981   -1.648123
      8          6           0        1.938044   -1.854555   -2.666763
      9          6           0        1.613124   -0.546453   -3.464004
     10          6           0        2.142068    0.577800   -2.560256
     11          6           0        2.263756   -0.462097   -4.904427
     12          6           0        0.592480   -2.636021   -2.131565
     13          6           0        0.159824   -3.807395   -3.008962
     14          6           0       -0.696623   -4.713276   -2.314883
     15          8           0       -0.380665   -5.855410   -1.955216
     16          8           0       -1.990534   -4.266258   -2.116899
     17          7           0        3.212493    2.993321   -1.112343
     18          6           0        2.342180    3.043827   -2.085634
     19          6           0        1.880502    4.400415   -2.260440
     20          6           0        2.584352    5.185229   -1.368685
     21          6           0        3.364671    4.231096   -0.606875
     22          6           0        0.969753    4.782975   -3.391056
     23          6           0        2.596663    6.721818   -1.378383
     24          8           0        1.836028    7.383364   -2.017590
     25          6           0        3.701506    7.455155   -0.679718
     26          7           0        5.240617    2.367015    1.017572
     27          6           0        4.833682    3.679802    1.396670
     28          6           0        5.488487    4.076797    2.738504
     29          6           0        6.278595    2.772706    3.171747
     30          6           0        6.098562    1.791028    1.984088
     31          6           0        6.297289    5.376563    2.897291
     32          6           0        5.936466    2.092442    4.594229
     33          6           0        7.109868    1.838785    5.592666
     34          7           0        5.326839   -0.374419    0.258675
     35          6           0        6.300983   -0.537939    1.210449
     36          6           0        6.713404   -1.917222    1.301897
     37          6           0        5.827701   -2.600042    0.415310
     38          6           0        4.911647   -1.618877   -0.076970
     39          6           0        7.716677   -2.506366    2.211180
     40          6           0        5.463330   -3.881427   -0.099817
     41          8           0        5.927130   -5.020450    0.091937
     42          6           0        4.218139   -3.588367   -1.050245
     43          6           0        3.168349   -4.457230   -0.602616
     44          8           0        2.314505   -4.174895    0.168520
     45          8           0        3.313734   -5.709981   -1.207862
     46          6           0        2.357762   -6.814809   -0.940165
     47          6           0       -2.879425   -5.143954   -1.335913
     48          6           0       -3.789997   -4.197737   -0.513733
     49          6           0       -4.709843   -4.536431    0.409635
     50          6           0       -5.131023   -5.960092    0.703768
     51          6           0       -5.629232   -3.471221    1.114176
     52          6           0       -5.389737   -3.072196    2.609576
     53          6           0       -6.592192   -3.209958    3.572177
     54          6           0       -7.194453   -1.805875    3.949659
     55          6           0       -7.807038   -1.846940    5.375679
     56          6           0       -8.164683   -1.333195    2.882031
     57          6           0       -8.182472    0.165409    2.708711
     58          6           0       -7.367322    0.494955    1.433580
     59          6           0       -8.211845    0.721865    0.164975
     60          6           0       -7.712316   -0.142634   -0.995489
     61          6           0       -8.253953    2.298076   -0.155379
     62          6           0       -9.103694    2.783716   -1.336507
     63          6           0      -10.472157    3.439971   -0.846812
     64          6           0      -10.594442    4.943667   -1.158323
     65          6           0       -9.721285    5.920079   -0.250470
     66          6           0      -12.104323    5.242498   -1.153561
     67          1           0        1.239935    2.158402   -3.680457
     68          1           0        3.994629    5.512737    0.999841
     69          1           0        7.502086    0.383772    2.692794
     70          1           0        2.440386   -2.578427   -3.308588
     71          1           0        0.529249   -0.434057   -3.502618
     72          1           0        2.870560   -1.341935   -5.120868
     73          1           0        2.894174    0.426319   -4.869171
     74          1           0        1.437556   -0.374310   -5.610809
     75          1           0       -0.245699   -1.941918   -2.067630
     76          1           0        0.814743   -2.824693   -1.081568
     77          1           0        1.050418   -4.310485   -3.385608
     78          1           0       -0.315852   -3.239909   -3.808701
     79          1           0        0.330501    5.562813   -2.978295
     80          1           0        0.392699    3.956373   -3.805597
     81          1           0        1.540495    5.183840   -4.229010
     82          1           0        4.599254    6.837991   -0.686855
     83          1           0        3.433378    7.681457    0.351702
     84          1           0        3.882670    8.435311   -1.121054
     85          1           0        4.599779    4.289096    3.331875
     86          1           0        7.341849    2.999473    3.091060
     87          1           0        6.080673    6.094646    2.106626
     88          1           0        7.368136    5.177453    2.843662
     89          1           0        6.038794    5.928138    3.800999
     90          1           0        5.501102    1.153349    4.250932
     91          1           0        5.259755    2.776070    5.106617
     92          1           0        7.303264    0.786055    5.798143
     93          1           0        6.954166    2.329321    6.553417
     94          1           0        7.937263    2.336445    5.085694
     95          1           0        7.272854   -2.669378    3.193654
     96          1           0        8.492147   -1.749455    2.326688
     97          1           0        8.076077   -3.456969    1.818362
     98          1           0        4.498797   -3.893144   -2.058718
     99          1           0        1.586151   -6.534764   -0.223632
    100          1           0        2.920234   -7.614844   -0.459932
    101          1           0        1.902851   -7.054517   -1.901844
    102          1           0       -2.479768   -5.896772   -0.657209
    103          1           0       -3.588913   -5.688635   -1.959396
    104          1           0       -3.624453   -3.134939   -0.694126
    105          1           0       -4.420055   -6.448901    1.369992
    106          1           0       -5.245379   -6.462044   -0.257468
    107          1           0       -6.084940   -5.983254    1.229995
    108          1           0       -6.647438   -3.824765    0.951557
    109          1           0       -5.632564   -2.597932    0.462065
    110          1           0       -4.980190   -2.078704    2.792050
    111          1           0       -4.632458   -3.757974    2.988992
    112          1           0       -6.268738   -3.826230    4.410212
    113          1           0       -7.377584   -3.832871    3.143341
    114          1           0       -6.452095   -1.016055    4.068277
    115          1           0       -7.061983   -1.353669    6.000599
    116          1           0       -7.970794   -2.816236    5.845652
    117          1           0       -8.673742   -1.190136    5.442465
    118          1           0       -9.204638   -1.473360    3.175210
    119          1           0       -8.193520   -1.923853    1.966738
    120          1           0       -7.714947    0.767306    3.488278
    121          1           0       -9.239198    0.370319    2.540320
    122          1           0       -6.473997   -0.122436    1.339925
    123          1           0       -6.970782    1.473945    1.703074
    124          1           0       -9.264815    0.610209    0.422393
    125          1           0       -7.104007   -0.986862   -0.670584
    126          1           0       -7.233178    0.314979   -1.860983
    127          1           0       -8.621701   -0.612158   -1.372341
    128          1           0       -7.268034    2.751834   -0.247168
    129          1           0       -8.697306    2.792967    0.708539
    130          1           0       -9.408531    1.864196   -1.836485
    131          1           0       -8.431027    3.448561   -1.878230
    132          1           0      -10.546208    3.325323    0.234204
    133          1           0      -11.280393    2.840646   -1.267180
    134          1           0      -10.351184    5.170755   -2.196688
    135          1           0       -9.205152    5.449920    0.586521
    136          1           0      -10.420841    6.670278    0.117126
    137          1           0       -9.054180    6.553233   -0.833470
    138          1           0      -12.247634    6.204331   -0.661484
    139          1           0      -12.715337    4.563133   -0.560593
    140          1           0      -12.403200    5.311631   -2.199721
 ---------------------------------------------------------------------

 SCF Done:  E(RPBE1PBE) =  -3005.33751436     A.U. after   15 cycles

 Excitation energies and oscillator strengths:

 Excited State   1:      Singlet-A      1.8018 eV  688.10 nm  f=0.3768  <S**2>=0.000
     245 -> 248        0.15984
     246 -> 247        0.69893
     246 <- 247       -0.12368
 This state for optimization and/or second-order correction.
 Total Energy, E(TD-HF/TD-DFT) =  -3005.27129827
 Copying the excited state density for this state as the 1-particle RhoCI density.

 Excited State   2:      Singlet-A      2.2364 eV  554.38 nm  f=0.1052  <S**2>=0.000
     245 -> 247        0.64898
     246 -> 248       -0.26534

 Excited State   3:      Singlet-A      2.8653 eV  432.71 nm  f=0.0006  <S**2>=0.000
     240 -> 247        0.20682
     241 -> 247        0.28807
     241 -> 249        0.10286
     243 -> 247        0.57301

 Excited State   4:      Singlet-A      3.0342 eV  408.63 nm  f=0.0004  <S**2>=0.000
     241 -> 247        0.47582
     242 -> 247       -0.38327
     243 -> 247       -0.32850

 Excited State   5:      Singlet-A      3.0851 eV  401.88 nm  f=0.0004  <S**2>=0.000
     240 -> 247        0.25935
     241 -> 247        0.27883
     242 -> 247        0.53738
     243 -> 247       -0.17024
     246 -> 248        0.11792

 The electronic state is 1-A.
 Alpha  occ. eigenvalues --  -46.92517 -19.26057 -19.22869 -19.19749 -19.19390
 Alpha  occ. eigenvalues --  -19.19122 -19.19101 -14.42072 -14.41974 -14.39171
 Alpha  occ. eigenvalues --  -14.39155 -10.36471 -10.34603 -10.32505 -10.32133
 Alpha  occ. eigenvalues --  -10.29995 -10.29681 -10.29567 -10.28917 -10.28286
 Alpha  occ. eigenvalues --  -10.28039 -10.27716 -10.27249 -10.26885 -10.26600
 Alpha  occ. eigenvalues --  -10.26452 -10.26408 -10.26407 -10.26392 -10.26307
 Alpha  occ. eigenvalues --  -10.25818 -10.25301 -10.25244 -10.25164 -10.24822
 Alpha  occ. eigenvalues --  -10.24760 -10.24692 -10.24683 -10.24653 -10.24253
 Alpha  occ. eigenvalues --  -10.24226 -10.24209 -10.23966 -10.23920 -10.23530
 Alpha  occ. eigenvalues --  -10.23511 -10.23359 -10.23308 -10.23194 -10.23140
 Alpha  occ. eigenvalues --  -10.23035 -10.22952 -10.22900 -10.22787 -10.22597
 Alpha  occ. eigenvalues --  -10.22319 -10.22287 -10.22033 -10.21793 -10.21775
 Alpha  occ. eigenvalues --  -10.21512 -10.21505 -10.21382 -10.21287 -10.21188
 Alpha  occ. eigenvalues --  -10.21167  -3.14630  -1.87455  -1.86976  -1.86878
 Alpha  occ. eigenvalues --   -1.10765  -1.09691  -1.06535  -1.03348  -1.01650
 Alpha  occ. eigenvalues --   -1.01409  -1.00125  -0.99008  -0.98011  -0.95482
 Alpha  occ. eigenvalues --   -0.87436  -0.84427  -0.84050  -0.83350  -0.82942
 Alpha  occ. eigenvalues --   -0.82306  -0.82291  -0.82131  -0.81614  -0.81217
 Alpha  occ. eigenvalues --   -0.80959  -0.80501  -0.78734  -0.78251  -0.78067
 Alpha  occ. eigenvalues --   -0.76441  -0.76224  -0.75447  -0.75013  -0.74689
 Alpha  occ. eigenvalues --   -0.73761  -0.72886  -0.72084  -0.71591  -0.69862
 Alpha  occ. eigenvalues --   -0.69518  -0.69455  -0.69326  -0.68940  -0.67883
 Alpha  occ. eigenvalues --   -0.67599  -0.66995  -0.66271  -0.65104  -0.63734
 Alpha  occ. eigenvalues --   -0.63460  -0.62651  -0.62031  -0.60812  -0.60270
 Alpha  occ. eigenvalues --   -0.60057  -0.59467  -0.59185  -0.59135  -0.58616
 Alpha  occ. eigenvalues --   -0.57671  -0.57039  -0.56077  -0.55226  -0.54939
 Alpha  occ. eigenvalues --   -0.54619  -0.54113  -0.53535  -0.52795  -0.52523
 Alpha  occ. eigenvalues --   -0.52052  -0.51714  -0.51004  -0.50309  -0.50156
 Alpha  occ. eigenvalues --   -0.49846  -0.48736  -0.48611  -0.48289  -0.48045
 Alpha  occ. eigenvalues --   -0.47782  -0.47458  -0.47328  -0.47082  -0.46888
 Alpha  occ. eigenvalues --   -0.46713  -0.46643  -0.46482  -0.46350  -0.46151
 Alpha  occ. eigenvalues --   -0.45809  -0.45645  -0.45554  -0.45386  -0.45339
 Alpha  occ. eigenvalues --   -0.44923  -0.44759  -0.44705  -0.44473  -0.44290
 Alpha  occ. eigenvalues --   -0.44069  -0.43746  -0.43427  -0.43347  -0.43209
 Alpha  occ. eigenvalues --   -0.43125  -0.42887  -0.42630  -0.42392  -0.42143
 Alpha  occ. eigenvalues --   -0.42066  -0.41932  -0.41543  -0.41516  -0.41460
 Alpha  occ. eigenvalues --   -0.41391  -0.41348  -0.40921  -0.40649  -0.40618
 Alpha  occ. eigenvalues --   -0.40399  -0.40264  -0.40053  -0.39911  -0.39508
 Alpha  occ. eigenvalues --   -0.39434  -0.39209  -0.39136  -0.39082  -0.38895
 Alpha  occ. eigenvalues --   -0.38525  -0.38431  -0.38366  -0.38245  -0.38179
 Alpha  occ. eigenvalues --   -0.37795  -0.37782  -0.37165  -0.37133  -0.36949
 Alpha  occ. eigenvalues --   -0.36797  -0.36510  -0.36191  -0.35947  -0.35823
 Alpha  occ. eigenvalues --   -0.35288  -0.35205  -0.35005  -0.34626  -0.34611
 Alpha  occ. eigenvalues --   -0.34550  -0.34201  -0.33987  -0.33897  -0.33433
 Alpha  occ. eigenvalues --   -0.33198  -0.33098  -0.32775  -0.32370  -0.32165
 Alpha  occ. eigenvalues --   -0.31889  -0.31452  -0.31409  -0.31038  -0.30256
 Alpha  occ. eigenvalues --   -0.29947  -0.29913  -0.29818  -0.29406  -0.28964
 Alpha  occ. eigenvalues --   -0.28523  -0.28288  -0.27418  -0.27260  -0.26091
 Alpha  occ. eigenvalues --   -0.25960  -0.25763  -0.25522  -0.24799  -0.21520
 Alpha  occ. eigenvalues --   -0.18954
 Alpha virt. eigenvalues --   -0.11712  -0.05450  -0.04305  -0.02066  -0.01439
 Alpha virt. eigenvalues --   -0.00299   0.01137   0.01785   0.01842   0.03231
 Alpha virt. eigenvalues --    0.04167   0.04288   0.05163   0.05989   0.06121

 Mulliken charges:
               1
     1  Mg   0.977073
     2  C    0.032033
     3  C   -0.048675
     4  C   -0.071684
     5  C   -0.089928
     6  N   -0.393844
     7  C    0.078308
     8  C   -0.087947
     9  C   -0.155896
    10  C    0.098959
    11  C    0.019457
    12  C   -0.057462
    13  C    0.037627
    14  C    0.255674
    15  O   -0.282810
    16  O   -0.380813
    17  N   -0.397389
    18  C    0.088492
    19  C   -0.187173
    20  C   -0.083786
    21  C    0.123772
    22  C    0.058817
    23  C    0.058540
    24  O   -0.207380
    25  C   -0.047364
    26  N   -0.471173
    27  C    0.101753
    28  C   -0.090102
    29  C   -0.103233
    30  C    0.088566
    31  C    0.009098
    32  C   -0.030264
    33  C   -0.075075
    34  N   -0.473074
    35  C    0.150544
    36  C   -0.175178
    37  C   -0.013562
    38  C    0.125916
    39  C    0.070598
    40  C    0.125761
    41  O   -0.224673
    42  C   -0.168891
    43  C    0.279512
    44  O   -0.217280
    45  O   -0.408258
    46  C    0.127636
    47  C    0.260988
    48  C   -0.154645
    49  C   -0.223701
    50  C    0.012912
    51  C   -0.015429
    52  C   -0.009318
    53  C   -0.018351
    54  C   -0.197241
    55  C    0.000001
    56  C    0.011849
    57  C   -0.064769
    58  C   -0.002294
    59  C   -0.175776
    60  C    0.006203
    61  C   -0.081419
    62  C   -0.001473
    63  C   -0.039298
    64  C   -0.236549
    65  C   -0.012057
    66  C   -0.016546
    67  H    0.005532
    68  H   -0.007157
    69  H    0.004514
    70  H    0.038298
    71  H    0.046142
    72  H    0.046872
    73  H    0.052478
    74  H    0.052927
    75  H    0.046697
    76  H    0.079630
    77  H    0.062352
    78  H    0.061461
    79  H    0.068002
    80  H    0.033646
    81  H    0.058499
    82  H    0.059416
    83  H    0.066825
    84  H    0.056603
    85  H    0.052934
    86  H    0.051128
    87  H    0.032369
    88  H    0.042089
    89  H    0.044161
    90  H    0.063309
    91  H    0.046983
    92  H    0.054039
    93  H    0.046225
    94  H    0.035817
    95  H    0.066062
    96  H    0.044305
    97  H    0.071496
    98  H    0.083395
    99  H    0.060786
   100  H    0.053415
   101  H    0.070183
   102  H    0.074896
   103  H    0.052492
   104  H    0.031382
   105  H    0.059188
   106  H    0.050122
   107  H    0.034030
   108  H    0.031428
   109  H    0.035207
   110  H    0.035902
   111  H    0.029535
   112  H    0.020374
   113  H    0.022791
   114  H    0.030117
   115  H    0.020843
   116  H    0.040329
   117  H    0.026229
   118  H    0.004634
   119  H    0.022069
   120  H    0.035926
   121  H    0.024696
   122  H    0.026683
   123  H    0.008660
   124  H    0.025007
   125  H    0.032982
   126  H    0.044163
   127  H    0.025251
   128  H    0.021803
   129  H    0.019609
   130  H    0.025103
   131  H    0.038059
   132  H    0.028691
   133  H    0.030425
   134  H    0.032783
   135  H    0.047498
   136  H    0.020381
   137  H    0.035941
   138  H    0.015552
   139  H    0.036924
   140  H    0.042555
 Sum of Mulliken charges =  -0.00000

 Dipole moment (field-independent basis, Debye):
    X=              0.7775    Y=              3.1083    Z=              0.7398  Tot=              3.2884
 Quadrupole moment (field-independent basis, Debye-Ang):
   XX=           -376.0678   YY=           -435.7250   ZZ=           -377.5248
   XY=             43.3694   XZ=             12.2967   YZ=             19.1874

 Normal termination of Gaussian 16 at Sat Apr 30 10:13:10 2022.
