 Gaussian 16, Revision A.03,
 Gaussian 16:  ES64L-G16RevA.03 25-Dec-2016

 --------------------------------
 #p wB97XD/Def2SVP td=(nstates=5)
 --------------------------------

 ----------------------------------------------------
 step_701_chromophore_20 TDDFT with wB97XD functional
 ----------------------------------------------------
 Symbolic Z-matrix:
 Charge =  0 Multiplicity = 1

                         Standard orientation:
 ---------------------------------------------------------------------
 Center     Atomic      Atomic             Coordinates (Angstroms)
 Number     Number       Type             X           Y           Z
 ---------------------------------------------------------------------
      1         12           0        4.413339    1.293808   -0.563677
      2          6           0        3.887899   -2.124644   -0.918325
      3          6           0        1.843129    1.875592   -2.815640
      4          6           0        4.091744    4.495664    0.613647
      5          6           0        6.739133    0.551516    1.930772
      6          7           0        2.885912    0.043547   -1.563987
      7          6           0        2.923478   -1.343981   -1.648123
      8          6           0        1.938044   -1.854555   -2.666763
      9          6           0        1.613124   -0.546453   -3.464004
     10          6           0        2.142068    0.577800   -2.560256
     11          6           0        2.263756   -0.462097   -4.904427
     12          6           0        0.592480   -2.636021   -2.131565
     13          6           0        0.159824   -3.807395   -3.008962
     14          6           0       -0.696623   -4.713276   -2.314883
     15          8           0       -0.380665   -5.855410   -1.955216
     16          8           0       -1.990534   -4.266258   -2.116899
     17          7           0        3.212493    2.993321   -1.112343
     18          6           0        2.342180    3.043827   -2.085634
     19          6           0        1.880502    4.400415   -2.260440
     20          6           0        2.584352    5.185229   -1.368685
     21          6           0        3.364671    4.231096   -0.606875
     22          6           0        0.969753    4.782975   -3.391056
     23          6           0        2.596663    6.721818   -1.378383
     24          8           0        1.836028    7.383364   -2.017590
     25          6           0        3.701506    7.455155   -0.679718
     26          7           0        5.240617    2.367015    1.017572
     27          6           0        4.833682    3.679802    1.396670
     28          6           0        5.488487    4.076797    2.738504
     29          6           0        6.278595    2.772706    3.171747
     30          6           0        6.098562    1.791028    1.984088
     31          6           0        6.297289    5.376563    2.897291
     32          6           0        5.936466    2.092442    4.594229
     33          6           0        7.109868    1.838785    5.592666
     34          7           0        5.326839   -0.374419    0.258675
     35          6           0        6.300983   -0.537939    1.210449
     36          6           0        6.713404   -1.917222    1.301897
     37          6           0        5.827701   -2.600042    0.415310
     38          6           0        4.911647   -1.618877   -0.076970
     39          6           0        7.716677   -2.506366    2.211180
     40          6           0        5.463330   -3.881427   -0.099817
     41          8           0        5.927130   -5.020450    0.091937
     42          6           0        4.218139   -3.588367   -1.050245
     43          6           0        3.168349   -4.457230   -0.602616
     44          8           0        2.314505   -4.174895    0.168520
     45          8           0        3.313734   -5.709981   -1.207862
     46          6           0        2.357762   -6.814809   -0.940165
     47          6           0       -2.879425   -5.143954   -1.335913
     48          6           0       -3.789997   -4.197737   -0.513733
     49          6           0       -4.709843   -4.536431    0.409635
     50          6           0       -5.131023   -5.960092    0.703768
     51          6           0       -5.629232   -3.471221    1.114176
     52          6           0       -5.389737   -3.072196    2.609576
     53          6           0       -6.592192   -3.209958    3.572177
     54          6           0       -7.194453   -1.805875    3.949659
     55          6           0       -7.807038   -1.846940    5.375679
     56          6           0       -8.164683   -1.333195    2.882031
     57          6           0       -8.182472    0.165409    2.708711
     58          6           0       -7.367322    0.494955    1.433580
     59          6           0       -8.211845    0.721865    0.164975
     60          6           0       -7.712316   -0.142634   -0.995489
     61          6           0       -8.253953    2.298076   -0.155379
     62          6           0       -9.103694    2.783716   -1.336507
     63          6           0      -10.472157    3.439971   -0.846812
     64          6           0      -10.594442    4.943667   -1.158323
     65          6           0       -9.721285    5.920079   -0.250470
     66          6           0      -12.104323    5.242498   -1.153561
     67          1           0        1.239935    2.158402   -3.680457
     68          1           0        3.994629    5.512737    0.999841
     69          1           0        7.502086    0.383772    2.692794
     70          1           0        2.440386   -2.578427   -3.308588
     71          1           0        0.529249   -0.434057   -3.502618
     72          1           0        2.870560   -1.341935   -5.120868
     73          1           0        2.894174    0.426319   -4.869171
     74          1           0        1.437556   -0.374310   -5.610809
     75          1           0       -0.245699   -1.941918   -2.067630
     76          1           0        0.814743   -2.824693   -1.081568
     77          1           0        1.050418   -4.310485   -3.385608
     78          1           0       -0.315852   -3.239909   -3.808701
     79          1           0        0.330501    5.562813   -2.978295
     80          1           0        0.392699    3.956373   -3.805597
     81          1           0        1.540495    5.183840   -4.229010
     82          1           0        4.599254    6.837991   -0.686855
     83          1           0        3.433378    7.681457    0.351702
     84          1           0        3.882670    8.435311   -1.121054
     85          1           0        4.599779    4.289096    3.331875
     86          1           0        7.341849    2.999473    3.091060
     87          1           0        6.080673    6.094646    2.106626
     88          1           0        7.368136    5.177453    2.843662
     89          1           0        6.038794    5.928138    3.800999
     90          1           0        5.501102    1.153349    4.250932
     91          1           0        5.259755    2.776070    5.106617
     92          1           0        7.303264    0.786055    5.798143
     93          1           0        6.954166    2.329321    6.553417
     94          1           0        7.937263    2.336445    5.085694
     95          1           0        7.272854   -2.669378    3.193654
     96          1           0        8.492147   -1.749455    2.326688
     97          1           0        8.076077   -3.456969    1.818362
     98          1           0        4.498797   -3.893144   -2.058718
     99          1           0        1.586151   -6.534764   -0.223632
    100          1           0        2.920234   -7.614844   -0.459932
    101          1           0        1.902851   -7.054517   -1.901844
    102          1           0       -2.479768   -5.896772   -0.657209
    103          1           0       -3.588913   -5.688635   -1.959396
    104          1           0       -3.624453   -3.134939   -0.694126
    105          1           0       -4.420055   -6.448901    1.369992
    106          1           0       -5.245379   -6.462044   -0.257468
    107          1           0       -6.084940   -5.983254    1.229995
    108          1           0       -6.647438   -3.824765    0.951557
    109          1           0       -5.632564   -2.597932    0.462065
    110          1           0       -4.980190   -2.078704    2.792050
    111          1           0       -4.632458   -3.757974    2.988992
    112          1           0       -6.268738   -3.826230    4.410212
    113          1           0       -7.377584   -3.832871    3.143341
    114          1           0       -6.452095   -1.016055    4.068277
    115          1           0       -7.061983   -1.353669    6.000599
    116          1           0       -7.970794   -2.816236    5.845652
    117          1           0       -8.673742   -1.190136    5.442465
    118          1           0       -9.204638   -1.473360    3.175210
    119          1           0       -8.193520   -1.923853    1.966738
    120          1           0       -7.714947    0.767306    3.488278
    121          1           0       -9.239198    0.370319    2.540320
    122          1           0       -6.473997   -0.122436    1.339925
    123          1           0       -6.970782    1.473945    1.703074
    124          1           0       -9.264815    0.610209    0.422393
    125          1           0       -7.104007   -0.986862   -0.670584
    126          1           0       -7.233178    0.314979   -1.860983
    127          1           0       -8.621701   -0.612158   -1.372341
    128          1           0       -7.268034    2.751834   -0.247168
    129          1           0       -8.697306    2.792967    0.708539
    130          1           0       -9.408531    1.864196   -1.836485
    131          1           0       -8.431027    3.448561   -1.878230
    132          1           0      -10.546208    3.325323    0.234204
    133          1           0      -11.280393    2.840646   -1.267180
    134          1           0      -10.351184    5.170755   -2.196688
    135          1           0       -9.205152    5.449920    0.586521
    136          1           0      -10.420841    6.670278    0.117126
    137          1           0       -9.054180    6.553233   -0.833470
    138          1           0      -12.247634    6.204331   -0.661484
    139          1           0      -12.715337    4.563133   -0.560593
    140          1           0      -12.403200    5.311631   -2.199721
 ---------------------------------------------------------------------

 SCF Done:  E(RwB97XD) =  -3007.84680639     A.U. after   19 cycles

 Excitation energies and oscillator strengths:

 Excited State   1:      Singlet-A      1.5824 eV  783.50 nm  f=0.3918  <S**2>=0.000
     245 -> 248        0.17125
     246 -> 247        0.68778
     245 <- 248        0.11404
 This state for optimization and/or second-order correction.
 Total Energy, E(TD-HF/TD-DFT) =  -3007.78865304
 Copying the excited state density for this state as the 1-particle RhoCI density.

 Excited State   2:      Singlet-A      2.1700 eV  571.36 nm  f=0.1096  <S**2>=0.000
     245 -> 247        0.63917
     246 -> 248       -0.28611

 Excited State   3:      Singlet-A      3.2855 eV  377.37 nm  f=0.0038  <S**2>=0.000
     240 -> 247        0.16526
     240 -> 249        0.15993
     242 -> 247        0.23117
     243 -> 247        0.57457
     246 -> 248       -0.15085

 Excited State   4:      Singlet-A      3.4160 eV  362.95 nm  f=0.0258  <S**2>=0.000
     240 -> 247        0.51321
     240 -> 249        0.28737
     243 -> 247       -0.24915
     246 -> 248        0.17732

 Excited State   5:      Singlet-A      3.4774 eV  356.54 nm  f=0.2004  <S**2>=0.000
     242 -> 247        0.44488
     243 -> 247       -0.27343
     245 -> 247       -0.15893
     246 -> 248       -0.42320

 The electronic state is 1-A.
 Alpha  occ. eigenvalues --  -46.95476 -19.30651 -19.27521 -19.24453 -19.24385
 Alpha  occ. eigenvalues --  -19.23950 -19.23775 -14.47191 -14.47031 -14.44193
 Alpha  occ. eigenvalues --  -14.44037 -10.43317 -10.41577 -10.39559 -10.38790
 Alpha  occ. eigenvalues --  -10.36429 -10.36169 -10.35922 -10.35091 -10.34478
 Alpha  occ. eigenvalues --  -10.34222 -10.34167 -10.33740 -10.33119 -10.33040
 Alpha  occ. eigenvalues --  -10.32973 -10.32881 -10.32711 -10.32598 -10.32578
 Alpha  occ. eigenvalues --  -10.32023 -10.31840 -10.31690 -10.31538 -10.31150
 Alpha  occ. eigenvalues --  -10.31144 -10.31047 -10.30976 -10.30958 -10.30606
 Alpha  occ. eigenvalues --  -10.30566 -10.30550 -10.30526 -10.30130 -10.30048
 Alpha  occ. eigenvalues --  -10.29919 -10.29640 -10.29589 -10.29569 -10.29477
 Alpha  occ. eigenvalues --  -10.29426 -10.29355 -10.29344 -10.29104 -10.28986
 Alpha  occ. eigenvalues --  -10.28683 -10.28633 -10.28440 -10.28146 -10.28137
 Alpha  occ. eigenvalues --  -10.27942 -10.27859 -10.27813 -10.27686 -10.27558
 Alpha  occ. eigenvalues --  -10.27514  -3.21454  -1.95026  -1.94548  -1.94448
 Alpha  occ. eigenvalues --   -1.18179  -1.17211  -1.13834  -1.11025  -1.09036
 Alpha  occ. eigenvalues --   -1.08874  -1.07300  -1.06486  -1.05436  -1.02913
 Alpha  occ. eigenvalues --   -0.95187  -0.92113  -0.91720  -0.90935  -0.90621
 Alpha  occ. eigenvalues --   -0.89956  -0.89897  -0.89766  -0.89301  -0.88683
 Alpha  occ. eigenvalues --   -0.88597  -0.88118  -0.86378  -0.85890  -0.85718
 Alpha  occ. eigenvalues --   -0.84082  -0.83889  -0.83111  -0.82658  -0.82346
 Alpha  occ. eigenvalues --   -0.81431  -0.80563  -0.79670  -0.79157  -0.77432
 Alpha  occ. eigenvalues --   -0.77200  -0.77143  -0.77009  -0.76619  -0.75461
 Alpha  occ. eigenvalues --   -0.75247  -0.74606  -0.73806  -0.72738  -0.71298
 Alpha  occ. eigenvalues --   -0.71060  -0.70295  -0.69476  -0.68453  -0.67784
 Alpha  occ. eigenvalues --   -0.67565  -0.66875  -0.66793  -0.66609  -0.66155
 Alpha  occ. eigenvalues --   -0.65306  -0.64684  -0.63722  -0.62720  -0.62408
 Alpha  occ. eigenvalues --   -0.62109  -0.61521  -0.60930  -0.60191  -0.60067
 Alpha  occ. eigenvalues --   -0.59558  -0.59154  -0.58353  -0.57739  -0.57598
 Alpha  occ. eigenvalues --   -0.57309  -0.56170  -0.56031  -0.55660  -0.55477
 Alpha  occ. eigenvalues --   -0.55185  -0.54904  -0.54696  -0.54442  -0.54260
 Alpha  occ. eigenvalues --   -0.54109  -0.54077  -0.53849  -0.53705  -0.53560
 Alpha  occ. eigenvalues --   -0.53325  -0.53004  -0.52914  -0.52807  -0.52605
 Alpha  occ. eigenvalues --   -0.52274  -0.52097  -0.52030  -0.51808  -0.51634
 Alpha  occ. eigenvalues --   -0.51323  -0.51065  -0.50746  -0.50648  -0.50495
 Alpha  occ. eigenvalues --   -0.50406  -0.50169  -0.49918  -0.49667  -0.49424
 Alpha  occ. eigenvalues --   -0.49317  -0.49111  -0.48804  -0.48792  -0.48739
 Alpha  occ. eigenvalues --   -0.48619  -0.48557  -0.48109  -0.47894  -0.47865
 Alpha  occ. eigenvalues --   -0.47669  -0.47471  -0.47289  -0.47038  -0.46703
 Alpha  occ. eigenvalues --   -0.46635  -0.46293  -0.46274  -0.46236  -0.46055
 Alpha  occ. eigenvalues --   -0.45710  -0.45563  -0.45546  -0.45457  -0.45252
 Alpha  occ. eigenvalues --   -0.44962  -0.44942  -0.44282  -0.44221  -0.44033
 Alpha  occ. eigenvalues --   -0.43836  -0.43557  -0.43225  -0.43042  -0.42829
 Alpha  occ. eigenvalues --   -0.42307  -0.42276  -0.42090  -0.41831  -0.41673
 Alpha  occ. eigenvalues --   -0.41541  -0.41218  -0.41014  -0.40867  -0.40519
 Alpha  occ. eigenvalues --   -0.40258  -0.40054  -0.39829  -0.39341  -0.39207
 Alpha  occ. eigenvalues --   -0.38920  -0.38491  -0.38336  -0.38073  -0.37244
 Alpha  occ. eigenvalues --   -0.37103  -0.36845  -0.36642  -0.36320  -0.35844
 Alpha  occ. eigenvalues --   -0.35653  -0.35297  -0.34321  -0.33814  -0.33170
 Alpha  occ. eigenvalues --   -0.32835  -0.32463  -0.32252  -0.31583  -0.26555
 Alpha  occ. eigenvalues --   -0.23087
 Alpha virt. eigenvalues --   -0.07655   0.00032   0.01918   0.04467   0.04587
 Alpha virt. eigenvalues --    0.06444   0.07891   0.08462   0.08491   0.09769
 Alpha virt. eigenvalues --    0.10737   0.11086   0.11800   0.12709   0.12847

 Mulliken charges:
               1
     1  Mg   0.968243
     2  C    0.028584
     3  C   -0.068218
     4  C   -0.079892
     5  C   -0.109881
     6  N   -0.359481
     7  C    0.047669
     8  C   -0.066028
     9  C   -0.130504
    10  C    0.089451
    11  C    0.030526
    12  C   -0.048038
    13  C    0.055472
    14  C    0.244448
    15  O   -0.279178
    16  O   -0.379408
    17  N   -0.360001
    18  C    0.071997
    19  C   -0.178925
    20  C   -0.079673
    21  C    0.117377
    22  C    0.071050
    23  C    0.050776
    24  O   -0.203114
    25  C   -0.032515
    26  N   -0.443521
    27  C    0.088913
    28  C   -0.068921
    29  C   -0.077238
    30  C    0.083024
    31  C    0.022052
    32  C   -0.014977
    33  C   -0.057315
    34  N   -0.438904
    35  C    0.148205
    36  C   -0.170495
    37  C   -0.013865
    38  C    0.115619
    39  C    0.080289
    40  C    0.110121
    41  O   -0.213632
    42  C   -0.129203
    43  C    0.252126
    44  O   -0.209140
    45  O   -0.406424
    46  C    0.141172
    47  C    0.273928
    48  C   -0.162086
    49  C   -0.213944
    50  C    0.026234
    51  C    0.014472
    52  C    0.004983
    53  C   -0.003591
    54  C   -0.164081
    55  C    0.009402
    56  C    0.024428
    57  C   -0.045331
    58  C    0.017544
    59  C   -0.146631
    60  C    0.021461
    61  C   -0.061097
    62  C    0.012331
    63  C   -0.020770
    64  C   -0.210569
    65  C    0.000113
    66  C   -0.003108
    67  H   -0.000597
    68  H   -0.020832
    69  H   -0.001441
    70  H    0.021941
    71  H    0.035704
    72  H    0.041176
    73  H    0.044879
    74  H    0.048040
    75  H    0.040379
    76  H    0.070327
    77  H    0.056658
    78  H    0.056002
    79  H    0.062836
    80  H    0.027829
    81  H    0.053123
    82  H    0.050895
    83  H    0.062589
    84  H    0.054700
    85  H    0.042344
    86  H    0.035865
    87  H    0.024906
    88  H    0.035836
    89  H    0.039175
    90  H    0.052798
    91  H    0.039690
    92  H    0.048613
    93  H    0.041351
    94  H    0.027776
    95  H    0.062465
    96  H    0.038753
    97  H    0.069317
    98  H    0.078262
    99  H    0.057333
   100  H    0.050557
   101  H    0.067122
   102  H    0.070598
   103  H    0.046715
   104  H    0.028791
   105  H    0.054005
   106  H    0.044041
   107  H    0.028666
   108  H    0.020339
   109  H    0.018805
   110  H    0.028301
   111  H    0.021215
   112  H    0.013730
   113  H    0.012282
   114  H    0.015404
   115  H    0.015072
   116  H    0.035509
   117  H    0.019853
   118  H   -0.004202
   119  H    0.009060
   120  H    0.029116
   121  H    0.016092
   122  H    0.012993
   123  H   -0.001474
   124  H    0.009752
   125  H    0.021580
   126  H    0.039722
   127  H    0.019110
   128  H    0.013518
   129  H    0.002994
   130  H    0.014555
   131  H    0.031517
   132  H    0.016986
   133  H    0.022849
   134  H    0.022226
   135  H    0.041600
   136  H    0.013023
   137  H    0.030804
   138  H    0.008264
   139  H    0.030591
   140  H    0.037318
 Sum of Mulliken charges =  -0.00000

 Dipole moment (field-independent basis, Debye):
    X=              0.9585    Y=              2.7208    Z=              0.7994  Tot=              2.9934
 Quadrupole moment (field-independent basis, Debye-Ang):
   XX=           -374.2443   YY=           -435.4333   ZZ=           -377.4184
   XY=             41.8973   XZ=             12.2083   YZ=             19.2428

 Normal termination of Gaussian 16 at Sat Apr 30 10:38:01 2022.
