 Gaussian 16, Revision A.03,
 Gaussian 16:  ES64L-G16RevA.03 25-Dec-2016

 --------------------
 #p ZINDO=(nstates=5)
 --------------------

 -----------------------------
 step_701_chromophore_20 ZINDO
 -----------------------------
 Symbolic Z-matrix:
 Charge =  0 Multiplicity = 1

                         Standard orientation:
 ---------------------------------------------------------------------
 Center     Atomic      Atomic             Coordinates (Angstroms)
 Number     Number       Type             X           Y           Z
 ---------------------------------------------------------------------
      1         12           0        4.413339    1.293808   -0.563677
      2          6           0        3.887899   -2.124644   -0.918325
      3          6           0        1.843129    1.875592   -2.815640
      4          6           0        4.091744    4.495664    0.613647
      5          6           0        6.739133    0.551516    1.930772
      6          7           0        2.885912    0.043547   -1.563987
      7          6           0        2.923478   -1.343981   -1.648123
      8          6           0        1.938044   -1.854555   -2.666763
      9          6           0        1.613124   -0.546453   -3.464004
     10          6           0        2.142068    0.577800   -2.560256
     11          6           0        2.263756   -0.462097   -4.904427
     12          6           0        0.592480   -2.636021   -2.131565
     13          6           0        0.159824   -3.807395   -3.008962
     14          6           0       -0.696623   -4.713276   -2.314883
     15          8           0       -0.380665   -5.855410   -1.955216
     16          8           0       -1.990534   -4.266258   -2.116899
     17          7           0        3.212493    2.993321   -1.112343
     18          6           0        2.342180    3.043827   -2.085634
     19          6           0        1.880502    4.400415   -2.260440
     20          6           0        2.584352    5.185229   -1.368685
     21          6           0        3.364671    4.231096   -0.606875
     22          6           0        0.969753    4.782975   -3.391056
     23          6           0        2.596663    6.721818   -1.378383
     24          8           0        1.836028    7.383364   -2.017590
     25          6           0        3.701506    7.455155   -0.679718
     26          7           0        5.240617    2.367015    1.017572
     27          6           0        4.833682    3.679802    1.396670
     28          6           0        5.488487    4.076797    2.738504
     29          6           0        6.278595    2.772706    3.171747
     30          6           0        6.098562    1.791028    1.984088
     31          6           0        6.297289    5.376563    2.897291
     32          6           0        5.936466    2.092442    4.594229
     33          6           0        7.109868    1.838785    5.592666
     34          7           0        5.326839   -0.374419    0.258675
     35          6           0        6.300983   -0.537939    1.210449
     36          6           0        6.713404   -1.917222    1.301897
     37          6           0        5.827701   -2.600042    0.415310
     38          6           0        4.911647   -1.618877   -0.076970
     39          6           0        7.716677   -2.506366    2.211180
     40          6           0        5.463330   -3.881427   -0.099817
     41          8           0        5.927130   -5.020450    0.091937
     42          6           0        4.218139   -3.588367   -1.050245
     43          6           0        3.168349   -4.457230   -0.602616
     44          8           0        2.314505   -4.174895    0.168520
     45          8           0        3.313734   -5.709981   -1.207862
     46          6           0        2.357762   -6.814809   -0.940165
     47          6           0       -2.879425   -5.143954   -1.335913
     48          6           0       -3.789997   -4.197737   -0.513733
     49          6           0       -4.709843   -4.536431    0.409635
     50          6           0       -5.131023   -5.960092    0.703768
     51          6           0       -5.629232   -3.471221    1.114176
     52          6           0       -5.389737   -3.072196    2.609576
     53          6           0       -6.592192   -3.209958    3.572177
     54          6           0       -7.194453   -1.805875    3.949659
     55          6           0       -7.807038   -1.846940    5.375679
     56          6           0       -8.164683   -1.333195    2.882031
     57          6           0       -8.182472    0.165409    2.708711
     58          6           0       -7.367322    0.494955    1.433580
     59          6           0       -8.211845    0.721865    0.164975
     60          6           0       -7.712316   -0.142634   -0.995489
     61          6           0       -8.253953    2.298076   -0.155379
     62          6           0       -9.103694    2.783716   -1.336507
     63          6           0      -10.472157    3.439971   -0.846812
     64          6           0      -10.594442    4.943667   -1.158323
     65          6           0       -9.721285    5.920079   -0.250470
     66          6           0      -12.104323    5.242498   -1.153561
     67          1           0        1.239935    2.158402   -3.680457
     68          1           0        3.994629    5.512737    0.999841
     69          1           0        7.502086    0.383772    2.692794
     70          1           0        2.440386   -2.578427   -3.308588
     71          1           0        0.529249   -0.434057   -3.502618
     72          1           0        2.870560   -1.341935   -5.120868
     73          1           0        2.894174    0.426319   -4.869171
     74          1           0        1.437556   -0.374310   -5.610809
     75          1           0       -0.245699   -1.941918   -2.067630
     76          1           0        0.814743   -2.824693   -1.081568
     77          1           0        1.050418   -4.310485   -3.385608
     78          1           0       -0.315852   -3.239909   -3.808701
     79          1           0        0.330501    5.562813   -2.978295
     80          1           0        0.392699    3.956373   -3.805597
     81          1           0        1.540495    5.183840   -4.229010
     82          1           0        4.599254    6.837991   -0.686855
     83          1           0        3.433378    7.681457    0.351702
     84          1           0        3.882670    8.435311   -1.121054
     85          1           0        4.599779    4.289096    3.331875
     86          1           0        7.341849    2.999473    3.091060
     87          1           0        6.080673    6.094646    2.106626
     88          1           0        7.368136    5.177453    2.843662
     89          1           0        6.038794    5.928138    3.800999
     90          1           0        5.501102    1.153349    4.250932
     91          1           0        5.259755    2.776070    5.106617
     92          1           0        7.303264    0.786055    5.798143
     93          1           0        6.954166    2.329321    6.553417
     94          1           0        7.937263    2.336445    5.085694
     95          1           0        7.272854   -2.669378    3.193654
     96          1           0        8.492147   -1.749455    2.326688
     97          1           0        8.076077   -3.456969    1.818362
     98          1           0        4.498797   -3.893144   -2.058718
     99          1           0        1.586151   -6.534764   -0.223632
    100          1           0        2.920234   -7.614844   -0.459932
    101          1           0        1.902851   -7.054517   -1.901844
    102          1           0       -2.479768   -5.896772   -0.657209
    103          1           0       -3.588913   -5.688635   -1.959396
    104          1           0       -3.624453   -3.134939   -0.694126
    105          1           0       -4.420055   -6.448901    1.369992
    106          1           0       -5.245379   -6.462044   -0.257468
    107          1           0       -6.084940   -5.983254    1.229995
    108          1           0       -6.647438   -3.824765    0.951557
    109          1           0       -5.632564   -2.597932    0.462065
    110          1           0       -4.980190   -2.078704    2.792050
    111          1           0       -4.632458   -3.757974    2.988992
    112          1           0       -6.268738   -3.826230    4.410212
    113          1           0       -7.377584   -3.832871    3.143341
    114          1           0       -6.452095   -1.016055    4.068277
    115          1           0       -7.061983   -1.353669    6.000599
    116          1           0       -7.970794   -2.816236    5.845652
    117          1           0       -8.673742   -1.190136    5.442465
    118          1           0       -9.204638   -1.473360    3.175210
    119          1           0       -8.193520   -1.923853    1.966738
    120          1           0       -7.714947    0.767306    3.488278
    121          1           0       -9.239198    0.370319    2.540320
    122          1           0       -6.473997   -0.122436    1.339925
    123          1           0       -6.970782    1.473945    1.703074
    124          1           0       -9.264815    0.610209    0.422393
    125          1           0       -7.104007   -0.986862   -0.670584
    126          1           0       -7.233178    0.314979   -1.860983
    127          1           0       -8.621701   -0.612158   -1.372341
    128          1           0       -7.268034    2.751834   -0.247168
    129          1           0       -8.697306    2.792967    0.708539
    130          1           0       -9.408531    1.864196   -1.836485
    131          1           0       -8.431027    3.448561   -1.878230
    132          1           0      -10.546208    3.325323    0.234204
    133          1           0      -11.280393    2.840646   -1.267180
    134          1           0      -10.351184    5.170755   -2.196688
    135          1           0       -9.205152    5.449920    0.586521
    136          1           0      -10.420841    6.670278    0.117126
    137          1           0       -9.054180    6.553233   -0.833470
    138          1           0      -12.247634    6.204331   -0.661484
    139          1           0      -12.715337    4.563133   -0.560593
    140          1           0      -12.403200    5.311631   -2.199721
 ---------------------------------------------------------------------

 SCF Done:  E(RZINDO/S) =  -474.278453784     A.U. after   19 cycles

 Excitation energies and oscillator strengths:

 Excited State   1:      Singlet-A      1.2007 eV 1032.58 nm  f=0.6393  <S**2>=0.000
     175 ->178         0.17117
     176 ->177         0.66650
 This state for optimization and/or second-order correction.
 Total Energy, E(CIS/TDA) =  -474.234328179
 Copying the excited state density for this state as the 1-particle RhoCI density.

 Excited State   2:      Singlet-A      1.9119 eV  648.49 nm  f=0.0460  <S**2>=0.000
     175 ->177         0.54855
     176 ->178        -0.39934
     176 ->179         0.13416

 Excited State   3:      Singlet-A      2.8463 eV  435.60 nm  f=0.4325  <S**2>=0.000
     171 ->177         0.13720
     175 ->177         0.28649
     176 ->178         0.51431
     176 ->179         0.31628

 Excited State   4:      Singlet-A      2.9125 eV  425.69 nm  f=0.0008  <S**2>=0.000
     168 ->177         0.37482
     168 ->178        -0.25405
     168 ->179        -0.38515
     168 ->181         0.14357
     168 ->185         0.16712
     168 ->195         0.10914
     171 ->177        -0.12855

 Excited State   5:      Singlet-A      3.0282 eV  409.43 nm  f=0.2076  <S**2>=0.000
     175 ->177        -0.15766
     176 ->178        -0.15003
     176 ->179         0.30196
     176 ->180         0.58716

 The electronic state is 1-A.
 Alpha  occ. eigenvalues --   -1.84858  -1.83371  -1.78155  -1.72655  -1.72321
 Alpha  occ. eigenvalues --   -1.69712  -1.65750  -1.60887  -1.59338  -1.56831
 Alpha  occ. eigenvalues --   -1.53281  -1.50599  -1.49769  -1.47274  -1.45345
 Alpha  occ. eigenvalues --   -1.44525  -1.42809  -1.40308  -1.38928  -1.38066
 Alpha  occ. eigenvalues --   -1.36298  -1.34519  -1.33086  -1.32237  -1.28943
 Alpha  occ. eigenvalues --   -1.27506  -1.26751  -1.23105  -1.19803  -1.18155
 Alpha  occ. eigenvalues --   -1.17604  -1.16091  -1.14991  -1.14818  -1.13644
 Alpha  occ. eigenvalues --   -1.12209  -1.09550  -1.08466  -1.05275  -1.02974
 Alpha  occ. eigenvalues --   -1.02112  -1.01103  -0.98897  -0.97888  -0.96774
 Alpha  occ. eigenvalues --   -0.96017  -0.95251  -0.94400  -0.93068  -0.92908
 Alpha  occ. eigenvalues --   -0.91250  -0.89230  -0.88106  -0.87964  -0.87298
 Alpha  occ. eigenvalues --   -0.86273  -0.85550  -0.83881  -0.82560  -0.79755
 Alpha  occ. eigenvalues --   -0.79050  -0.77927  -0.77045  -0.76320  -0.75826
 Alpha  occ. eigenvalues --   -0.74873  -0.74551  -0.73495  -0.73029  -0.72943
 Alpha  occ. eigenvalues --   -0.72216  -0.72026  -0.71383  -0.71180  -0.70481
 Alpha  occ. eigenvalues --   -0.70355  -0.70136  -0.68890  -0.68558  -0.68016
 Alpha  occ. eigenvalues --   -0.67743  -0.66842  -0.66094  -0.65839  -0.65027
 Alpha  occ. eigenvalues --   -0.64896  -0.64192  -0.63998  -0.63665  -0.63582
 Alpha  occ. eigenvalues --   -0.63399  -0.63043  -0.62704  -0.62180  -0.61935
 Alpha  occ. eigenvalues --   -0.61376  -0.60815  -0.60700  -0.60337  -0.60175
 Alpha  occ. eigenvalues --   -0.59842  -0.59679  -0.58845  -0.58693  -0.58603
 Alpha  occ. eigenvalues --   -0.57981  -0.57524  -0.57144  -0.56807  -0.56492
 Alpha  occ. eigenvalues --   -0.55971  -0.55887  -0.55567  -0.55033  -0.54601
 Alpha  occ. eigenvalues --   -0.54549  -0.54527  -0.53675  -0.53492  -0.52937
 Alpha  occ. eigenvalues --   -0.52492  -0.52245  -0.52164  -0.51653  -0.51590
 Alpha  occ. eigenvalues --   -0.50948  -0.50479  -0.50321  -0.50240  -0.49901
 Alpha  occ. eigenvalues --   -0.49695  -0.49293  -0.49217  -0.48965  -0.48737
 Alpha  occ. eigenvalues --   -0.48516  -0.48418  -0.48360  -0.47883  -0.47600
 Alpha  occ. eigenvalues --   -0.47521  -0.47409  -0.47222  -0.46529  -0.46271
 Alpha  occ. eigenvalues --   -0.46171  -0.45919  -0.45470  -0.45328  -0.45113
 Alpha  occ. eigenvalues --   -0.45001  -0.44719  -0.44377  -0.44140  -0.43934
 Alpha  occ. eigenvalues --   -0.43436  -0.43388  -0.42633  -0.42081  -0.41885
 Alpha  occ. eigenvalues --   -0.41388  -0.41107  -0.39586  -0.38751  -0.38176
 Alpha  occ. eigenvalues --   -0.38024  -0.37330  -0.35815  -0.34799  -0.34628
 Alpha  occ. eigenvalues --   -0.33292  -0.32939  -0.32463  -0.32058  -0.27159
 Alpha  occ. eigenvalues --   -0.21759
 Alpha virt. eigenvalues --   -0.09023  -0.02235  -0.00753   0.01097   0.01604
 Alpha virt. eigenvalues --    0.01885   0.03031   0.03524   0.04813   0.05369
 Alpha virt. eigenvalues --    0.06127   0.06818   0.07006   0.07926   0.08175

 Mulliken charges:
               1
     1  Mg   0.427064
     2  C   -0.055641
     3  C   -0.082079
     4  C   -0.062935
     5  C   -0.063733
     6  N   -0.288276
     7  C    0.150418
     8  C   -0.002463
     9  C   -0.010208
    10  C    0.126321
    11  C   -0.054056
    12  C   -0.022637
    13  C    0.022345
    14  C    0.484663
    15  O   -0.535763
    16  O   -0.269533
    17  N   -0.287020
    18  C    0.090030
    19  C    0.013356
    20  C   -0.055362
    21  C    0.100812
    22  C   -0.042222
    23  C    0.332979
    24  O   -0.510300
    25  C   -0.030421
    26  N   -0.298577
    27  C    0.101577
    28  C    0.004077
    29  C   -0.006275
    30  C    0.145726
    31  C   -0.048747
    32  C   -0.034415
    33  C   -0.060317
    34  N   -0.333488
    35  C    0.126959
    36  C    0.049646
    37  C   -0.054873
    38  C    0.128102
    39  C   -0.031167
    40  C    0.335010
    41  O   -0.520447
    42  C    0.063368
    43  C    0.499253
    44  O   -0.515996
    45  O   -0.297339
    46  C    0.073533
    47  C    0.105868
    48  C   -0.084861
    49  C   -0.020659
    50  C   -0.044098
    51  C   -0.025146
    52  C   -0.030285
    53  C   -0.034377
    54  C   -0.004474
    55  C   -0.063487
    56  C   -0.032871
    57  C   -0.037988
    58  C   -0.043231
    59  C   -0.004725
    60  C   -0.054478
    61  C   -0.048557
    62  C   -0.051634
    63  C   -0.032240
    64  C   -0.012494
    65  C   -0.062145
    66  C   -0.061327
    67  H    0.031895
    68  H    0.022491
    69  H    0.024486
    70  H    0.024271
    71  H    0.027508
    72  H    0.024042
    73  H    0.030371
    74  H    0.024400
    75  H    0.023370
    76  H    0.044937
    77  H    0.040738
    78  H    0.040153
    79  H    0.037383
    80  H    0.020464
    81  H    0.032688
    82  H    0.026339
    83  H    0.038435
    84  H    0.036269
    85  H    0.028207
    86  H    0.030293
    87  H    0.016615
    88  H    0.021572
    89  H    0.022343
    90  H    0.032276
    91  H    0.026564
    92  H    0.026975
    93  H    0.022059
    94  H    0.020363
    95  H    0.040116
    96  H    0.025038
    97  H    0.042713
    98  H    0.057683
    99  H    0.050948
   100  H    0.039749
   101  H    0.046910
   102  H    0.067071
   103  H    0.043716
   104  H    0.032090
   105  H    0.032460
   106  H    0.026828
   107  H    0.018125
   108  H    0.019641
   109  H    0.012940
   110  H    0.027418
   111  H    0.013221
   112  H    0.015717
   113  H    0.017358
   114  H    0.025195
   115  H    0.006463
   116  H    0.027240
   117  H    0.018215
   118  H    0.000397
   119  H    0.025414
   120  H    0.029245
   121  H    0.020721
   122  H    0.027510
   123  H   -0.000021
   124  H    0.027584
   125  H    0.018737
   126  H    0.028199
   127  H    0.007011
   128  H    0.014162
   129  H    0.010569
   130  H    0.021039
   131  H    0.031457
   132  H    0.021326
   133  H    0.017676
   134  H    0.018580
   135  H    0.029332
   136  H    0.014915
   137  H    0.020637
   138  H    0.010492
   139  H    0.021789
   140  H    0.021125
 Sum of Mulliken charges =  -0.00000

 Dipole moment (field-independent basis, Debye):
    X=              2.4514    Y=              2.4456    Z=              0.9933  Tot=              3.6024
 N-N= 4.428081877394D+03 E-N= 0.000000000000D+00  KE=-9.530874266774D+03
 Leave Link  601 at Sat Apr 30 10:51:25 2022, MaxMem=  6710886400 cpu:               0.8 elap:               0.1
 (Enter /sw/apps/gaussian-16.0/g16/l9999.exe)
 1\1\GINC-BP1-COMPUTE102\SP\RZINDO CIS\STO-3G\C55H74Mg1N4O6\OF15641\30-
 Apr-2022\0\\#p ZINDO=(nstates=5)\\step_701_chromophore_20 ZINDO\\0,1\M
 g,0,6.199,56.653,42.528\C,0,4.908,53.523,41.738\C,0,9.234,55.697,41.15
 3\C,0,7.097,59.943,42.195\C,0,2.996,57.575,43.564\N,0,6.921,54.913,41.
 367\C,0,6.251,53.7,41.251\C,0,7.152,52.632,40.688\C,0,8.562,53.286,40.
 879\C,0,8.249,54.765,41.153\C,0,9.432,52.67,42.049\C,0,6.884,52.112,39
 .15\C,0,7.114,50.617,38.947\C,0,6.465,50.126,37.775\O,0,5.475,49.382,3

 Normal termination of Gaussian 16 at Sat Apr 30 10:51:25 2022.
