 Gaussian 16, Revision A.03,
 Gaussian 16:  ES64L-G16RevA.03 25-Dec-2016

 ------------------------------
 #p blyp/Def2SVP td=(nstates=5)
 ------------------------------

 ---------------------------------------------------
 step_1551_chromophore_18 TDDFT with blyp functional
 ---------------------------------------------------
 Symbolic Z-matrix:
 Charge =  0 Multiplicity = 1

                         Standard orientation:
 ---------------------------------------------------------------------
 Center     Atomic      Atomic             Coordinates (Angstroms)
 Number     Number       Type             X           Y           Z
 ---------------------------------------------------------------------
      1         12           0        5.460608    1.084451    0.398224
      2          6           0        4.646384   -2.233057    0.150525
      3          6           0        1.963735    1.830672    0.049511
      4          6           0        6.176556    4.330762   -0.274990
      5          6           0        8.693630    0.378811    0.235448
      6          7           0        3.544543   -0.099931    0.056487
      7          6           0        3.503393   -1.437929    0.204052
      8          6           0        2.048705   -1.984837    0.232488
      9          6           0        1.191036   -0.672646    0.045981
     10          6           0        2.255208    0.430760    0.053446
     11          6           0        0.236885   -0.590118   -1.196717
     12          6           0        1.702382   -2.844303    1.527098
     13          6           0        0.895507   -4.106083    1.370755
     14          6           0        0.033740   -4.222428    0.150784
     15          8           0        0.384403   -4.517200   -0.982160
     16          8           0       -1.330809   -4.081271    0.425899
     17          7           0        4.210685    2.828674    0.050968
     18          6           0        2.840785    3.017152    0.027209
     19          6           0        2.548712    4.387722   -0.259726
     20          6           0        3.720106    5.104979   -0.428452
     21          6           0        4.818763    4.065743   -0.240585
     22          6           0        1.169109    4.879893   -0.252086
     23          6           0        3.819261    6.591202   -0.643283
     24          8           0        4.932190    7.206460   -0.510280
     25          6           0        2.642433    7.527750   -0.812584
     26          7           0        7.175134    2.218134   -0.076522
     27          6           0        7.259667    3.522276   -0.272313
     28          6           0        8.854263    4.049193   -0.286326
     29          6           0        9.545288    2.714807   -0.095924
     30          6           0        8.392889    1.691676    0.016748
     31          6           0        9.260080    4.737102   -1.606685
     32          6           0       10.650157    2.676578    1.067310
     33          6           0       10.184911    2.386075    2.560839
     34          7           0        6.561623   -0.628120    0.180676
     35          6           0        7.877973   -0.783563    0.201975
     36          6           0        8.241694   -2.207442    0.218224
     37          6           0        7.009391   -2.843708    0.125685
     38          6           0        6.004151   -1.816389    0.151156
     39          6           0        9.600505   -2.801152    0.252051
     40          6           0        6.259250   -4.094748    0.182627
     41          8           0        6.727598   -5.241960    0.263989
     42          6           0        4.731661   -3.786223    0.147911
     43          6           0        4.152758   -4.450212   -1.057448
     44          8           0        4.516538   -4.165620   -2.202087
     45          8           0        3.452732   -5.544453   -0.612544
     46          6           0        3.123964   -6.582033   -1.629493
     47          6           0       -2.221814   -4.186828   -0.698079
     48          6           0       -3.297107   -3.170622   -0.404218
     49          6           0       -4.569000   -3.165490   -0.854907
     50          6           0       -5.100342   -4.187039   -1.808675
     51          6           0       -5.415100   -1.982559   -0.562841
     52          6           0       -6.330224   -2.096290    0.683411
     53          6           0       -6.411952   -0.807998    1.522096
     54          6           0       -7.942873   -0.587356    1.949253
     55          6           0       -7.903662    0.056344    3.423421
     56          6           0       -8.775623    0.379676    1.065575
     57          6           0       -9.974030   -0.326785    0.361986
     58          6           0      -11.373906   -0.259647    1.132414
     59          6           0      -12.264526    0.909241    0.599722
     60          6           0      -12.962360    1.572385    1.839351
     61          6           0      -13.235519    0.420512   -0.567332
     62          6           0      -14.149155    1.565107   -1.102492
     63          6           0      -15.685806    1.240304   -1.190915
     64          6           0      -16.487073    2.484554   -0.693998
     65          6           0      -17.894733    2.110297   -0.288562
     66          6           0      -16.492886    3.660974   -1.725730
     67          1           0        0.883571    1.961892   -0.046157
     68          1           0        6.367545    5.405323   -0.311422
     69          1           0        9.768984    0.197661    0.277507
     70          1           0        1.904243   -2.664900   -0.606721
     71          1           0        0.562588   -0.522965    0.924929
     72          1           0       -0.720892   -0.084355   -1.073496
     73          1           0        0.044142   -1.621753   -1.487511
     74          1           0        0.676837   -0.021319   -2.015770
     75          1           0        1.214252   -2.288773    2.328181
     76          1           0        2.674289   -3.062254    1.971544
     77          1           0        0.336660   -4.230593    2.298009
     78          1           0        1.676255   -4.866034    1.379908
     79          1           0        1.095193    5.760194    0.387573
     80          1           0        0.449788    4.110479    0.027416
     81          1           0        0.827804    5.137408   -1.255350
     82          1           0        2.056827    7.533575    0.106800
     83          1           0        2.027435    7.102953   -1.607058
     84          1           0        3.022162    8.534355   -0.988862
     85          1           0        8.817484    4.695113    0.590500
     86          1           0       10.137798    2.436163   -0.966700
     87          1           0       10.085290    4.208679   -2.083022
     88          1           0        9.525376    5.759187   -1.332441
     89          1           0        8.347178    4.642347   -2.193467
     90          1           0       11.052500    3.686615    0.990791
     91          1           0       11.409670    1.977370    0.716634
     92          1           0       10.745245    2.977007    3.285656
     93          1           0       10.363656    1.319881    2.703459
     94          1           0        9.141629    2.676507    2.681278
     95          1           0       10.104717   -2.695044   -0.709049
     96          1           0        9.452251   -3.863544    0.443194
     97          1           0       10.175829   -2.356601    1.064462
     98          1           0        4.266416   -4.270137    1.006256
     99          1           0        2.907141   -6.144928   -2.603970
    100          1           0        2.192244   -7.022210   -1.274185
    101          1           0        3.967482   -7.267479   -1.708163
    102          1           0       -2.582505   -5.210642   -0.795796
    103          1           0       -1.702496   -3.967218   -1.630841
    104          1           0       -3.124854   -2.348089    0.290008
    105          1           0       -5.266592   -3.798191   -2.812995
    106          1           0       -6.094501   -4.403644   -1.417433
    107          1           0       -4.557419   -5.128121   -1.888650
    108          1           0       -6.025653   -2.001987   -1.466022
    109          1           0       -4.784033   -1.096808   -0.490980
    110          1           0       -5.989543   -3.003371    1.183652
    111          1           0       -7.340919   -2.314924    0.339480
    112          1           0       -6.030328    0.044809    0.960318
    113          1           0       -5.792362   -0.970219    2.403796
    114          1           0       -8.388557   -1.553412    2.185870
    115          1           0       -7.249687   -0.382980    4.178058
    116          1           0       -8.911994    0.134388    3.829685
    117          1           0       -7.479492    1.058295    3.348949
    118          1           0       -8.123173    0.872837    0.345302
    119          1           0       -9.214346    1.157133    1.689733
    120          1           0       -9.727611   -1.388329    0.347955
    121          1           0      -10.044539   -0.000774   -0.675969
    122          1           0      -11.044212   -0.022855    2.144051
    123          1           0      -11.762046   -1.272508    1.017948
    124          1           0      -11.633066    1.670607    0.142216
    125          1           0      -12.659184    2.619440    1.867830
    126          1           0      -12.620695    1.073052    2.746329
    127          1           0      -14.049574    1.645469    1.828627
    128          1           0      -13.758547   -0.481951   -0.252820
    129          1           0      -12.597849    0.065458   -1.377784
    130          1           0      -13.930707    1.808265   -2.141962
    131          1           0      -13.994040    2.472492   -0.520103
    132          1           0      -15.827519    0.414455   -0.493618
    133          1           0      -15.879336    0.883323   -2.202981
    134          1           0      -15.931368    2.864384    0.163350
    135          1           0      -18.124043    2.511219    0.698976
    136          1           0      -18.125128    1.047765   -0.365305
    137          1           0      -18.596679    2.561497   -0.989890
    138          1           0      -16.128379    4.575431   -1.256858
    139          1           0      -17.444374    3.918426   -2.189866
    140          1           0      -15.858088    3.344703   -2.553634
 ---------------------------------------------------------------------

 SCF Done:  E(RB-LYP) =  -3007.39176145     A.U. after   22 cycles

 Excitation energies and oscillator strengths:

 Excited State   1:      Singlet-A      1.8325 eV  676.59 nm  f=0.1623  <S**2>=0.000
     244 -> 247        0.52234
     245 -> 248        0.10229
     246 -> 247       -0.46598
 This state for optimization and/or second-order correction.
 Total Energy, E(TD-HF/TD-DFT) =  -3007.32441859
 Copying the excited state density for this state as the 1-particle RhoCI density.

 Excited State   2:      Singlet-A      1.8617 eV  665.96 nm  f=0.1846  <S**2>=0.000
     244 -> 247        0.47058
     245 -> 248       -0.11738
     246 -> 247        0.50367
     246 <- 247       -0.11023

 Excited State   3:      Singlet-A      1.9839 eV  624.95 nm  f=0.0467  <S**2>=0.000
     243 -> 247       -0.46898
     245 -> 247        0.49181
     246 -> 248        0.12440

 Excited State   4:      Singlet-A      2.0250 eV  612.28 nm  f=0.0440  <S**2>=0.000
     243 -> 247        0.52777
     245 -> 247        0.43100
     246 -> 248        0.12663
     246 -> 249       -0.10236

 Excited State   5:      Singlet-A      2.2957 eV  540.07 nm  f=0.0001  <S**2>=0.000
     242 -> 247        0.70700

 The electronic state is 1-A.
 Alpha  occ. eigenvalues --  -46.28058 -18.82110 -18.82005 -18.77936 -18.76092
 Alpha  occ. eigenvalues --  -18.75386 -18.74858 -14.03061 -14.02844 -14.01197
 Alpha  occ. eigenvalues --  -14.00769 -10.04990 -10.03286  -9.99799  -9.99569
 Alpha  occ. eigenvalues --   -9.97833  -9.97036  -9.96590  -9.96356  -9.95832
 Alpha  occ. eigenvalues --   -9.95758  -9.95603  -9.95459  -9.95230  -9.94324
 Alpha  occ. eigenvalues --   -9.94315  -9.94302  -9.93996  -9.93819  -9.93702
 Alpha  occ. eigenvalues --   -9.93593  -9.93523  -9.93426  -9.93383  -9.93275
 Alpha  occ. eigenvalues --   -9.93160  -9.93138  -9.92932  -9.92789  -9.92576
 Alpha  occ. eigenvalues --   -9.92561  -9.92381  -9.92315  -9.92255  -9.92146
 Alpha  occ. eigenvalues --   -9.92139  -9.92133  -9.92075  -9.92022  -9.91836
 Alpha  occ. eigenvalues --   -9.91804  -9.91775  -9.91696  -9.91681  -9.91597
 Alpha  occ. eigenvalues --   -9.91583  -9.91334  -9.91208  -9.91155  -9.91086
 Alpha  occ. eigenvalues --   -9.91076  -9.90951  -9.90938  -9.90851  -9.90838
 Alpha  occ. eigenvalues --   -9.90306  -2.92608  -1.73008  -1.72493  -1.72334
 Alpha  occ. eigenvalues --   -0.98411  -0.96400  -0.90496  -0.90104  -0.88892
 Alpha  occ. eigenvalues --   -0.88458  -0.87992  -0.86969  -0.85173  -0.83783
 Alpha  occ. eigenvalues --   -0.74836  -0.74124  -0.73203  -0.72482  -0.72340
 Alpha  occ. eigenvalues --   -0.71763  -0.71477  -0.70858  -0.70657  -0.70476
 Alpha  occ. eigenvalues --   -0.69929  -0.69007  -0.67965  -0.67176  -0.66684
 Alpha  occ. eigenvalues --   -0.66210  -0.65541  -0.65172  -0.65021  -0.64109
 Alpha  occ. eigenvalues --   -0.63805  -0.62575  -0.62152  -0.61595  -0.60848
 Alpha  occ. eigenvalues --   -0.60378  -0.59989  -0.59791  -0.59640  -0.58890
 Alpha  occ. eigenvalues --   -0.58466  -0.57555  -0.56387  -0.55650  -0.55175
 Alpha  occ. eigenvalues --   -0.54103  -0.53495  -0.53089  -0.52277  -0.51340
 Alpha  occ. eigenvalues --   -0.51224  -0.50935  -0.50349  -0.50223  -0.50065
 Alpha  occ. eigenvalues --   -0.49895  -0.49454  -0.48627  -0.48023  -0.46660
 Alpha  occ. eigenvalues --   -0.45900  -0.45596  -0.45503  -0.44846  -0.44118
 Alpha  occ. eigenvalues --   -0.43632  -0.43361  -0.43003  -0.42896  -0.42550
 Alpha  occ. eigenvalues --   -0.42118  -0.41613  -0.41493  -0.41306  -0.41150
 Alpha  occ. eigenvalues --   -0.40897  -0.40515  -0.40437  -0.39900  -0.39814
 Alpha  occ. eigenvalues --   -0.39681  -0.39542  -0.39375  -0.39238  -0.39061
 Alpha  occ. eigenvalues --   -0.39002  -0.38580  -0.38568  -0.38256  -0.38094
 Alpha  occ. eigenvalues --   -0.37814  -0.37669  -0.37520  -0.37363  -0.37133
 Alpha  occ. eigenvalues --   -0.36960  -0.36760  -0.36585  -0.36516  -0.36477
 Alpha  occ. eigenvalues --   -0.36360  -0.36124  -0.35886  -0.35794  -0.35436
 Alpha  occ. eigenvalues --   -0.35120  -0.34965  -0.34883  -0.34852  -0.34660
 Alpha  occ. eigenvalues --   -0.34247  -0.34130  -0.34033  -0.33970  -0.33894
 Alpha  occ. eigenvalues --   -0.33708  -0.33591  -0.33415  -0.33255  -0.33014
 Alpha  occ. eigenvalues --   -0.32925  -0.32673  -0.32556  -0.32334  -0.32207
 Alpha  occ. eigenvalues --   -0.32073  -0.31803  -0.31682  -0.31336  -0.31328
 Alpha  occ. eigenvalues --   -0.31186  -0.31022  -0.30887  -0.30813  -0.30435
 Alpha  occ. eigenvalues --   -0.30379  -0.30335  -0.30069  -0.29793  -0.29729
 Alpha  occ. eigenvalues --   -0.29413  -0.29380  -0.29158  -0.29094  -0.28870
 Alpha  occ. eigenvalues --   -0.28844  -0.28442  -0.28213  -0.27820  -0.27602
 Alpha  occ. eigenvalues --   -0.27496  -0.27454  -0.27221  -0.26900  -0.26507
 Alpha  occ. eigenvalues --   -0.26226  -0.26127  -0.26020  -0.25599  -0.25246
 Alpha  occ. eigenvalues --   -0.25153  -0.25027  -0.24693  -0.24311  -0.23404
 Alpha  occ. eigenvalues --   -0.23319  -0.22986  -0.22159  -0.21137  -0.21021
 Alpha  occ. eigenvalues --   -0.20471  -0.19688  -0.18507  -0.17934  -0.16907
 Alpha  occ. eigenvalues --   -0.15637
 Alpha virt. eigenvalues --   -0.11252  -0.06698  -0.05869  -0.04790  -0.04321
 Alpha virt. eigenvalues --   -0.03783  -0.02530  -0.01763  -0.00920   0.00674
 Alpha virt. eigenvalues --    0.01733   0.01969   0.02521   0.02618   0.02789

 Mulliken charges:
               1
     1  Mg   0.706518
     2  C    0.082493
     3  C   -0.024915
     4  C   -0.049922
     5  C   -0.092208
     6  N   -0.197715
     7  C   -0.099700
     8  C   -0.001706
     9  C    0.036946
    10  C   -0.027943
    11  C    0.104315
    12  C    0.062224
    13  C    0.204231
    14  C    0.077987
    15  O   -0.197458
    16  O   -0.280144
    17  N   -0.274117
    18  C    0.112112
    19  C   -0.142099
    20  C    0.083567
    21  C    0.093096
    22  C    0.186356
    23  C   -0.094883
    24  O   -0.222867
    25  C    0.159704
    26  N   -0.187759
    27  C   -0.017723
    28  C   -0.009811
    29  C    0.042937
    30  C    0.022468
    31  C    0.150841
    32  C    0.042118
    33  C    0.077230
    34  N   -0.211294
    35  C    0.096962
    36  C   -0.191046
    37  C    0.126412
    38  C    0.006483
    39  C    0.178559
    40  C   -0.055926
    41  O   -0.154367
    42  C    0.055226
    43  C    0.137079
    44  O   -0.194341
    45  O   -0.280618
    46  C    0.214155
    47  C    0.324982
    48  C   -0.091801
    49  C   -0.195672
    50  C    0.152520
    51  C    0.136287
    52  C    0.077272
    53  C    0.125909
    54  C   -0.080641
    55  C    0.045703
    56  C    0.145777
    57  C    0.019532
    58  C    0.109200
    59  C   -0.079868
    60  C    0.098776
    61  C    0.112975
    62  C    0.055909
    63  C    0.080318
    64  C   -0.111055
    65  C    0.140403
    66  C    0.095741
    67  H   -0.074656
    68  H   -0.052006
    69  H   -0.076646
    70  H    0.016153
    71  H   -0.022908
    72  H   -0.010303
    73  H    0.005716
    74  H   -0.003299
    75  H   -0.026597
    76  H   -0.026079
    77  H   -0.012200
    78  H    0.004834
    79  H   -0.000234
    80  H   -0.021971
    81  H   -0.006578
    82  H    0.010701
    83  H   -0.003671
    84  H    0.001651
    85  H   -0.012009
    86  H   -0.029124
    87  H   -0.006712
    88  H    0.004755
    89  H    0.005163
    90  H   -0.020508
    91  H   -0.016651
    92  H   -0.004156
    93  H    0.003754
    94  H   -0.000187
    95  H    0.010629
    96  H    0.004754
    97  H   -0.002708
    98  H   -0.011398
    99  H    0.024076
   100  H    0.017194
   101  H    0.029364
   102  H   -0.003348
   103  H    0.013074
   104  H   -0.048917
   105  H    0.005262
   106  H   -0.017952
   107  H   -0.016557
   108  H   -0.043119
   109  H   -0.022133
   110  H   -0.024452
   111  H   -0.027186
   112  H   -0.025572
   113  H   -0.029280
   114  H   -0.020107
   115  H   -0.021411
   116  H   -0.014670
   117  H   -0.023271
   118  H   -0.036398
   119  H   -0.031309
   120  H   -0.035739
   121  H   -0.030261
   122  H   -0.029036
   123  H   -0.023115
   124  H   -0.028904
   125  H   -0.020410
   126  H   -0.013854
   127  H   -0.012321
   128  H   -0.032954
   129  H   -0.042489
   130  H   -0.031277
   131  H   -0.024223
   132  H   -0.032547
   133  H   -0.023193
   134  H   -0.027939
   135  H   -0.014659
   136  H   -0.021171
   137  H   -0.033616
   138  H   -0.011691
   139  H   -0.015313
   140  H   -0.019810
 Sum of Mulliken charges =  -0.00000

 Dipole moment (field-independent basis, Debye):
    X=             -4.4454    Y=              0.8266    Z=              2.6087  Tot=              5.2202
 Quadrupole moment (field-independent basis, Debye-Ang):
   XX=           -389.1065   YY=           -430.7785   ZZ=           -406.7037
   XY=             17.1044   XZ=             20.9009   YZ=             -0.1793

 Normal termination of Gaussian 16 at Thu Apr 28 12:27:40 2022.
