 Gaussian 16, Revision A.03,
 Gaussian 16:  ES64L-G16RevA.03 25-Dec-2016

 -----------------------------------
 #p cam-b3lyp/Def2SVP td=(nstates=5)
 -----------------------------------

 --------------------------------------------------------
 step_1551_chromophore_18 TDDFT with cam-b3lyp functional
 --------------------------------------------------------
 Symbolic Z-matrix:
 Charge =  0 Multiplicity = 1

                         Standard orientation:
 ---------------------------------------------------------------------
 Center     Atomic      Atomic             Coordinates (Angstroms)
 Number     Number       Type             X           Y           Z
 ---------------------------------------------------------------------
      1         12           0        5.460608    1.084451    0.398224
      2          6           0        4.646384   -2.233057    0.150525
      3          6           0        1.963735    1.830672    0.049511
      4          6           0        6.176556    4.330762   -0.274990
      5          6           0        8.693630    0.378811    0.235448
      6          7           0        3.544543   -0.099931    0.056487
      7          6           0        3.503393   -1.437929    0.204052
      8          6           0        2.048705   -1.984837    0.232488
      9          6           0        1.191036   -0.672646    0.045981
     10          6           0        2.255208    0.430760    0.053446
     11          6           0        0.236885   -0.590118   -1.196717
     12          6           0        1.702382   -2.844303    1.527098
     13          6           0        0.895507   -4.106083    1.370755
     14          6           0        0.033740   -4.222428    0.150784
     15          8           0        0.384403   -4.517200   -0.982160
     16          8           0       -1.330809   -4.081271    0.425899
     17          7           0        4.210685    2.828674    0.050968
     18          6           0        2.840785    3.017152    0.027209
     19          6           0        2.548712    4.387722   -0.259726
     20          6           0        3.720106    5.104979   -0.428452
     21          6           0        4.818763    4.065743   -0.240585
     22          6           0        1.169109    4.879893   -0.252086
     23          6           0        3.819261    6.591202   -0.643283
     24          8           0        4.932190    7.206460   -0.510280
     25          6           0        2.642433    7.527750   -0.812584
     26          7           0        7.175134    2.218134   -0.076522
     27          6           0        7.259667    3.522276   -0.272313
     28          6           0        8.854263    4.049193   -0.286326
     29          6           0        9.545288    2.714807   -0.095924
     30          6           0        8.392889    1.691676    0.016748
     31          6           0        9.260080    4.737102   -1.606685
     32          6           0       10.650157    2.676578    1.067310
     33          6           0       10.184911    2.386075    2.560839
     34          7           0        6.561623   -0.628120    0.180676
     35          6           0        7.877973   -0.783563    0.201975
     36          6           0        8.241694   -2.207442    0.218224
     37          6           0        7.009391   -2.843708    0.125685
     38          6           0        6.004151   -1.816389    0.151156
     39          6           0        9.600505   -2.801152    0.252051
     40          6           0        6.259250   -4.094748    0.182627
     41          8           0        6.727598   -5.241960    0.263989
     42          6           0        4.731661   -3.786223    0.147911
     43          6           0        4.152758   -4.450212   -1.057448
     44          8           0        4.516538   -4.165620   -2.202087
     45          8           0        3.452732   -5.544453   -0.612544
     46          6           0        3.123964   -6.582033   -1.629493
     47          6           0       -2.221814   -4.186828   -0.698079
     48          6           0       -3.297107   -3.170622   -0.404218
     49          6           0       -4.569000   -3.165490   -0.854907
     50          6           0       -5.100342   -4.187039   -1.808675
     51          6           0       -5.415100   -1.982559   -0.562841
     52          6           0       -6.330224   -2.096290    0.683411
     53          6           0       -6.411952   -0.807998    1.522096
     54          6           0       -7.942873   -0.587356    1.949253
     55          6           0       -7.903662    0.056344    3.423421
     56          6           0       -8.775623    0.379676    1.065575
     57          6           0       -9.974030   -0.326785    0.361986
     58          6           0      -11.373906   -0.259647    1.132414
     59          6           0      -12.264526    0.909241    0.599722
     60          6           0      -12.962360    1.572385    1.839351
     61          6           0      -13.235519    0.420512   -0.567332
     62          6           0      -14.149155    1.565107   -1.102492
     63          6           0      -15.685806    1.240304   -1.190915
     64          6           0      -16.487073    2.484554   -0.693998
     65          6           0      -17.894733    2.110297   -0.288562
     66          6           0      -16.492886    3.660974   -1.725730
     67          1           0        0.883571    1.961892   -0.046157
     68          1           0        6.367545    5.405323   -0.311422
     69          1           0        9.768984    0.197661    0.277507
     70          1           0        1.904243   -2.664900   -0.606721
     71          1           0        0.562588   -0.522965    0.924929
     72          1           0       -0.720892   -0.084355   -1.073496
     73          1           0        0.044142   -1.621753   -1.487511
     74          1           0        0.676837   -0.021319   -2.015770
     75          1           0        1.214252   -2.288773    2.328181
     76          1           0        2.674289   -3.062254    1.971544
     77          1           0        0.336660   -4.230593    2.298009
     78          1           0        1.676255   -4.866034    1.379908
     79          1           0        1.095193    5.760194    0.387573
     80          1           0        0.449788    4.110479    0.027416
     81          1           0        0.827804    5.137408   -1.255350
     82          1           0        2.056827    7.533575    0.106800
     83          1           0        2.027435    7.102953   -1.607058
     84          1           0        3.022162    8.534355   -0.988862
     85          1           0        8.817484    4.695113    0.590500
     86          1           0       10.137798    2.436163   -0.966700
     87          1           0       10.085290    4.208679   -2.083022
     88          1           0        9.525376    5.759187   -1.332441
     89          1           0        8.347178    4.642347   -2.193467
     90          1           0       11.052500    3.686615    0.990791
     91          1           0       11.409670    1.977370    0.716634
     92          1           0       10.745245    2.977007    3.285656
     93          1           0       10.363656    1.319881    2.703459
     94          1           0        9.141629    2.676507    2.681278
     95          1           0       10.104717   -2.695044   -0.709049
     96          1           0        9.452251   -3.863544    0.443194
     97          1           0       10.175829   -2.356601    1.064462
     98          1           0        4.266416   -4.270137    1.006256
     99          1           0        2.907141   -6.144928   -2.603970
    100          1           0        2.192244   -7.022210   -1.274185
    101          1           0        3.967482   -7.267479   -1.708163
    102          1           0       -2.582505   -5.210642   -0.795796
    103          1           0       -1.702496   -3.967218   -1.630841
    104          1           0       -3.124854   -2.348089    0.290008
    105          1           0       -5.266592   -3.798191   -2.812995
    106          1           0       -6.094501   -4.403644   -1.417433
    107          1           0       -4.557419   -5.128121   -1.888650
    108          1           0       -6.025653   -2.001987   -1.466022
    109          1           0       -4.784033   -1.096808   -0.490980
    110          1           0       -5.989543   -3.003371    1.183652
    111          1           0       -7.340919   -2.314924    0.339480
    112          1           0       -6.030328    0.044809    0.960318
    113          1           0       -5.792362   -0.970219    2.403796
    114          1           0       -8.388557   -1.553412    2.185870
    115          1           0       -7.249687   -0.382980    4.178058
    116          1           0       -8.911994    0.134388    3.829685
    117          1           0       -7.479492    1.058295    3.348949
    118          1           0       -8.123173    0.872837    0.345302
    119          1           0       -9.214346    1.157133    1.689733
    120          1           0       -9.727611   -1.388329    0.347955
    121          1           0      -10.044539   -0.000774   -0.675969
    122          1           0      -11.044212   -0.022855    2.144051
    123          1           0      -11.762046   -1.272508    1.017948
    124          1           0      -11.633066    1.670607    0.142216
    125          1           0      -12.659184    2.619440    1.867830
    126          1           0      -12.620695    1.073052    2.746329
    127          1           0      -14.049574    1.645469    1.828627
    128          1           0      -13.758547   -0.481951   -0.252820
    129          1           0      -12.597849    0.065458   -1.377784
    130          1           0      -13.930707    1.808265   -2.141962
    131          1           0      -13.994040    2.472492   -0.520103
    132          1           0      -15.827519    0.414455   -0.493618
    133          1           0      -15.879336    0.883323   -2.202981
    134          1           0      -15.931368    2.864384    0.163350
    135          1           0      -18.124043    2.511219    0.698976
    136          1           0      -18.125128    1.047765   -0.365305
    137          1           0      -18.596679    2.561497   -0.989890
    138          1           0      -16.128379    4.575431   -1.256858
    139          1           0      -17.444374    3.918426   -2.189866
    140          1           0      -15.858088    3.344703   -2.553634
 ---------------------------------------------------------------------

 SCF Done:  E(RCAM-B3LYP) =  -3007.17974099     A.U. after   17 cycles

 Excitation energies and oscillator strengths:

 Excited State   1:      Singlet-A      1.7443 eV  710.80 nm  f=0.4198  <S**2>=0.000
     245 -> 248       -0.17526
     246 -> 247        0.68498
     245 <- 248       -0.10259
 This state for optimization and/or second-order correction.
 Total Energy, E(TD-HF/TD-DFT) =  -3007.11563961
 Copying the excited state density for this state as the 1-particle RhoCI density.

 Excited State   2:      Singlet-A      2.2291 eV  556.21 nm  f=0.1278  <S**2>=0.000
     245 -> 247        0.64805
     246 -> 248        0.26484

 Excited State   3:      Singlet-A      3.4555 eV  358.80 nm  f=0.0037  <S**2>=0.000
     241 -> 247       -0.20401
     241 -> 248       -0.11323
     241 -> 249       -0.13506
     241 -> 251        0.11876
     242 -> 247        0.38380
     242 -> 248        0.20088
     242 -> 249        0.24795
     242 -> 251       -0.21690
     243 -> 247        0.23301

 Excited State   4:      Singlet-A      3.4995 eV  354.29 nm  f=0.0011  <S**2>=0.000
     240 -> 247        0.52503
     240 -> 249       -0.28101
     240 -> 250        0.12371
     240 -> 251       -0.23410
     241 -> 247        0.12379
     243 -> 247        0.15700

 Excited State   5:      Singlet-A      3.5281 eV  351.42 nm  f=0.1735  <S**2>=0.000
     240 -> 247       -0.12938
     241 -> 247        0.11632
     242 -> 247       -0.14665
     243 -> 247        0.47218
     245 -> 247        0.13814
     246 -> 248       -0.42029

 The electronic state is 1-A.
 Alpha  occ. eigenvalues --  -46.89661 -19.24965 -19.24911 -19.20952 -19.19208
 Alpha  occ. eigenvalues --  -19.18614 -19.18095 -14.41943 -14.41626 -14.39727
 Alpha  occ. eigenvalues --  -14.39170 -10.40381 -10.38800 -10.35135 -10.34950
 Alpha  occ. eigenvalues --  -10.31781 -10.31073 -10.31066 -10.30837 -10.30311
 Alpha  occ. eigenvalues --  -10.30082 -10.29908 -10.29899 -10.29431 -10.28578
 Alpha  occ. eigenvalues --  -10.28483 -10.28298 -10.28006 -10.27991 -10.27930
 Alpha  occ. eigenvalues --  -10.27794 -10.27753 -10.27698 -10.27681 -10.27615
 Alpha  occ. eigenvalues --  -10.27188 -10.27160 -10.26938 -10.26753 -10.26481
 Alpha  occ. eigenvalues --  -10.26364 -10.26279 -10.26219 -10.26023 -10.25972
 Alpha  occ. eigenvalues --  -10.25928 -10.25838 -10.25795 -10.25789 -10.25734
 Alpha  occ. eigenvalues --  -10.25485 -10.25484 -10.25428 -10.25366 -10.25301
 Alpha  occ. eigenvalues --  -10.25264 -10.25240 -10.25143 -10.25045 -10.24851
 Alpha  occ. eigenvalues --  -10.24797 -10.24781 -10.24614 -10.24552 -10.24455
 Alpha  occ. eigenvalues --  -10.23867  -3.18107  -1.92984  -1.92556  -1.92416
 Alpha  occ. eigenvalues --   -1.16866  -1.14913  -1.08482  -1.08321  -1.06868
 Alpha  occ. eigenvalues --   -1.06774  -1.05718  -1.04622  -1.02821  -1.01288
 Alpha  occ. eigenvalues --   -0.91983  -0.91034  -0.90014  -0.89258  -0.89085
 Alpha  occ. eigenvalues --   -0.88451  -0.88186  -0.87532  -0.87264  -0.87025
 Alpha  occ. eigenvalues --   -0.86428  -0.85387  -0.84186  -0.83346  -0.82786
 Alpha  occ. eigenvalues --   -0.82218  -0.81664  -0.81178  -0.80843  -0.79995
 Alpha  occ. eigenvalues --   -0.79584  -0.78293  -0.77806  -0.77069  -0.76225
 Alpha  occ. eigenvalues --   -0.75798  -0.75343  -0.75058  -0.74951  -0.74112
 Alpha  occ. eigenvalues --   -0.73534  -0.72582  -0.71247  -0.70445  -0.69846
 Alpha  occ. eigenvalues --   -0.68756  -0.68053  -0.67636  -0.66638  -0.65563
 Alpha  occ. eigenvalues --   -0.65425  -0.64952  -0.64445  -0.64271  -0.63932
 Alpha  occ. eigenvalues --   -0.63750  -0.63425  -0.62492  -0.61771  -0.60298
 Alpha  occ. eigenvalues --   -0.59505  -0.59055  -0.59004  -0.58265  -0.57646
 Alpha  occ. eigenvalues --   -0.57057  -0.56880  -0.56182  -0.56046  -0.55771
 Alpha  occ. eigenvalues --   -0.55344  -0.54739  -0.54295  -0.54258  -0.53888
 Alpha  occ. eigenvalues --   -0.53736  -0.53424  -0.53048  -0.52665  -0.52481
 Alpha  occ. eigenvalues --   -0.52385  -0.52340  -0.52248  -0.52113  -0.51701
 Alpha  occ. eigenvalues --   -0.51352  -0.51178  -0.51124  -0.50542  -0.50501
 Alpha  occ. eigenvalues --   -0.50192  -0.49885  -0.49823  -0.49729  -0.49404
 Alpha  occ. eigenvalues --   -0.49089  -0.48964  -0.48876  -0.48795  -0.48649
 Alpha  occ. eigenvalues --   -0.48473  -0.48435  -0.48194  -0.47902  -0.47750
 Alpha  occ. eigenvalues --   -0.47431  -0.47089  -0.46876  -0.46833  -0.46623
 Alpha  occ. eigenvalues --   -0.46046  -0.45947  -0.45901  -0.45777  -0.45640
 Alpha  occ. eigenvalues --   -0.45579  -0.45487  -0.45133  -0.45036  -0.44915
 Alpha  occ. eigenvalues --   -0.44621  -0.44431  -0.44380  -0.43923  -0.43816
 Alpha  occ. eigenvalues --   -0.43666  -0.43545  -0.43326  -0.43052  -0.42819
 Alpha  occ. eigenvalues --   -0.42663  -0.42541  -0.42477  -0.42349  -0.42150
 Alpha  occ. eigenvalues --   -0.41782  -0.41634  -0.41408  -0.41042  -0.40939
 Alpha  occ. eigenvalues --   -0.40900  -0.40560  -0.40504  -0.40340  -0.40271
 Alpha  occ. eigenvalues --   -0.39949  -0.39390  -0.39323  -0.38820  -0.38414
 Alpha  occ. eigenvalues --   -0.38404  -0.38360  -0.38063  -0.37713  -0.37532
 Alpha  occ. eigenvalues --   -0.37281  -0.36927  -0.36745  -0.36714  -0.36277
 Alpha  occ. eigenvalues --   -0.35784  -0.35747  -0.35736  -0.35033  -0.34706
 Alpha  occ. eigenvalues --   -0.34187  -0.33595  -0.32539  -0.31310  -0.30676
 Alpha  occ. eigenvalues --   -0.30519  -0.30418  -0.29789  -0.29256  -0.23657
 Alpha  occ. eigenvalues --   -0.20920
 Alpha virt. eigenvalues --   -0.08348  -0.01193   0.00332   0.01272   0.02099
 Alpha virt. eigenvalues --    0.03342   0.05128   0.05510   0.06357   0.07582
 Alpha virt. eigenvalues --    0.08025   0.08748   0.08785   0.08996   0.09152

 Mulliken charges:
               1
     1  Mg   0.835460
     2  C    0.051200
     3  C   -0.040993
     4  C   -0.075090
     5  C   -0.099729
     6  N   -0.265795
     7  C   -0.052767
     8  C   -0.058309
     9  C   -0.014763
    10  C   -0.007551
    11  C    0.051308
    12  C    0.016612
    13  C    0.129591
    14  C    0.155229
    15  O   -0.237920
    16  O   -0.344362
    17  N   -0.355698
    18  C    0.123032
    19  C   -0.147526
    20  C    0.012695
    21  C    0.122521
    22  C    0.121069
    23  C   -0.016703
    24  O   -0.264594
    25  C    0.079661
    26  N   -0.263626
    27  C    0.001836
    28  C   -0.058749
    29  C   -0.010022
    30  C    0.040822
    31  C    0.092249
    32  C   -0.008139
    33  C    0.018376
    34  N   -0.304319
    35  C    0.100693
    36  C   -0.185045
    37  C    0.053615
    38  C    0.040149
    39  C    0.126535
    40  C    0.039948
    41  O   -0.192665
    42  C   -0.015765
    43  C    0.224877
    44  O   -0.230658
    45  O   -0.345458
    46  C    0.177285
    47  C    0.289655
    48  C   -0.109381
    49  C   -0.214977
    50  C    0.088554
    51  C    0.072757
    52  C    0.027430
    53  C    0.071487
    54  C   -0.141294
    55  C   -0.006337
    56  C    0.089210
    57  C   -0.029588
    58  C    0.057062
    59  C   -0.134429
    60  C    0.039002
    61  C    0.065605
    62  C    0.001709
    63  C    0.027987
    64  C   -0.170294
    65  C    0.077694
    66  C    0.037626
    67  H   -0.041068
    68  H   -0.009207
    69  H   -0.041850
    70  H    0.048907
    71  H    0.011670
    72  H    0.013052
    73  H    0.024454
    74  H    0.023547
    75  H    0.004867
    76  H    0.005604
    77  H    0.025231
    78  H    0.037123
    79  H    0.024750
    80  H    0.007964
    81  H    0.022066
    82  H    0.037605
    83  H    0.023160
    84  H    0.037989
    85  H    0.021596
    86  H    0.007603
    87  H    0.017463
    88  H    0.028477
    89  H    0.030872
    90  H    0.006930
    91  H    0.009685
    92  H    0.019891
    93  H    0.024886
    94  H    0.020218
    95  H    0.036935
    96  H    0.032798
    97  H    0.021259
    98  H    0.030786
    99  H    0.049296
   100  H    0.039098
   101  H    0.051326
   102  H    0.022928
   103  H    0.044120
   104  H   -0.014957
   105  H    0.030084
   106  H    0.005516
   107  H    0.008852
   108  H   -0.012478
   109  H    0.007524
   110  H    0.005645
   111  H   -0.001888
   112  H    0.001530
   113  H    0.000612
   114  H    0.010980
   115  H    0.003783
   116  H    0.007751
   117  H   -0.000293
   118  H   -0.006275
   119  H   -0.002676
   120  H   -0.008784
   121  H   -0.002894
   122  H   -0.004852
   123  H    0.005795
   124  H    0.001674
   125  H    0.003591
   126  H    0.011149
   127  H    0.009386
   128  H   -0.005664
   129  H   -0.013487
   130  H   -0.002972
   131  H    0.001553
   132  H   -0.004456
   133  H    0.004884
   134  H    0.002212
   135  H    0.009867
   136  H    0.004263
   137  H   -0.008761
   138  H    0.012029
   139  H    0.009030
   140  H    0.002706
 Sum of Mulliken charges =  -0.00000

 Dipole moment (field-independent basis, Debye):
    X=             -4.6898    Y=              1.1424    Z=              2.6912  Tot=              5.5265
 Quadrupole moment (field-independent basis, Debye-Ang):
   XX=           -389.3734   YY=           -426.9850   ZZ=           -406.6657
   XY=             17.4253   XZ=             21.9779   YZ=             -0.7717

 Normal termination of Gaussian 16 at Thu Apr 28 11:28:49 2022.
