 Gaussian 16, Revision A.03,
 Gaussian 16:  ES64L-G16RevA.03 25-Dec-2016

 ---------------------------------
 #p PBE1PBE/Def2SVP td=(nstates=5)
 ---------------------------------

 ------------------------------------------------------
 step_1551_chromophore_18 TDDFT with PBE1PBE functional
 ------------------------------------------------------
 Symbolic Z-matrix:
 Charge =  0 Multiplicity = 1

                         Standard orientation:
 ---------------------------------------------------------------------
 Center     Atomic      Atomic             Coordinates (Angstroms)
 Number     Number       Type             X           Y           Z
 ---------------------------------------------------------------------
      1         12           0        5.460608    1.084451    0.398224
      2          6           0        4.646384   -2.233057    0.150525
      3          6           0        1.963735    1.830672    0.049511
      4          6           0        6.176556    4.330762   -0.274990
      5          6           0        8.693630    0.378811    0.235448
      6          7           0        3.544543   -0.099931    0.056487
      7          6           0        3.503393   -1.437929    0.204052
      8          6           0        2.048705   -1.984837    0.232488
      9          6           0        1.191036   -0.672646    0.045981
     10          6           0        2.255208    0.430760    0.053446
     11          6           0        0.236885   -0.590118   -1.196717
     12          6           0        1.702382   -2.844303    1.527098
     13          6           0        0.895507   -4.106083    1.370755
     14          6           0        0.033740   -4.222428    0.150784
     15          8           0        0.384403   -4.517200   -0.982160
     16          8           0       -1.330809   -4.081271    0.425899
     17          7           0        4.210685    2.828674    0.050968
     18          6           0        2.840785    3.017152    0.027209
     19          6           0        2.548712    4.387722   -0.259726
     20          6           0        3.720106    5.104979   -0.428452
     21          6           0        4.818763    4.065743   -0.240585
     22          6           0        1.169109    4.879893   -0.252086
     23          6           0        3.819261    6.591202   -0.643283
     24          8           0        4.932190    7.206460   -0.510280
     25          6           0        2.642433    7.527750   -0.812584
     26          7           0        7.175134    2.218134   -0.076522
     27          6           0        7.259667    3.522276   -0.272313
     28          6           0        8.854263    4.049193   -0.286326
     29          6           0        9.545288    2.714807   -0.095924
     30          6           0        8.392889    1.691676    0.016748
     31          6           0        9.260080    4.737102   -1.606685
     32          6           0       10.650157    2.676578    1.067310
     33          6           0       10.184911    2.386075    2.560839
     34          7           0        6.561623   -0.628120    0.180676
     35          6           0        7.877973   -0.783563    0.201975
     36          6           0        8.241694   -2.207442    0.218224
     37          6           0        7.009391   -2.843708    0.125685
     38          6           0        6.004151   -1.816389    0.151156
     39          6           0        9.600505   -2.801152    0.252051
     40          6           0        6.259250   -4.094748    0.182627
     41          8           0        6.727598   -5.241960    0.263989
     42          6           0        4.731661   -3.786223    0.147911
     43          6           0        4.152758   -4.450212   -1.057448
     44          8           0        4.516538   -4.165620   -2.202087
     45          8           0        3.452732   -5.544453   -0.612544
     46          6           0        3.123964   -6.582033   -1.629493
     47          6           0       -2.221814   -4.186828   -0.698079
     48          6           0       -3.297107   -3.170622   -0.404218
     49          6           0       -4.569000   -3.165490   -0.854907
     50          6           0       -5.100342   -4.187039   -1.808675
     51          6           0       -5.415100   -1.982559   -0.562841
     52          6           0       -6.330224   -2.096290    0.683411
     53          6           0       -6.411952   -0.807998    1.522096
     54          6           0       -7.942873   -0.587356    1.949253
     55          6           0       -7.903662    0.056344    3.423421
     56          6           0       -8.775623    0.379676    1.065575
     57          6           0       -9.974030   -0.326785    0.361986
     58          6           0      -11.373906   -0.259647    1.132414
     59          6           0      -12.264526    0.909241    0.599722
     60          6           0      -12.962360    1.572385    1.839351
     61          6           0      -13.235519    0.420512   -0.567332
     62          6           0      -14.149155    1.565107   -1.102492
     63          6           0      -15.685806    1.240304   -1.190915
     64          6           0      -16.487073    2.484554   -0.693998
     65          6           0      -17.894733    2.110297   -0.288562
     66          6           0      -16.492886    3.660974   -1.725730
     67          1           0        0.883571    1.961892   -0.046157
     68          1           0        6.367545    5.405323   -0.311422
     69          1           0        9.768984    0.197661    0.277507
     70          1           0        1.904243   -2.664900   -0.606721
     71          1           0        0.562588   -0.522965    0.924929
     72          1           0       -0.720892   -0.084355   -1.073496
     73          1           0        0.044142   -1.621753   -1.487511
     74          1           0        0.676837   -0.021319   -2.015770
     75          1           0        1.214252   -2.288773    2.328181
     76          1           0        2.674289   -3.062254    1.971544
     77          1           0        0.336660   -4.230593    2.298009
     78          1           0        1.676255   -4.866034    1.379908
     79          1           0        1.095193    5.760194    0.387573
     80          1           0        0.449788    4.110479    0.027416
     81          1           0        0.827804    5.137408   -1.255350
     82          1           0        2.056827    7.533575    0.106800
     83          1           0        2.027435    7.102953   -1.607058
     84          1           0        3.022162    8.534355   -0.988862
     85          1           0        8.817484    4.695113    0.590500
     86          1           0       10.137798    2.436163   -0.966700
     87          1           0       10.085290    4.208679   -2.083022
     88          1           0        9.525376    5.759187   -1.332441
     89          1           0        8.347178    4.642347   -2.193467
     90          1           0       11.052500    3.686615    0.990791
     91          1           0       11.409670    1.977370    0.716634
     92          1           0       10.745245    2.977007    3.285656
     93          1           0       10.363656    1.319881    2.703459
     94          1           0        9.141629    2.676507    2.681278
     95          1           0       10.104717   -2.695044   -0.709049
     96          1           0        9.452251   -3.863544    0.443194
     97          1           0       10.175829   -2.356601    1.064462
     98          1           0        4.266416   -4.270137    1.006256
     99          1           0        2.907141   -6.144928   -2.603970
    100          1           0        2.192244   -7.022210   -1.274185
    101          1           0        3.967482   -7.267479   -1.708163
    102          1           0       -2.582505   -5.210642   -0.795796
    103          1           0       -1.702496   -3.967218   -1.630841
    104          1           0       -3.124854   -2.348089    0.290008
    105          1           0       -5.266592   -3.798191   -2.812995
    106          1           0       -6.094501   -4.403644   -1.417433
    107          1           0       -4.557419   -5.128121   -1.888650
    108          1           0       -6.025653   -2.001987   -1.466022
    109          1           0       -4.784033   -1.096808   -0.490980
    110          1           0       -5.989543   -3.003371    1.183652
    111          1           0       -7.340919   -2.314924    0.339480
    112          1           0       -6.030328    0.044809    0.960318
    113          1           0       -5.792362   -0.970219    2.403796
    114          1           0       -8.388557   -1.553412    2.185870
    115          1           0       -7.249687   -0.382980    4.178058
    116          1           0       -8.911994    0.134388    3.829685
    117          1           0       -7.479492    1.058295    3.348949
    118          1           0       -8.123173    0.872837    0.345302
    119          1           0       -9.214346    1.157133    1.689733
    120          1           0       -9.727611   -1.388329    0.347955
    121          1           0      -10.044539   -0.000774   -0.675969
    122          1           0      -11.044212   -0.022855    2.144051
    123          1           0      -11.762046   -1.272508    1.017948
    124          1           0      -11.633066    1.670607    0.142216
    125          1           0      -12.659184    2.619440    1.867830
    126          1           0      -12.620695    1.073052    2.746329
    127          1           0      -14.049574    1.645469    1.828627
    128          1           0      -13.758547   -0.481951   -0.252820
    129          1           0      -12.597849    0.065458   -1.377784
    130          1           0      -13.930707    1.808265   -2.141962
    131          1           0      -13.994040    2.472492   -0.520103
    132          1           0      -15.827519    0.414455   -0.493618
    133          1           0      -15.879336    0.883323   -2.202981
    134          1           0      -15.931368    2.864384    0.163350
    135          1           0      -18.124043    2.511219    0.698976
    136          1           0      -18.125128    1.047765   -0.365305
    137          1           0      -18.596679    2.561497   -0.989890
    138          1           0      -16.128379    4.575431   -1.256858
    139          1           0      -17.444374    3.918426   -2.189866
    140          1           0      -15.858088    3.344703   -2.553634
 ---------------------------------------------------------------------

 SCF Done:  E(RPBE1PBE) =  -3005.36729562     A.U. after   15 cycles

 Excitation energies and oscillator strengths:

 Excited State   1:      Singlet-A      1.9006 eV  652.33 nm  f=0.4089  <S**2>=0.000
     245 -> 248       -0.15963
     246 -> 247        0.69193
     246 <- 247       -0.10671
 This state for optimization and/or second-order correction.
 Total Energy, E(TD-HF/TD-DFT) =  -3005.29744805
 Copying the excited state density for this state as the 1-particle RhoCI density.

 Excited State   2:      Singlet-A      2.2289 eV  556.27 nm  f=0.1223  <S**2>=0.000
     245 -> 247        0.65944
     246 -> 248        0.22550

 Excited State   3:      Singlet-A      2.9880 eV  414.94 nm  f=0.0004  <S**2>=0.000
     242 -> 247       -0.10660
     243 -> 247        0.63903
     243 -> 248        0.16172
     243 -> 249        0.14071
     243 -> 250       -0.11205

 Excited State   4:      Singlet-A      3.0364 eV  408.33 nm  f=0.0001  <S**2>=0.000
     241 -> 247        0.42204
     241 -> 249       -0.12144
     242 -> 247        0.51762
     242 -> 249       -0.12561

 Excited State   5:      Singlet-A      3.2128 eV  385.90 nm  f=0.0027  <S**2>=0.000
     241 -> 247        0.52326
     242 -> 247       -0.42814
     243 -> 247       -0.15812

 The electronic state is 1-A.
 Alpha  occ. eigenvalues --  -46.93074 -19.25625 -19.25617 -19.21227 -19.19421
 Alpha  occ. eigenvalues --  -19.18844 -19.18347 -14.41461 -14.41107 -14.39405
 Alpha  occ. eigenvalues --  -14.38773 -10.37411 -10.35795 -10.32285 -10.32120
 Alpha  occ. eigenvalues --  -10.29195 -10.28837 -10.28573 -10.28271 -10.28027
 Alpha  occ. eigenvalues --  -10.27815 -10.27642 -10.27629 -10.27164 -10.26318
 Alpha  occ. eigenvalues --  -10.26288 -10.26105 -10.25663 -10.25643 -10.25554
 Alpha  occ. eigenvalues --  -10.25511 -10.25427 -10.25409 -10.25309 -10.25299
 Alpha  occ. eigenvalues --  -10.25032 -10.24891 -10.24616 -10.24531 -10.24088
 Alpha  occ. eigenvalues --  -10.23877 -10.23863 -10.23549 -10.23437 -10.23431
 Alpha  occ. eigenvalues --  -10.23409 -10.23407 -10.23390 -10.23358 -10.23256
 Alpha  occ. eigenvalues --  -10.23061 -10.23035 -10.22968 -10.22951 -10.22931
 Alpha  occ. eigenvalues --  -10.22875 -10.22823 -10.22707 -10.22634 -10.22424
 Alpha  occ. eigenvalues --  -10.22422 -10.22340 -10.22074 -10.21962 -10.21850
 Alpha  occ. eigenvalues --  -10.21240  -3.15101  -1.87917  -1.87469  -1.87331
 Alpha  occ. eigenvalues --   -1.11671  -1.09656  -1.03211  -1.03190  -1.01662
 Alpha  occ. eigenvalues --   -1.01459  -1.00442  -0.99299  -0.97426  -0.95946
 Alpha  occ. eigenvalues --   -0.86330  -0.85194  -0.84208  -0.83385  -0.83332
 Alpha  occ. eigenvalues --   -0.82547  -0.82458  -0.81855  -0.81591  -0.81143
 Alpha  occ. eigenvalues --   -0.80743  -0.79690  -0.78392  -0.77660  -0.77008
 Alpha  occ. eigenvalues --   -0.76416  -0.75854  -0.75386  -0.75121  -0.74308
 Alpha  occ. eigenvalues --   -0.73736  -0.72601  -0.72071  -0.71381  -0.70419
 Alpha  occ. eigenvalues --   -0.70106  -0.69426  -0.69420  -0.69070  -0.68286
 Alpha  occ. eigenvalues --   -0.67857  -0.67044  -0.65661  -0.64815  -0.64168
 Alpha  occ. eigenvalues --   -0.63216  -0.62309  -0.62071  -0.60901  -0.59968
 Alpha  occ. eigenvalues --   -0.59700  -0.59475  -0.58935  -0.58486  -0.58422
 Alpha  occ. eigenvalues --   -0.58258  -0.57573  -0.56692  -0.56332  -0.54736
 Alpha  occ. eigenvalues --   -0.54035  -0.53654  -0.53507  -0.52907  -0.52072
 Alpha  occ. eigenvalues --   -0.51601  -0.51371  -0.50649  -0.50598  -0.50268
 Alpha  occ. eigenvalues --   -0.49853  -0.49403  -0.48736  -0.48654  -0.48303
 Alpha  occ. eigenvalues --   -0.48221  -0.47936  -0.47554  -0.47272  -0.47027
 Alpha  occ. eigenvalues --   -0.46892  -0.46809  -0.46707  -0.46671  -0.46284
 Alpha  occ. eigenvalues --   -0.45855  -0.45742  -0.45697  -0.45160  -0.45031
 Alpha  occ. eigenvalues --   -0.44861  -0.44427  -0.44353  -0.44262  -0.43998
 Alpha  occ. eigenvalues --   -0.43685  -0.43547  -0.43481  -0.43428  -0.43220
 Alpha  occ. eigenvalues --   -0.43067  -0.43039  -0.42800  -0.42518  -0.42382
 Alpha  occ. eigenvalues --   -0.42069  -0.41775  -0.41548  -0.41539  -0.41275
 Alpha  occ. eigenvalues --   -0.40719  -0.40618  -0.40503  -0.40429  -0.40349
 Alpha  occ. eigenvalues --   -0.40309  -0.40211  -0.39846  -0.39722  -0.39617
 Alpha  occ. eigenvalues --   -0.39338  -0.39191  -0.39130  -0.38679  -0.38619
 Alpha  occ. eigenvalues --   -0.38479  -0.38287  -0.38153  -0.37862  -0.37663
 Alpha  occ. eigenvalues --   -0.37374  -0.37366  -0.37280  -0.37063  -0.36958
 Alpha  occ. eigenvalues --   -0.36639  -0.36411  -0.36188  -0.35950  -0.35805
 Alpha  occ. eigenvalues --   -0.35730  -0.35361  -0.35331  -0.35232  -0.35108
 Alpha  occ. eigenvalues --   -0.34689  -0.34265  -0.34135  -0.33780  -0.33414
 Alpha  occ. eigenvalues --   -0.33265  -0.33138  -0.32842  -0.32558  -0.32542
 Alpha  occ. eigenvalues --   -0.32124  -0.31862  -0.31778  -0.31651  -0.31226
 Alpha  occ. eigenvalues --   -0.30863  -0.30716  -0.30637  -0.29880  -0.29693
 Alpha  occ. eigenvalues --   -0.29423  -0.28552  -0.28052  -0.26899  -0.26123
 Alpha  occ. eigenvalues --   -0.25546  -0.25447  -0.25076  -0.24590  -0.20590
 Alpha  occ. eigenvalues --   -0.18570
 Alpha virt. eigenvalues --   -0.10830  -0.04824  -0.03737  -0.02279  -0.01573
 Alpha virt. eigenvalues --   -0.01185   0.00511   0.01186   0.01934   0.03727
 Alpha virt. eigenvalues --    0.04542   0.04878   0.05397   0.05538   0.05692

 Mulliken charges:
               1
     1  Mg   0.975144
     2  C    0.042093
     3  C   -0.045351
     4  C   -0.071042
     5  C   -0.089577
     6  N   -0.366162
     7  C    0.018391
     8  C   -0.131638
     9  C   -0.086640
    10  C    0.030470
    11  C   -0.009673
    12  C   -0.026298
    13  C    0.049793
    14  C    0.218989
    15  O   -0.271229
    16  O   -0.375464
    17  N   -0.462687
    18  C    0.158761
    19  C   -0.185231
    20  C   -0.034099
    21  C    0.152736
    22  C    0.061230
    23  C    0.031732
    24  O   -0.297281
    25  C    0.003724
    26  N   -0.374794
    27  C    0.040169
    28  C   -0.135935
    29  C   -0.071471
    30  C    0.076243
    31  C    0.034260
    32  C   -0.071267
    33  C   -0.055824
    34  N   -0.438672
    35  C    0.125882
    36  C   -0.206836
    37  C    0.008753
    38  C    0.094202
    39  C    0.071416
    40  C    0.134291
    41  O   -0.237729
    42  C   -0.122408
    43  C    0.315003
    44  O   -0.264168
    45  O   -0.378155
    46  C    0.124228
    47  C    0.250899
    48  C   -0.117131
    49  C   -0.257362
    50  C    0.022649
    51  C    0.001940
    52  C   -0.034000
    53  C    0.019321
    54  C   -0.229936
    55  C   -0.070018
    56  C    0.037660
    57  C   -0.090640
    58  C   -0.004132
    59  C   -0.218620
    60  C   -0.022643
    61  C    0.015874
    62  C   -0.060223
    63  C   -0.029001
    64  C   -0.267063
    65  C    0.018384
    66  C   -0.019638
    67  H   -0.007236
    68  H    0.023408
    69  H   -0.008786
    70  H    0.090121
    71  H    0.048847
    72  H    0.039173
    73  H    0.055753
    74  H    0.051209
    75  H    0.036086
    76  H    0.039649
    77  H    0.057147
    78  H    0.071408
    79  H    0.053090
    80  H    0.036284
    81  H    0.050446
    82  H    0.064518
    83  H    0.050685
    84  H    0.065022
    85  H    0.057356
    86  H    0.045507
    87  H    0.044117
    88  H    0.055428
    89  H    0.059409
    90  H    0.041291
    91  H    0.040649
    92  H    0.048079
    93  H    0.051966
    94  H    0.049592
    95  H    0.064544
    96  H    0.061102
    97  H    0.048241
    98  H    0.068300
    99  H    0.069557
   100  H    0.059951
   101  H    0.072821
   102  H    0.049428
   103  H    0.070425
   104  H    0.015764
   105  H    0.057592
   106  H    0.035250
   107  H    0.035503
   108  H    0.022497
   109  H    0.038642
   110  H    0.038659
   111  H    0.033277
   112  H    0.032059
   113  H    0.033433
   114  H    0.048254
   115  H    0.031748
   116  H    0.036841
   117  H    0.028885
   118  H    0.025692
   119  H    0.030297
   120  H    0.025262
   121  H    0.028963
   122  H    0.030733
   123  H    0.037074
   124  H    0.039404
   125  H    0.030924
   126  H    0.037858
   127  H    0.038554
   128  H    0.024975
   129  H    0.020451
   130  H    0.029972
   131  H    0.033561
   132  H    0.029465
   133  H    0.036816
   134  H    0.040777
   135  H    0.037264
   136  H    0.031153
   137  H    0.018820
   138  H    0.038929
   139  H    0.035371
   140  H    0.030493
 Sum of Mulliken charges =  -0.00000

 Dipole moment (field-independent basis, Debye):
    X=             -4.6536    Y=              1.1314    Z=              2.7404  Tot=              5.5178
 Quadrupole moment (field-independent basis, Debye-Ang):
   XX=           -383.4865   YY=           -424.5379   ZZ=           -404.2283
   XY=             17.9000   XZ=             22.3844   YZ=             -0.5414

 Normal termination of Gaussian 16 at Thu Apr 28 11:47:45 2022.
