 Gaussian 16, Revision A.03,
 Gaussian 16:  ES64L-G16RevA.03 25-Dec-2016

 --------------------------------
 #p wB97XD/Def2SVP td=(nstates=5)
 --------------------------------

 -----------------------------------------------------
 step_1551_chromophore_18 TDDFT with wB97XD functional
 -----------------------------------------------------
 Symbolic Z-matrix:
 Charge =  0 Multiplicity = 1

                         Standard orientation:
 ---------------------------------------------------------------------
 Center     Atomic      Atomic             Coordinates (Angstroms)
 Number     Number       Type             X           Y           Z
 ---------------------------------------------------------------------
      1         12           0        5.460608    1.084451    0.398224
      2          6           0        4.646384   -2.233057    0.150525
      3          6           0        1.963735    1.830672    0.049511
      4          6           0        6.176556    4.330762   -0.274990
      5          6           0        8.693630    0.378811    0.235448
      6          7           0        3.544543   -0.099931    0.056487
      7          6           0        3.503393   -1.437929    0.204052
      8          6           0        2.048705   -1.984837    0.232488
      9          6           0        1.191036   -0.672646    0.045981
     10          6           0        2.255208    0.430760    0.053446
     11          6           0        0.236885   -0.590118   -1.196717
     12          6           0        1.702382   -2.844303    1.527098
     13          6           0        0.895507   -4.106083    1.370755
     14          6           0        0.033740   -4.222428    0.150784
     15          8           0        0.384403   -4.517200   -0.982160
     16          8           0       -1.330809   -4.081271    0.425899
     17          7           0        4.210685    2.828674    0.050968
     18          6           0        2.840785    3.017152    0.027209
     19          6           0        2.548712    4.387722   -0.259726
     20          6           0        3.720106    5.104979   -0.428452
     21          6           0        4.818763    4.065743   -0.240585
     22          6           0        1.169109    4.879893   -0.252086
     23          6           0        3.819261    6.591202   -0.643283
     24          8           0        4.932190    7.206460   -0.510280
     25          6           0        2.642433    7.527750   -0.812584
     26          7           0        7.175134    2.218134   -0.076522
     27          6           0        7.259667    3.522276   -0.272313
     28          6           0        8.854263    4.049193   -0.286326
     29          6           0        9.545288    2.714807   -0.095924
     30          6           0        8.392889    1.691676    0.016748
     31          6           0        9.260080    4.737102   -1.606685
     32          6           0       10.650157    2.676578    1.067310
     33          6           0       10.184911    2.386075    2.560839
     34          7           0        6.561623   -0.628120    0.180676
     35          6           0        7.877973   -0.783563    0.201975
     36          6           0        8.241694   -2.207442    0.218224
     37          6           0        7.009391   -2.843708    0.125685
     38          6           0        6.004151   -1.816389    0.151156
     39          6           0        9.600505   -2.801152    0.252051
     40          6           0        6.259250   -4.094748    0.182627
     41          8           0        6.727598   -5.241960    0.263989
     42          6           0        4.731661   -3.786223    0.147911
     43          6           0        4.152758   -4.450212   -1.057448
     44          8           0        4.516538   -4.165620   -2.202087
     45          8           0        3.452732   -5.544453   -0.612544
     46          6           0        3.123964   -6.582033   -1.629493
     47          6           0       -2.221814   -4.186828   -0.698079
     48          6           0       -3.297107   -3.170622   -0.404218
     49          6           0       -4.569000   -3.165490   -0.854907
     50          6           0       -5.100342   -4.187039   -1.808675
     51          6           0       -5.415100   -1.982559   -0.562841
     52          6           0       -6.330224   -2.096290    0.683411
     53          6           0       -6.411952   -0.807998    1.522096
     54          6           0       -7.942873   -0.587356    1.949253
     55          6           0       -7.903662    0.056344    3.423421
     56          6           0       -8.775623    0.379676    1.065575
     57          6           0       -9.974030   -0.326785    0.361986
     58          6           0      -11.373906   -0.259647    1.132414
     59          6           0      -12.264526    0.909241    0.599722
     60          6           0      -12.962360    1.572385    1.839351
     61          6           0      -13.235519    0.420512   -0.567332
     62          6           0      -14.149155    1.565107   -1.102492
     63          6           0      -15.685806    1.240304   -1.190915
     64          6           0      -16.487073    2.484554   -0.693998
     65          6           0      -17.894733    2.110297   -0.288562
     66          6           0      -16.492886    3.660974   -1.725730
     67          1           0        0.883571    1.961892   -0.046157
     68          1           0        6.367545    5.405323   -0.311422
     69          1           0        9.768984    0.197661    0.277507
     70          1           0        1.904243   -2.664900   -0.606721
     71          1           0        0.562588   -0.522965    0.924929
     72          1           0       -0.720892   -0.084355   -1.073496
     73          1           0        0.044142   -1.621753   -1.487511
     74          1           0        0.676837   -0.021319   -2.015770
     75          1           0        1.214252   -2.288773    2.328181
     76          1           0        2.674289   -3.062254    1.971544
     77          1           0        0.336660   -4.230593    2.298009
     78          1           0        1.676255   -4.866034    1.379908
     79          1           0        1.095193    5.760194    0.387573
     80          1           0        0.449788    4.110479    0.027416
     81          1           0        0.827804    5.137408   -1.255350
     82          1           0        2.056827    7.533575    0.106800
     83          1           0        2.027435    7.102953   -1.607058
     84          1           0        3.022162    8.534355   -0.988862
     85          1           0        8.817484    4.695113    0.590500
     86          1           0       10.137798    2.436163   -0.966700
     87          1           0       10.085290    4.208679   -2.083022
     88          1           0        9.525376    5.759187   -1.332441
     89          1           0        8.347178    4.642347   -2.193467
     90          1           0       11.052500    3.686615    0.990791
     91          1           0       11.409670    1.977370    0.716634
     92          1           0       10.745245    2.977007    3.285656
     93          1           0       10.363656    1.319881    2.703459
     94          1           0        9.141629    2.676507    2.681278
     95          1           0       10.104717   -2.695044   -0.709049
     96          1           0        9.452251   -3.863544    0.443194
     97          1           0       10.175829   -2.356601    1.064462
     98          1           0        4.266416   -4.270137    1.006256
     99          1           0        2.907141   -6.144928   -2.603970
    100          1           0        2.192244   -7.022210   -1.274185
    101          1           0        3.967482   -7.267479   -1.708163
    102          1           0       -2.582505   -5.210642   -0.795796
    103          1           0       -1.702496   -3.967218   -1.630841
    104          1           0       -3.124854   -2.348089    0.290008
    105          1           0       -5.266592   -3.798191   -2.812995
    106          1           0       -6.094501   -4.403644   -1.417433
    107          1           0       -4.557419   -5.128121   -1.888650
    108          1           0       -6.025653   -2.001987   -1.466022
    109          1           0       -4.784033   -1.096808   -0.490980
    110          1           0       -5.989543   -3.003371    1.183652
    111          1           0       -7.340919   -2.314924    0.339480
    112          1           0       -6.030328    0.044809    0.960318
    113          1           0       -5.792362   -0.970219    2.403796
    114          1           0       -8.388557   -1.553412    2.185870
    115          1           0       -7.249687   -0.382980    4.178058
    116          1           0       -8.911994    0.134388    3.829685
    117          1           0       -7.479492    1.058295    3.348949
    118          1           0       -8.123173    0.872837    0.345302
    119          1           0       -9.214346    1.157133    1.689733
    120          1           0       -9.727611   -1.388329    0.347955
    121          1           0      -10.044539   -0.000774   -0.675969
    122          1           0      -11.044212   -0.022855    2.144051
    123          1           0      -11.762046   -1.272508    1.017948
    124          1           0      -11.633066    1.670607    0.142216
    125          1           0      -12.659184    2.619440    1.867830
    126          1           0      -12.620695    1.073052    2.746329
    127          1           0      -14.049574    1.645469    1.828627
    128          1           0      -13.758547   -0.481951   -0.252820
    129          1           0      -12.597849    0.065458   -1.377784
    130          1           0      -13.930707    1.808265   -2.141962
    131          1           0      -13.994040    2.472492   -0.520103
    132          1           0      -15.827519    0.414455   -0.493618
    133          1           0      -15.879336    0.883323   -2.202981
    134          1           0      -15.931368    2.864384    0.163350
    135          1           0      -18.124043    2.511219    0.698976
    136          1           0      -18.125128    1.047765   -0.365305
    137          1           0      -18.596679    2.561497   -0.989890
    138          1           0      -16.128379    4.575431   -1.256858
    139          1           0      -17.444374    3.918426   -2.189866
    140          1           0      -15.858088    3.344703   -2.553634
 ---------------------------------------------------------------------

 SCF Done:  E(RwB97XD) =  -3007.87879837     A.U. after   17 cycles

 Excitation energies and oscillator strengths:

 Excited State   1:      Singlet-A      1.6851 eV  735.77 nm  f=0.4177  <S**2>=0.000
     245 -> 248       -0.18189
     246 -> 247        0.68268
     245 <- 248       -0.11218
 This state for optimization and/or second-order correction.
 Total Energy, E(TD-HF/TD-DFT) =  -3007.81687255
 Copying the excited state density for this state as the 1-particle RhoCI density.

 Excited State   2:      Singlet-A      2.1735 eV  570.44 nm  f=0.1247  <S**2>=0.000
     245 -> 247        0.64625
     246 -> 248        0.26870

 Excited State   3:      Singlet-A      3.4695 eV  357.36 nm  f=0.0032  <S**2>=0.000
     242 -> 247        0.39537
     242 -> 248        0.22256
     242 -> 249        0.30973
     242 -> 250       -0.23543
     243 -> 247        0.25808
     243 -> 249        0.12275

 Excited State   4:      Singlet-A      3.5262 eV  351.60 nm  f=0.0004  <S**2>=0.000
     240 -> 247       -0.22010
     240 -> 249        0.15036
     240 -> 250        0.11233
     241 -> 247        0.46580
     241 -> 249       -0.28568
     241 -> 250       -0.23231
     242 -> 247       -0.10954
     243 -> 247        0.16764

 Excited State   5:      Singlet-A      3.5481 eV  349.44 nm  f=0.2106  <S**2>=0.000
     240 -> 247       -0.13666
     242 -> 247        0.21219
     243 -> 247       -0.43145
     245 -> 247       -0.14857
     246 -> 248        0.43913

 The electronic state is 1-A.
 Alpha  occ. eigenvalues --  -46.96005 -19.30183 -19.30152 -19.25863 -19.24157
 Alpha  occ. eigenvalues --  -19.23685 -19.23154 -14.46535 -14.46188 -14.44344
 Alpha  occ. eigenvalues --  -14.43716 -10.44190 -10.42658 -10.39129 -10.38995
 Alpha  occ. eigenvalues --  -10.35662 -10.35123 -10.34851 -10.34796 -10.34374
 Alpha  occ. eigenvalues --  -10.34141 -10.33922 -10.33872 -10.33431 -10.32568
 Alpha  occ. eigenvalues --  -10.32567 -10.32341 -10.32118 -10.32071 -10.31832
 Alpha  occ. eigenvalues --  -10.31819 -10.31811 -10.31773 -10.31772 -10.31700
 Alpha  occ. eigenvalues --  -10.31259 -10.31220 -10.30889 -10.30781 -10.30418
 Alpha  occ. eigenvalues --  -10.30365 -10.30196 -10.30158 -10.29853 -10.29821
 Alpha  occ. eigenvalues --  -10.29814 -10.29758 -10.29742 -10.29707 -10.29685
 Alpha  occ. eigenvalues --  -10.29419 -10.29379 -10.29320 -10.29298 -10.29297
 Alpha  occ. eigenvalues --  -10.29246 -10.29193 -10.29077 -10.28981 -10.28805
 Alpha  occ. eigenvalues --  -10.28778 -10.28714 -10.28484 -10.28388 -10.28272
 Alpha  occ. eigenvalues --  -10.27668  -3.21913  -1.95474  -1.95026  -1.94884
 Alpha  occ. eigenvalues --   -1.19022  -1.17081  -1.10720  -1.10516  -1.09060
 Alpha  occ. eigenvalues --   -1.08985  -1.07742  -1.06633  -1.04818  -1.03332
 Alpha  occ. eigenvalues --   -0.93959  -0.92851  -0.91856  -0.91016  -0.90972
 Alpha  occ. eigenvalues --   -0.90219  -0.90088  -0.89475  -0.89194  -0.88811
 Alpha  occ. eigenvalues --   -0.88347  -0.87301  -0.86038  -0.85277  -0.84647
 Alpha  occ. eigenvalues --   -0.84064  -0.83580  -0.83074  -0.82749  -0.81948
 Alpha  occ. eigenvalues --   -0.81407  -0.80243  -0.79719  -0.78977  -0.78080
 Alpha  occ. eigenvalues --   -0.77734  -0.77128  -0.76988  -0.76764  -0.75955
 Alpha  occ. eigenvalues --   -0.75452  -0.74573  -0.73200  -0.72392  -0.71747
 Alpha  occ. eigenvalues --   -0.70754  -0.69934  -0.69628  -0.68523  -0.67479
 Alpha  occ. eigenvalues --   -0.67327  -0.66910  -0.66417  -0.66098  -0.65913
 Alpha  occ. eigenvalues --   -0.65712  -0.65237  -0.64332  -0.63764  -0.62221
 Alpha  occ. eigenvalues --   -0.61495  -0.61031  -0.60964  -0.60268  -0.59574
 Alpha  occ. eigenvalues --   -0.59008  -0.58857  -0.58075  -0.58006  -0.57702
 Alpha  occ. eigenvalues --   -0.57255  -0.56742  -0.56183  -0.56118  -0.55722
 Alpha  occ. eigenvalues --   -0.55664  -0.55346  -0.54938  -0.54606  -0.54397
 Alpha  occ. eigenvalues --   -0.54302  -0.54230  -0.54159  -0.54039  -0.53618
 Alpha  occ. eigenvalues --   -0.53224  -0.53127  -0.53050  -0.52451  -0.52381
 Alpha  occ. eigenvalues --   -0.52115  -0.51791  -0.51751  -0.51595  -0.51308
 Alpha  occ. eigenvalues --   -0.51006  -0.50895  -0.50806  -0.50708  -0.50537
 Alpha  occ. eigenvalues --   -0.50367  -0.50338  -0.50090  -0.49825  -0.49641
 Alpha  occ. eigenvalues --   -0.49376  -0.49013  -0.48807  -0.48778  -0.48508
 Alpha  occ. eigenvalues --   -0.47940  -0.47819  -0.47771  -0.47650  -0.47576
 Alpha  occ. eigenvalues --   -0.47479  -0.47389  -0.47069  -0.46914  -0.46810
 Alpha  occ. eigenvalues --   -0.46511  -0.46333  -0.46283  -0.45809  -0.45713
 Alpha  occ. eigenvalues --   -0.45583  -0.45457  -0.45236  -0.45005  -0.44725
 Alpha  occ. eigenvalues --   -0.44531  -0.44515  -0.44385  -0.44217  -0.44089
 Alpha  occ. eigenvalues --   -0.43720  -0.43511  -0.43282  -0.42982  -0.42826
 Alpha  occ. eigenvalues --   -0.42775  -0.42444  -0.42406  -0.42285  -0.42241
 Alpha  occ. eigenvalues --   -0.41800  -0.41240  -0.41221  -0.40732  -0.40317
 Alpha  occ. eigenvalues --   -0.40280  -0.40204  -0.39915  -0.39581  -0.39446
 Alpha  occ. eigenvalues --   -0.39145  -0.38879  -0.38799  -0.38609  -0.38277
 Alpha  occ. eigenvalues --   -0.37762  -0.37616  -0.37601  -0.36945  -0.36551
 Alpha  occ. eigenvalues --   -0.36170  -0.35565  -0.34792  -0.33505  -0.32693
 Alpha  occ. eigenvalues --   -0.32639  -0.32376  -0.31954  -0.31282  -0.25576
 Alpha  occ. eigenvalues --   -0.22726
 Alpha virt. eigenvalues --   -0.06702   0.00742   0.02443   0.04183   0.04415
 Alpha virt. eigenvalues --    0.05641   0.07263   0.07871   0.08706   0.10444
 Alpha virt. eigenvalues --    0.10862   0.11662   0.12104   0.12254   0.12413

 Mulliken charges:
               1
     1  Mg   0.967308
     2  C    0.034997
     3  C   -0.056855
     4  C   -0.085887
     5  C   -0.105376
     6  N   -0.333125
     7  C   -0.008880
     8  C   -0.103195
     9  C   -0.064264
    10  C    0.017413
    11  C    0.005696
    12  C   -0.018367
    13  C    0.066748
    14  C    0.206552
    15  O   -0.266180
    16  O   -0.373810
    17  N   -0.432830
    18  C    0.145931
    19  C   -0.168379
    20  C   -0.029700
    21  C    0.145803
    22  C    0.072233
    23  C    0.026410
    24  O   -0.292950
    25  C    0.019020
    26  N   -0.338083
    27  C    0.023846
    28  C   -0.111844
    29  C   -0.051355
    30  C    0.063790
    31  C    0.045094
    32  C   -0.055960
    33  C   -0.037220
    34  N   -0.397031
    35  C    0.114253
    36  C   -0.199659
    37  C    0.010845
    38  C    0.075711
    39  C    0.081549
    40  C    0.115012
    41  O   -0.227669
    42  C   -0.077679
    43  C    0.286980
    44  O   -0.258714
    45  O   -0.374714
    46  C    0.137387
    47  C    0.261900
    48  C   -0.127155
    49  C   -0.242383
    50  C    0.037368
    51  C    0.024251
    52  C   -0.015813
    53  C    0.030385
    54  C   -0.201201
    55  C   -0.052177
    56  C    0.049848
    57  C   -0.072695
    58  C    0.017767
    59  C   -0.189859
    60  C   -0.010264
    61  C    0.027493
    62  C   -0.041767
    63  C   -0.014646
    64  C   -0.232719
    65  C    0.029586
    66  C   -0.009303
    67  H   -0.015553
    68  H    0.018176
    69  H   -0.016883
    70  H    0.071379
    71  H    0.038579
    72  H    0.034213
    73  H    0.045467
    74  H    0.045376
    75  H    0.030024
    76  H    0.029334
    77  H    0.053964
    78  H    0.062877
    79  H    0.046156
    80  H    0.032039
    81  H    0.045612
    82  H    0.058791
    83  H    0.043671
    84  H    0.064474
    85  H    0.047811
    86  H    0.033993
    87  H    0.038697
    88  H    0.050743
    89  H    0.052597
    90  H    0.032086
    91  H    0.033695
    92  H    0.043308
    93  H    0.045402
    94  H    0.040539
    95  H    0.060245
    96  H    0.057347
    97  H    0.043084
    98  H    0.058125
    99  H    0.066349
   100  H    0.057387
   101  H    0.069765
   102  H    0.044139
   103  H    0.065504
   104  H    0.011523
   105  H    0.052318
   106  H    0.027415
   107  H    0.030589
   108  H    0.013323
   109  H    0.030138
   110  H    0.030386
   111  H    0.020284
   112  H    0.023222
   113  H    0.025884
   114  H    0.035860
   115  H    0.026028
   116  H    0.029790
   117  H    0.020299
   118  H    0.019152
   119  H    0.018180
   120  H    0.013717
   121  H    0.020883
   122  H    0.013702
   123  H    0.030741
   124  H    0.026717
   125  H    0.025468
   126  H    0.032520
   127  H    0.030588
   128  H    0.016159
   129  H    0.011756
   130  H    0.021860
   131  H    0.020454
   132  H    0.017899
   133  H    0.030196
   134  H    0.026880
   135  H    0.032431
   136  H    0.025732
   137  H    0.011549
   138  H    0.034063
   139  H    0.029577
   140  H    0.022739
 Sum of Mulliken charges =  -0.00000

 Dipole moment (field-independent basis, Debye):
    X=             -4.7571    Y=              1.1985    Z=              2.7581  Tot=              5.6279
 Quadrupole moment (field-independent basis, Debye-Ang):
   XX=           -384.2831   YY=           -422.6688   ZZ=           -403.8154
   XY=             17.3958   XZ=             22.6685   YZ=             -0.7561

 Normal termination of Gaussian 16 at Thu Apr 28 12:15:10 2022.
