 Gaussian 16, Revision A.03,
 Gaussian 16:  ES64L-G16RevA.03 25-Dec-2016

 --------------------
 #p ZINDO=(nstates=5)
 --------------------

 ------------------------------
 step_1551_chromophore_18 ZINDO
 ------------------------------
 Symbolic Z-matrix:
 Charge =  0 Multiplicity = 1

                         Standard orientation:
 ---------------------------------------------------------------------
 Center     Atomic      Atomic             Coordinates (Angstroms)
 Number     Number       Type             X           Y           Z
 ---------------------------------------------------------------------
      1         12           0        5.460608    1.084451    0.398224
      2          6           0        4.646384   -2.233057    0.150525
      3          6           0        1.963735    1.830672    0.049511
      4          6           0        6.176556    4.330762   -0.274990
      5          6           0        8.693630    0.378811    0.235448
      6          7           0        3.544543   -0.099931    0.056487
      7          6           0        3.503393   -1.437929    0.204052
      8          6           0        2.048705   -1.984837    0.232488
      9          6           0        1.191036   -0.672646    0.045981
     10          6           0        2.255208    0.430760    0.053446
     11          6           0        0.236885   -0.590118   -1.196717
     12          6           0        1.702382   -2.844303    1.527098
     13          6           0        0.895507   -4.106083    1.370755
     14          6           0        0.033740   -4.222428    0.150784
     15          8           0        0.384403   -4.517200   -0.982160
     16          8           0       -1.330809   -4.081271    0.425899
     17          7           0        4.210685    2.828674    0.050968
     18          6           0        2.840785    3.017152    0.027209
     19          6           0        2.548712    4.387722   -0.259726
     20          6           0        3.720106    5.104979   -0.428452
     21          6           0        4.818763    4.065743   -0.240585
     22          6           0        1.169109    4.879893   -0.252086
     23          6           0        3.819261    6.591202   -0.643283
     24          8           0        4.932190    7.206460   -0.510280
     25          6           0        2.642433    7.527750   -0.812584
     26          7           0        7.175134    2.218134   -0.076522
     27          6           0        7.259667    3.522276   -0.272313
     28          6           0        8.854263    4.049193   -0.286326
     29          6           0        9.545288    2.714807   -0.095924
     30          6           0        8.392889    1.691676    0.016748
     31          6           0        9.260080    4.737102   -1.606685
     32          6           0       10.650157    2.676578    1.067310
     33          6           0       10.184911    2.386075    2.560839
     34          7           0        6.561623   -0.628120    0.180676
     35          6           0        7.877973   -0.783563    0.201975
     36          6           0        8.241694   -2.207442    0.218224
     37          6           0        7.009391   -2.843708    0.125685
     38          6           0        6.004151   -1.816389    0.151156
     39          6           0        9.600505   -2.801152    0.252051
     40          6           0        6.259250   -4.094748    0.182627
     41          8           0        6.727598   -5.241960    0.263989
     42          6           0        4.731661   -3.786223    0.147911
     43          6           0        4.152758   -4.450212   -1.057448
     44          8           0        4.516538   -4.165620   -2.202087
     45          8           0        3.452732   -5.544453   -0.612544
     46          6           0        3.123964   -6.582033   -1.629493
     47          6           0       -2.221814   -4.186828   -0.698079
     48          6           0       -3.297107   -3.170622   -0.404218
     49          6           0       -4.569000   -3.165490   -0.854907
     50          6           0       -5.100342   -4.187039   -1.808675
     51          6           0       -5.415100   -1.982559   -0.562841
     52          6           0       -6.330224   -2.096290    0.683411
     53          6           0       -6.411952   -0.807998    1.522096
     54          6           0       -7.942873   -0.587356    1.949253
     55          6           0       -7.903662    0.056344    3.423421
     56          6           0       -8.775623    0.379676    1.065575
     57          6           0       -9.974030   -0.326785    0.361986
     58          6           0      -11.373906   -0.259647    1.132414
     59          6           0      -12.264526    0.909241    0.599722
     60          6           0      -12.962360    1.572385    1.839351
     61          6           0      -13.235519    0.420512   -0.567332
     62          6           0      -14.149155    1.565107   -1.102492
     63          6           0      -15.685806    1.240304   -1.190915
     64          6           0      -16.487073    2.484554   -0.693998
     65          6           0      -17.894733    2.110297   -0.288562
     66          6           0      -16.492886    3.660974   -1.725730
     67          1           0        0.883571    1.961892   -0.046157
     68          1           0        6.367545    5.405323   -0.311422
     69          1           0        9.768984    0.197661    0.277507
     70          1           0        1.904243   -2.664900   -0.606721
     71          1           0        0.562588   -0.522965    0.924929
     72          1           0       -0.720892   -0.084355   -1.073496
     73          1           0        0.044142   -1.621753   -1.487511
     74          1           0        0.676837   -0.021319   -2.015770
     75          1           0        1.214252   -2.288773    2.328181
     76          1           0        2.674289   -3.062254    1.971544
     77          1           0        0.336660   -4.230593    2.298009
     78          1           0        1.676255   -4.866034    1.379908
     79          1           0        1.095193    5.760194    0.387573
     80          1           0        0.449788    4.110479    0.027416
     81          1           0        0.827804    5.137408   -1.255350
     82          1           0        2.056827    7.533575    0.106800
     83          1           0        2.027435    7.102953   -1.607058
     84          1           0        3.022162    8.534355   -0.988862
     85          1           0        8.817484    4.695113    0.590500
     86          1           0       10.137798    2.436163   -0.966700
     87          1           0       10.085290    4.208679   -2.083022
     88          1           0        9.525376    5.759187   -1.332441
     89          1           0        8.347178    4.642347   -2.193467
     90          1           0       11.052500    3.686615    0.990791
     91          1           0       11.409670    1.977370    0.716634
     92          1           0       10.745245    2.977007    3.285656
     93          1           0       10.363656    1.319881    2.703459
     94          1           0        9.141629    2.676507    2.681278
     95          1           0       10.104717   -2.695044   -0.709049
     96          1           0        9.452251   -3.863544    0.443194
     97          1           0       10.175829   -2.356601    1.064462
     98          1           0        4.266416   -4.270137    1.006256
     99          1           0        2.907141   -6.144928   -2.603970
    100          1           0        2.192244   -7.022210   -1.274185
    101          1           0        3.967482   -7.267479   -1.708163
    102          1           0       -2.582505   -5.210642   -0.795796
    103          1           0       -1.702496   -3.967218   -1.630841
    104          1           0       -3.124854   -2.348089    0.290008
    105          1           0       -5.266592   -3.798191   -2.812995
    106          1           0       -6.094501   -4.403644   -1.417433
    107          1           0       -4.557419   -5.128121   -1.888650
    108          1           0       -6.025653   -2.001987   -1.466022
    109          1           0       -4.784033   -1.096808   -0.490980
    110          1           0       -5.989543   -3.003371    1.183652
    111          1           0       -7.340919   -2.314924    0.339480
    112          1           0       -6.030328    0.044809    0.960318
    113          1           0       -5.792362   -0.970219    2.403796
    114          1           0       -8.388557   -1.553412    2.185870
    115          1           0       -7.249687   -0.382980    4.178058
    116          1           0       -8.911994    0.134388    3.829685
    117          1           0       -7.479492    1.058295    3.348949
    118          1           0       -8.123173    0.872837    0.345302
    119          1           0       -9.214346    1.157133    1.689733
    120          1           0       -9.727611   -1.388329    0.347955
    121          1           0      -10.044539   -0.000774   -0.675969
    122          1           0      -11.044212   -0.022855    2.144051
    123          1           0      -11.762046   -1.272508    1.017948
    124          1           0      -11.633066    1.670607    0.142216
    125          1           0      -12.659184    2.619440    1.867830
    126          1           0      -12.620695    1.073052    2.746329
    127          1           0      -14.049574    1.645469    1.828627
    128          1           0      -13.758547   -0.481951   -0.252820
    129          1           0      -12.597849    0.065458   -1.377784
    130          1           0      -13.930707    1.808265   -2.141962
    131          1           0      -13.994040    2.472492   -0.520103
    132          1           0      -15.827519    0.414455   -0.493618
    133          1           0      -15.879336    0.883323   -2.202981
    134          1           0      -15.931368    2.864384    0.163350
    135          1           0      -18.124043    2.511219    0.698976
    136          1           0      -18.125128    1.047765   -0.365305
    137          1           0      -18.596679    2.561497   -0.989890
    138          1           0      -16.128379    4.575431   -1.256858
    139          1           0      -17.444374    3.918426   -2.189866
    140          1           0      -15.858088    3.344703   -2.553634
 ---------------------------------------------------------------------

 SCF Done:  E(RZINDO/S) =  -474.125631729     A.U. after   19 cycles

 Excitation energies and oscillator strengths:

 Excited State   1:      Singlet-A      1.2687 eV  977.25 nm  f=0.6386  <S**2>=0.000
     175 ->178        -0.19636
     176 ->177         0.66105
 This state for optimization and/or second-order correction.
 Total Energy, E(CIS/TDA) =  -474.079007598
 Copying the excited state density for this state as the 1-particle RhoCI density.

 Excited State   2:      Singlet-A      1.9130 eV  648.11 nm  f=0.0564  <S**2>=0.000
     175 ->177         0.55898
     176 ->178         0.40602

 Excited State   3:      Singlet-A      2.8230 eV  439.19 nm  f=0.0012  <S**2>=0.000
     168 ->177         0.26238
     168 ->178         0.19208
     168 ->179         0.34999
     168 ->181         0.32610
     168 ->183        -0.10711
     168 ->186         0.18674
     169 ->177        -0.10560
     169 ->179        -0.13010
     169 ->181        -0.12594

 Excited State   4:      Singlet-A      2.9279 eV  423.45 nm  f=0.0106  <S**2>=0.000
     176 ->179         0.32188
     176 ->180         0.61370

 Excited State   5:      Singlet-A      2.9750 eV  416.75 nm  f=0.0983  <S**2>=0.000
     168 ->177         0.13312
     168 ->179        -0.11951
     168 ->181         0.11902
     169 ->177         0.28339
     169 ->179        -0.34070
     169 ->181         0.24494
     169 ->183        -0.12975
     169 ->186        -0.15344
     169 ->187         0.13042
     175 ->177        -0.12508
     176 ->178         0.19695
     176 ->179         0.11675

 The electronic state is 1-A.
 Alpha  occ. eigenvalues --   -1.86525  -1.80791  -1.77610  -1.74105  -1.70805
 Alpha  occ. eigenvalues --   -1.69509  -1.63358  -1.60450  -1.56914  -1.56144
 Alpha  occ. eigenvalues --   -1.55852  -1.51364  -1.49184  -1.47242  -1.47038
 Alpha  occ. eigenvalues --   -1.43466  -1.42990  -1.40944  -1.38790  -1.37866
 Alpha  occ. eigenvalues --   -1.35829  -1.34081  -1.32031  -1.31169  -1.29068
 Alpha  occ. eigenvalues --   -1.26746  -1.24563  -1.20987  -1.20212  -1.18171
 Alpha  occ. eigenvalues --   -1.17554  -1.15858  -1.15278  -1.14525  -1.14014
 Alpha  occ. eigenvalues --   -1.12881  -1.10377  -1.10131  -1.03943  -1.03538
 Alpha  occ. eigenvalues --   -1.02724  -1.00823  -0.98057  -0.97528  -0.96814
 Alpha  occ. eigenvalues --   -0.95634  -0.94585  -0.93880  -0.92943  -0.92129
 Alpha  occ. eigenvalues --   -0.90602  -0.90312  -0.89159  -0.87967  -0.86873
 Alpha  occ. eigenvalues --   -0.85670  -0.85162  -0.83446  -0.81541  -0.80217
 Alpha  occ. eigenvalues --   -0.79523  -0.78619  -0.76589  -0.75853  -0.75790
 Alpha  occ. eigenvalues --   -0.75064  -0.74783  -0.74335  -0.73624  -0.73103
 Alpha  occ. eigenvalues --   -0.72683  -0.72096  -0.71615  -0.71135  -0.71040
 Alpha  occ. eigenvalues --   -0.70262  -0.69502  -0.68335  -0.68288  -0.68260
 Alpha  occ. eigenvalues --   -0.67378  -0.66697  -0.66583  -0.66349  -0.65676
 Alpha  occ. eigenvalues --   -0.64825  -0.64199  -0.64108  -0.63598  -0.63564
 Alpha  occ. eigenvalues --   -0.63458  -0.63115  -0.62459  -0.62221  -0.61936
 Alpha  occ. eigenvalues --   -0.61644  -0.61424  -0.60877  -0.60826  -0.59697
 Alpha  occ. eigenvalues --   -0.59295  -0.59071  -0.58875  -0.58662  -0.58196
 Alpha  occ. eigenvalues --   -0.58167  -0.57821  -0.57221  -0.56567  -0.56221
 Alpha  occ. eigenvalues --   -0.56205  -0.55352  -0.55174  -0.54656  -0.54378
 Alpha  occ. eigenvalues --   -0.54178  -0.53839  -0.53011  -0.52860  -0.52526
 Alpha  occ. eigenvalues --   -0.52206  -0.52056  -0.51976  -0.51608  -0.51106
 Alpha  occ. eigenvalues --   -0.50753  -0.50506  -0.50413  -0.50031  -0.49906
 Alpha  occ. eigenvalues --   -0.49668  -0.49404  -0.49261  -0.49062  -0.48863
 Alpha  occ. eigenvalues --   -0.48725  -0.48584  -0.48099  -0.47973  -0.47818
 Alpha  occ. eigenvalues --   -0.47453  -0.47434  -0.47178  -0.47006  -0.46728
 Alpha  occ. eigenvalues --   -0.46269  -0.46201  -0.45839  -0.45805  -0.45509
 Alpha  occ. eigenvalues --   -0.45366  -0.45096  -0.44605  -0.44578  -0.43910
 Alpha  occ. eigenvalues --   -0.43661  -0.43464  -0.42893  -0.42852  -0.42238
 Alpha  occ. eigenvalues --   -0.42012  -0.41820  -0.40982  -0.39135  -0.38606
 Alpha  occ. eigenvalues --   -0.37726  -0.37187  -0.35004  -0.34796  -0.34204
 Alpha  occ. eigenvalues --   -0.33291  -0.32824  -0.32557  -0.31658  -0.26267
 Alpha  occ. eigenvalues --   -0.21540
 Alpha virt. eigenvalues --   -0.08214  -0.01679  -0.00492   0.00895   0.01046
 Alpha virt. eigenvalues --    0.01464   0.02808   0.03435   0.04909   0.04983
 Alpha virt. eigenvalues --    0.06610   0.07428   0.07691   0.07837   0.08358

 Mulliken charges:
               1
     1  Mg   0.436779
     2  C   -0.055329
     3  C   -0.088190
     4  C   -0.048597
     5  C   -0.074303
     6  N   -0.285649
     7  C    0.128972
     8  C    0.000014
     9  C    0.010380
    10  C    0.120118
    11  C   -0.051689
    12  C   -0.022525
    13  C    0.014577
    14  C    0.472772
    15  O   -0.515714
    16  O   -0.280444
    17  N   -0.330763
    18  C    0.099013
    19  C    0.030917
    20  C   -0.044061
    21  C    0.126475
    22  C   -0.043942
    23  C    0.319236
    24  O   -0.553534
    25  C   -0.023200
    26  N   -0.247248
    27  C    0.119336
    28  C   -0.003623
    29  C   -0.000407
    30  C    0.126269
    31  C   -0.052159
    32  C   -0.040360
    33  C   -0.055090
    34  N   -0.291349
    35  C    0.096811
    36  C    0.037131
    37  C   -0.051758
    38  C    0.111631
    39  C   -0.033692
    40  C    0.340353
    41  O   -0.530805
    42  C    0.053566
    43  C    0.489250
    44  O   -0.514535
    45  O   -0.268042
    46  C    0.074267
    47  C    0.112290
    48  C   -0.103214
    49  C   -0.008460
    50  C   -0.042373
    51  C   -0.025944
    52  C   -0.035206
    53  C   -0.031612
    54  C   -0.017807
    55  C   -0.073306
    56  C   -0.024956
    57  C   -0.051111
    58  C   -0.042432
    59  C   -0.012029
    60  C   -0.062587
    61  C   -0.034410
    62  C   -0.046449
    63  C   -0.037172
    64  C   -0.005912
    65  C   -0.056680
    66  C   -0.060139
    67  H    0.019290
    68  H    0.039279
    69  H    0.013166
    70  H    0.051195
    71  H    0.025812
    72  H    0.020511
    73  H    0.026994
    74  H    0.025194
    75  H    0.020403
    76  H    0.018529
    77  H    0.033212
    78  H    0.045081
    79  H    0.031974
    80  H    0.020170
    81  H    0.027218
    82  H    0.041019
    83  H    0.032278
    84  H    0.046049
    85  H    0.040720
    86  H    0.028628
    87  H    0.027144
    88  H    0.028131
    89  H    0.033413
    90  H    0.015143
    91  H    0.022218
    92  H    0.021748
    93  H    0.025818
    94  H    0.026082
    95  H    0.038188
    96  H    0.032757
    97  H    0.028907
    98  H    0.048952
    99  H    0.050102
   100  H    0.035290
   101  H    0.049379
   102  H    0.046100
   103  H    0.057828
   104  H    0.030380
   105  H    0.030437
   106  H    0.018139
   107  H    0.024350
   108  H    0.019955
   109  H    0.027185
   110  H    0.025696
   111  H    0.016233
   112  H    0.028003
   113  H    0.022125
   114  H    0.031077
   115  H    0.015969
   116  H    0.014751
   117  H    0.008779
   118  H    0.020383
   119  H    0.021423
   120  H    0.008864
   121  H    0.019550
   122  H    0.024879
   123  H    0.029975
   124  H    0.023209
   125  H    0.012401
   126  H    0.022880
   127  H    0.021886
   128  H    0.023864
   129  H    0.012473
   130  H    0.014470
   131  H    0.024725
   132  H    0.014086
   133  H    0.028113
   134  H    0.021785
   135  H    0.018593
   136  H    0.019474
   137  H    0.012709
   138  H    0.018517
   139  H    0.021179
   140  H    0.016216
 Sum of Mulliken charges =  -0.00000

 Dipole moment (field-independent basis, Debye):
    X=             -6.6145    Y=              2.3511    Z=              4.2980  Tot=              8.2312
 N-N= 4.267747635538D+03 E-N= 0.000000000000D+00  KE=-9.210084695031D+03
 Leave Link  601 at Thu Apr 28 12:27:48 2022, MaxMem=  6710886400 cpu:               0.7 elap:               0.0
 (Enter /sw/apps/gaussian-16.0/g16/l9999.exe)
 1\1\GINC-BP1-COMPUTE155\SP\RZINDO CIS\STO-3G\C55H74Mg1N4O6\OF15641\28-
 Apr-2022\0\\#p ZINDO=(nstates=5)\\step_1551_chromophore_18 ZINDO\\0,1\
 Mg,0,34.219,49.175,25.277\C,0,34.3,47.512,28.27\C,0,32.536,51.861,26.9
 68\C,0,33.27,50.508,22.306\C,0,35.332,46.497,23.675\N,0,33.444,49.574,
 27.382\C,0,33.805,48.805,28.427\C,0,33.418,49.442,29.791\C,0,32.71,50.
 782,29.349\C,0,32.893,50.775,27.827\C,0,31.218,51.001,29.782\C,0,34.64
 ,49.619,30.796\C,0,34.439,49.296,32.253\C,0,33.036,49.335,32.777\O,0,3

 Normal termination of Gaussian 16 at Thu Apr 28 12:27:49 2022.
