 Gaussian 16, Revision A.03,
 Gaussian 16:  ES64L-G16RevA.03 25-Dec-2016

 ------------------------------
 #p blyp/Def2SVP td=(nstates=5)
 ------------------------------

 ---------------------------------------------------
 step_1101_chromophore_19 TDDFT with blyp functional
 ---------------------------------------------------
 Symbolic Z-matrix:
 Charge =  0 Multiplicity = 1

                         Standard orientation:
 ---------------------------------------------------------------------
 Center     Atomic      Atomic             Coordinates (Angstroms)
 Number     Number       Type             X           Y           Z
 ---------------------------------------------------------------------
      1         12           0       -5.744137    0.506429   -0.266752
      2          6           0       -3.549281   -2.210563   -0.494715
      3          6           0       -3.019281    2.466113    0.579485
      4          6           0       -7.969910    2.899473    0.535565
      5          6           0       -8.343094   -1.834390   -0.218723
      6          7           0       -3.536392    0.159867   -0.089568
      7          6           0       -2.839057   -1.037063   -0.276918
      8          6           0       -1.318162   -0.818556   -0.175782
      9          6           0       -1.244837    0.559471    0.430687
     10          6           0       -2.678677    1.106456    0.392170
     11          6           0       -0.607797    0.666328    1.877326
     12          6           0       -0.615876   -1.039140   -1.575490
     13          6           0        0.578546   -1.972418   -1.595881
     14          6           0        1.469752   -1.985866   -0.353997
     15          8           0        1.216728   -2.463630    0.777418
     16          8           0        2.674953   -1.487857   -0.724865
     17          7           0       -5.493090    2.356685    0.460553
     18          6           0       -4.292158    3.063607    0.623875
     19          6           0       -4.583798    4.464331    0.750487
     20          6           0       -6.005435    4.632639    0.756882
     21          6           0       -6.572420    3.268401    0.581217
     22          6           0       -3.593077    5.585452    0.837655
     23          6           0       -6.829631    5.885114    0.839205
     24          8           0       -8.089445    5.813373    0.783305
     25          6           0       -6.151639    7.225171    1.037972
     26          7           0       -7.929003    0.550821    0.255557
     27          6           0       -8.602014    1.727473    0.452713
     28          6           0      -10.102876    1.429923    0.529521
     29          6           0      -10.173739   -0.096310    0.219691
     30          6           0       -8.739724   -0.493766    0.021705
     31          6           0      -10.779186    1.717274    1.937495
     32          6           0      -11.176989   -0.484959   -0.921262
     33          6           0      -10.802274   -0.121552   -2.373297
     34          7           0       -5.979131   -1.530174   -0.534658
     35          6           0       -7.092465   -2.332602   -0.543724
     36          6           0       -6.751588   -3.716822   -0.831566
     37          6           0       -5.358552   -3.679486   -0.782613
     38          6           0       -4.915559   -2.328252   -0.574285
     39          6           0       -7.752764   -4.844955   -1.001017
     40          6           0       -4.179852   -4.519207   -0.851284
     41          8           0       -4.064825   -5.699248   -1.144440
     42          6           0       -2.933238   -3.570831   -0.616472
     43          6           0       -2.195552   -4.048988    0.549727
     44          8           0       -2.266247   -3.600972    1.696231
     45          8           0       -1.389105   -5.077569    0.061000
     46          6           0       -0.628870   -5.806946    1.041118
     47          6           0        3.688701   -1.291265    0.304132
     48          6           0        5.086704   -1.032343   -0.285061
     49          6           0        6.161793   -0.431121    0.278901
     50          6           0        6.263657    0.081235    1.748820
     51          6           0        7.417990   -0.155694   -0.531589
     52          6           0        7.344555    1.189947   -1.304703
     53          6           0        8.391625    1.112218   -2.505216
     54          6           0        9.387402    2.334043   -2.531036
     55          6           0        8.587669    3.611563   -2.902747
     56          6           0       10.419845    2.067994   -3.622116
     57          6           0       11.909541    2.253680   -3.167684
     58          6           0       12.354772    0.980712   -2.486241
     59          6           0       12.763568    1.193113   -1.035622
     60          6           0       14.272764    1.443201   -0.805992
     61          6           0       12.384581    0.029843   -0.077844
     62          6           0       12.405224    0.409032    1.448087
     63          6           0       13.093319   -0.626589    2.389019
     64          6           0       12.211315   -1.023543    3.557549
     65          6           0       12.601238   -0.244311    4.832578
     66          6           0       12.250121   -2.597244    3.731501
     67          1           0       -2.172457    3.100937    0.846960
     68          1           0       -8.663328    3.733981    0.654241
     69          1           0       -9.189832   -2.513333   -0.095080
     70          1           0       -0.943324   -1.502242    0.585680
     71          1           0       -0.727057    1.170066   -0.309064
     72          1           0        0.444948    0.884928    1.701397
     73          1           0       -0.658162   -0.283513    2.410613
     74          1           0       -1.123263    1.450655    2.431452
     75          1           0       -0.415455   -0.141284   -2.158962
     76          1           0       -1.402131   -1.519743   -2.157982
     77          1           0        1.050948   -1.677961   -2.534067
     78          1           0        0.175245   -2.951126   -1.854122
     79          1           0       -2.593490    5.151944    0.791815
     80          1           0       -3.625653    6.006905    1.841707
     81          1           0       -3.604339    6.244845   -0.030295
     82          1           0       -6.838616    8.069953    1.082472
     83          1           0       -5.526972    7.410443    0.164471
     84          1           0       -5.579789    7.136247    1.961726
     85          1           0      -10.568549    2.126997   -0.168005
     86          1           0      -10.443193   -0.702549    1.083866
     87          1           0      -10.778087    0.807890    2.538757
     88          1           0      -11.774098    2.133452    1.776812
     89          1           0      -10.228558    2.483822    2.482225
     90          1           0      -12.114556   -0.067259   -0.554708
     91          1           0      -11.230787   -1.573676   -0.895083
     92          1           0      -11.601548    0.348855   -2.945678
     93          1           0      -10.367738   -0.977082   -2.889415
     94          1           0       -9.989523    0.604070   -2.322736
     95          1           0       -8.750161   -4.412096   -1.079228
     96          1           0       -7.690357   -5.615848   -0.233828
     97          1           0       -7.564544   -5.308663   -1.969242
     98          1           0       -2.256266   -3.585849   -1.471082
     99          1           0       -1.415318   -5.951236    1.782675
    100          1           0        0.286286   -5.295040    1.339431
    101          1           0       -0.359236   -6.804710    0.696414
    102          1           0        3.761241   -2.157536    0.961842
    103          1           0        3.441342   -0.385115    0.856308
    104          1           0        4.981276   -1.258255   -1.345615
    105          1           0        6.898575    0.966756    1.770520
    106          1           0        6.884871   -0.493828    2.436225
    107          1           0        5.325042    0.286378    2.262358
    108          1           0        7.661465   -1.001767   -1.174764
    109          1           0        8.278090   -0.161650    0.137524
    110          1           0        7.594599    2.037538   -0.667092
    111          1           0        6.335261    1.220864   -1.714263
    112          1           0        7.856636    1.172751   -3.452660
    113          1           0        8.942492    0.171685   -2.494231
    114          1           0        9.898333    2.512920   -1.585026
    115          1           0        7.701989    3.719895   -2.277104
    116          1           0        8.247954    3.723125   -3.931782
    117          1           0        9.222075    4.416794   -2.532442
    118          1           0       10.322791    2.848338   -4.377334
    119          1           0       10.194127    1.123363   -4.115882
    120          1           0       11.976455    3.038000   -2.413774
    121          1           0       12.552473    2.573840   -3.987550
    122          1           0       13.186055    0.617026   -3.089945
    123          1           0       11.600199    0.193430   -2.493913
    124          1           0       12.211616    2.045003   -0.637679
    125          1           0       14.421876    2.314768   -0.168257
    126          1           0       14.808000    1.523437   -1.752065
    127          1           0       14.710955    0.627438   -0.230465
    128          1           0       13.156375   -0.719757   -0.253492
    129          1           0       11.400499   -0.367874   -0.323630
    130          1           0       11.410482    0.663796    1.812469
    131          1           0       12.913502    1.369841    1.534348
    132          1           0       14.041123   -0.188664    2.702393
    133          1           0       13.436813   -1.534578    1.894494
    134          1           0       11.187216   -0.731152    3.323827
    135          1           0       11.791304    0.094084    5.477774
    136          1           0       13.146166    0.655819    4.547538
    137          1           0       13.153128   -0.858326    5.543985
    138          1           0       11.734858   -2.924886    4.633652
    139          1           0       13.174846   -3.160455    3.602633
    140          1           0       11.641505   -3.020277    2.932354
 ---------------------------------------------------------------------

 SCF Done:  E(RB-LYP) =  -3007.41334090     A.U. after   21 cycles

 Excitation energies and oscillator strengths:

 Excited State   1:      Singlet-A      1.7675 eV  701.47 nm  f=0.2728  <S**2>=0.000
     245 -> 248        0.17363
     246 -> 247        0.68806
     246 <- 247       -0.15176
 This state for optimization and/or second-order correction.
 Total Energy, E(TD-HF/TD-DFT) =  -3007.34838673
 Copying the excited state density for this state as the 1-particle RhoCI density.

 Excited State   2:      Singlet-A      1.9007 eV  652.32 nm  f=0.0033  <S**2>=0.000
     244 -> 247        0.69959

 Excited State   3:      Singlet-A      2.0359 eV  608.98 nm  f=0.0300  <S**2>=0.000
     243 -> 247        0.61429
     245 -> 247       -0.31096
     246 -> 248        0.11734

 Excited State   4:      Singlet-A      2.0621 eV  601.26 nm  f=0.0586  <S**2>=0.000
     243 -> 247        0.34230
     245 -> 247        0.55153
     246 -> 248       -0.22837

 Excited State   5:      Singlet-A      2.5865 eV  479.35 nm  f=0.0035  <S**2>=0.000
     242 -> 247        0.69080

 The electronic state is 1-A.
 Alpha  occ. eigenvalues --  -46.26536 -18.83673 -18.80807 -18.78066 -18.76407
 Alpha  occ. eigenvalues --  -18.75525 -18.74790 -14.02654 -14.01834 -14.00768
 Alpha  occ. eigenvalues --  -14.00681 -10.05677 -10.03117  -9.99538  -9.99336
 Alpha  occ. eigenvalues --   -9.98708  -9.96162  -9.95951  -9.95914  -9.95826
 Alpha  occ. eigenvalues --   -9.95730  -9.95288  -9.95237  -9.94835  -9.94219
 Alpha  occ. eigenvalues --   -9.94086  -9.94000  -9.93747  -9.93597  -9.93515
 Alpha  occ. eigenvalues --   -9.93245  -9.93189  -9.93150  -9.93084  -9.93082
 Alpha  occ. eigenvalues --   -9.92954  -9.92734  -9.92714  -9.92663  -9.92642
 Alpha  occ. eigenvalues --   -9.92514  -9.92428  -9.92424  -9.92404  -9.92393
 Alpha  occ. eigenvalues --   -9.92327  -9.92253  -9.92193  -9.91911  -9.91886
 Alpha  occ. eigenvalues --   -9.91847  -9.91844  -9.91723  -9.91641  -9.91573
 Alpha  occ. eigenvalues --   -9.91246  -9.91209  -9.91138  -9.91119  -9.91076
 Alpha  occ. eigenvalues --   -9.91015  -9.90919  -9.90911  -9.90896  -9.90776
 Alpha  occ. eigenvalues --   -9.90687  -2.91212  -1.71618  -1.71100  -1.70931
 Alpha  occ. eigenvalues --   -0.98986  -0.96220  -0.91065  -0.90016  -0.89180
 Alpha  occ. eigenvalues --   -0.88944  -0.86629  -0.85307  -0.84719  -0.82907
 Alpha  occ. eigenvalues --   -0.75638  -0.73859  -0.73418  -0.72931  -0.72171
 Alpha  occ. eigenvalues --   -0.71929  -0.71131  -0.70948  -0.70300  -0.70105
 Alpha  occ. eigenvalues --   -0.69596  -0.69475  -0.68160  -0.67333  -0.67018
 Alpha  occ. eigenvalues --   -0.66405  -0.65550  -0.65146  -0.64811  -0.64288
 Alpha  occ. eigenvalues --   -0.63942  -0.62407  -0.61859  -0.61280  -0.60640
 Alpha  occ. eigenvalues --   -0.60438  -0.60008  -0.59643  -0.59395  -0.59157
 Alpha  occ. eigenvalues --   -0.58678  -0.57747  -0.56438  -0.55845  -0.55010
 Alpha  occ. eigenvalues --   -0.54624  -0.53733  -0.52874  -0.52375  -0.51068
 Alpha  occ. eigenvalues --   -0.50852  -0.50522  -0.50435  -0.50285  -0.50140
 Alpha  occ. eigenvalues --   -0.50123  -0.49812  -0.49035  -0.47518  -0.47366
 Alpha  occ. eigenvalues --   -0.46023  -0.45515  -0.45393  -0.44849  -0.44033
 Alpha  occ. eigenvalues --   -0.43696  -0.43389  -0.43071  -0.42528  -0.42299
 Alpha  occ. eigenvalues --   -0.42087  -0.41741  -0.41557  -0.41113  -0.41036
 Alpha  occ. eigenvalues --   -0.40958  -0.40527  -0.40373  -0.40208  -0.40152
 Alpha  occ. eigenvalues --   -0.40016  -0.39552  -0.39471  -0.39345  -0.39156
 Alpha  occ. eigenvalues --   -0.38800  -0.38565  -0.38426  -0.38297  -0.38047
 Alpha  occ. eigenvalues --   -0.37794  -0.37761  -0.37732  -0.37440  -0.37115
 Alpha  occ. eigenvalues --   -0.36905  -0.36857  -0.36550  -0.36244  -0.36206
 Alpha  occ. eigenvalues --   -0.35979  -0.35889  -0.35714  -0.35641  -0.35526
 Alpha  occ. eigenvalues --   -0.35225  -0.34903  -0.34683  -0.34629  -0.34288
 Alpha  occ. eigenvalues --   -0.34196  -0.33948  -0.33886  -0.33736  -0.33550
 Alpha  occ. eigenvalues --   -0.33376  -0.33215  -0.33071  -0.33015  -0.32871
 Alpha  occ. eigenvalues --   -0.32605  -0.32521  -0.32454  -0.32243  -0.32142
 Alpha  occ. eigenvalues --   -0.31991  -0.31871  -0.31713  -0.31649  -0.31497
 Alpha  occ. eigenvalues --   -0.31317  -0.31181  -0.31089  -0.30685  -0.30624
 Alpha  occ. eigenvalues --   -0.30479  -0.30301  -0.30056  -0.29759  -0.29624
 Alpha  occ. eigenvalues --   -0.29226  -0.29154  -0.29114  -0.28991  -0.28939
 Alpha  occ. eigenvalues --   -0.28576  -0.28401  -0.28061  -0.27842  -0.27693
 Alpha  occ. eigenvalues --   -0.27654  -0.27594  -0.27221  -0.27202  -0.26764
 Alpha  occ. eigenvalues --   -0.26394  -0.26148  -0.25818  -0.25802  -0.25465
 Alpha  occ. eigenvalues --   -0.25009  -0.24852  -0.24136  -0.24007  -0.23318
 Alpha  occ. eigenvalues --   -0.22882  -0.22865  -0.21688  -0.21378  -0.20704
 Alpha  occ. eigenvalues --   -0.20655  -0.19993  -0.18382  -0.17933  -0.16981
 Alpha  occ. eigenvalues --   -0.15168
 Alpha virt. eigenvalues --   -0.11020  -0.06618  -0.05888  -0.04842  -0.04252
 Alpha virt. eigenvalues --   -0.02709  -0.02496  -0.02076  -0.01134   0.01108
 Alpha virt. eigenvalues --    0.01114   0.01784   0.02295   0.02901   0.03097

 Mulliken charges:
               1
     1  Mg   0.697688
     2  C    0.029629
     3  C   -0.097298
     4  C   -0.019610
     5  C   -0.104271
     6  N   -0.224728
     7  C   -0.149276
     8  C    0.044180
     9  C    0.009281
    10  C    0.013655
    11  C    0.132477
    12  C    0.100260
    13  C    0.150225
    14  C    0.129135
    15  O   -0.214498
    16  O   -0.254652
    17  N   -0.352711
    18  C    0.179481
    19  C   -0.170069
    20  C    0.052823
    21  C    0.097762
    22  C    0.203466
    23  C   -0.087718
    24  O   -0.200764
    25  C    0.166720
    26  N   -0.197620
    27  C   -0.004388
    28  C    0.034972
    29  C    0.044681
    30  C   -0.013549
    31  C    0.119863
    32  C    0.083047
    33  C    0.077396
    34  N   -0.243907
    35  C    0.150015
    36  C   -0.191429
    37  C    0.103907
    38  C    0.111979
    39  C    0.186537
    40  C   -0.073831
    41  O   -0.118247
    42  C    0.024712
    43  C    0.151299
    44  O   -0.188062
    45  O   -0.284853
    46  C    0.220315
    47  C    0.288231
    48  C   -0.132259
    49  C   -0.082252
    50  C    0.123743
    51  C    0.083531
    52  C    0.113569
    53  C    0.068279
    54  C   -0.085841
    55  C    0.101331
    56  C    0.122577
    57  C    0.069524
    58  C    0.154466
    59  C   -0.127079
    60  C    0.125970
    61  C    0.084060
    62  C    0.062867
    63  C    0.110300
    64  C   -0.058684
    65  C    0.101113
    66  C    0.081636
    67  H   -0.058087
    68  H   -0.049184
    69  H   -0.060981
    70  H    0.012259
    71  H   -0.040256
    72  H   -0.011810
    73  H    0.019875
    74  H   -0.004640
    75  H   -0.019702
    76  H   -0.029527
    77  H   -0.017297
    78  H    0.005418
    79  H   -0.046074
    80  H    0.004315
    81  H    0.009706
    82  H   -0.013078
    83  H   -0.000065
    84  H    0.008623
    85  H   -0.018255
    86  H   -0.021844
    87  H   -0.009998
    88  H   -0.005535
    89  H   -0.006121
    90  H   -0.018000
    91  H   -0.030362
    92  H   -0.001658
    93  H   -0.005391
    94  H   -0.011975
    95  H   -0.021086
    96  H    0.018019
    97  H    0.003442
    98  H    0.000669
    99  H    0.007083
   100  H    0.025974
   101  H    0.002830
   102  H    0.019014
   103  H    0.007294
   104  H   -0.026420
   105  H   -0.021011
   106  H   -0.002605
   107  H   -0.006757
   108  H   -0.019346
   109  H   -0.035631
   110  H   -0.011198
   111  H   -0.026050
   112  H   -0.031491
   113  H   -0.018130
   114  H   -0.035208
   115  H   -0.030734
   116  H   -0.002292
   117  H   -0.022568
   118  H   -0.050111
   119  H   -0.030879
   120  H   -0.034429
   121  H   -0.034963
   122  H   -0.041513
   123  H   -0.040249
   124  H   -0.034049
   125  H   -0.016403
   126  H   -0.016988
   127  H   -0.020499
   128  H   -0.030617
   129  H   -0.033408
   130  H   -0.033459
   131  H   -0.041720
   132  H   -0.035333
   133  H   -0.037103
   134  H   -0.032336
   135  H   -0.028440
   136  H   -0.016462
   137  H   -0.019088
   138  H   -0.021730
   139  H   -0.006754
   140  H   -0.026723
 Sum of Mulliken charges =  -0.00000

 Dipole moment (field-independent basis, Debye):
    X=              4.1974    Y=              2.8313    Z=             -2.2121  Tot=              5.5252
 Quadrupole moment (field-independent basis, Debye-Ang):
   XX=           -379.1900   YY=           -424.7002   ZZ=           -405.5020
   XY=             14.1902   XZ=              9.2117   YZ=             -1.1056

 Normal termination of Gaussian 16 at Wed May  4 00:19:53 2022.
