 Gaussian 16, Revision A.03,
 Gaussian 16:  ES64L-G16RevA.03 25-Dec-2016

 -----------------------------------
 #p cam-b3lyp/Def2SVP td=(nstates=5)
 -----------------------------------

 --------------------------------------------------------
 step_1101_chromophore_19 TDDFT with cam-b3lyp functional
 --------------------------------------------------------
 Symbolic Z-matrix:
 Charge =  0 Multiplicity = 1

                         Standard orientation:
 ---------------------------------------------------------------------
 Center     Atomic      Atomic             Coordinates (Angstroms)
 Number     Number       Type             X           Y           Z
 ---------------------------------------------------------------------
      1         12           0       -5.744137    0.506429   -0.266752
      2          6           0       -3.549281   -2.210563   -0.494715
      3          6           0       -3.019281    2.466113    0.579485
      4          6           0       -7.969910    2.899473    0.535565
      5          6           0       -8.343094   -1.834390   -0.218723
      6          7           0       -3.536392    0.159867   -0.089568
      7          6           0       -2.839057   -1.037063   -0.276918
      8          6           0       -1.318162   -0.818556   -0.175782
      9          6           0       -1.244837    0.559471    0.430687
     10          6           0       -2.678677    1.106456    0.392170
     11          6           0       -0.607797    0.666328    1.877326
     12          6           0       -0.615876   -1.039140   -1.575490
     13          6           0        0.578546   -1.972418   -1.595881
     14          6           0        1.469752   -1.985866   -0.353997
     15          8           0        1.216728   -2.463630    0.777418
     16          8           0        2.674953   -1.487857   -0.724865
     17          7           0       -5.493090    2.356685    0.460553
     18          6           0       -4.292158    3.063607    0.623875
     19          6           0       -4.583798    4.464331    0.750487
     20          6           0       -6.005435    4.632639    0.756882
     21          6           0       -6.572420    3.268401    0.581217
     22          6           0       -3.593077    5.585452    0.837655
     23          6           0       -6.829631    5.885114    0.839205
     24          8           0       -8.089445    5.813373    0.783305
     25          6           0       -6.151639    7.225171    1.037972
     26          7           0       -7.929003    0.550821    0.255557
     27          6           0       -8.602014    1.727473    0.452713
     28          6           0      -10.102876    1.429923    0.529521
     29          6           0      -10.173739   -0.096310    0.219691
     30          6           0       -8.739724   -0.493766    0.021705
     31          6           0      -10.779186    1.717274    1.937495
     32          6           0      -11.176989   -0.484959   -0.921262
     33          6           0      -10.802274   -0.121552   -2.373297
     34          7           0       -5.979131   -1.530174   -0.534658
     35          6           0       -7.092465   -2.332602   -0.543724
     36          6           0       -6.751588   -3.716822   -0.831566
     37          6           0       -5.358552   -3.679486   -0.782613
     38          6           0       -4.915559   -2.328252   -0.574285
     39          6           0       -7.752764   -4.844955   -1.001017
     40          6           0       -4.179852   -4.519207   -0.851284
     41          8           0       -4.064825   -5.699248   -1.144440
     42          6           0       -2.933238   -3.570831   -0.616472
     43          6           0       -2.195552   -4.048988    0.549727
     44          8           0       -2.266247   -3.600972    1.696231
     45          8           0       -1.389105   -5.077569    0.061000
     46          6           0       -0.628870   -5.806946    1.041118
     47          6           0        3.688701   -1.291265    0.304132
     48          6           0        5.086704   -1.032343   -0.285061
     49          6           0        6.161793   -0.431121    0.278901
     50          6           0        6.263657    0.081235    1.748820
     51          6           0        7.417990   -0.155694   -0.531589
     52          6           0        7.344555    1.189947   -1.304703
     53          6           0        8.391625    1.112218   -2.505216
     54          6           0        9.387402    2.334043   -2.531036
     55          6           0        8.587669    3.611563   -2.902747
     56          6           0       10.419845    2.067994   -3.622116
     57          6           0       11.909541    2.253680   -3.167684
     58          6           0       12.354772    0.980712   -2.486241
     59          6           0       12.763568    1.193113   -1.035622
     60          6           0       14.272764    1.443201   -0.805992
     61          6           0       12.384581    0.029843   -0.077844
     62          6           0       12.405224    0.409032    1.448087
     63          6           0       13.093319   -0.626589    2.389019
     64          6           0       12.211315   -1.023543    3.557549
     65          6           0       12.601238   -0.244311    4.832578
     66          6           0       12.250121   -2.597244    3.731501
     67          1           0       -2.172457    3.100937    0.846960
     68          1           0       -8.663328    3.733981    0.654241
     69          1           0       -9.189832   -2.513333   -0.095080
     70          1           0       -0.943324   -1.502242    0.585680
     71          1           0       -0.727057    1.170066   -0.309064
     72          1           0        0.444948    0.884928    1.701397
     73          1           0       -0.658162   -0.283513    2.410613
     74          1           0       -1.123263    1.450655    2.431452
     75          1           0       -0.415455   -0.141284   -2.158962
     76          1           0       -1.402131   -1.519743   -2.157982
     77          1           0        1.050948   -1.677961   -2.534067
     78          1           0        0.175245   -2.951126   -1.854122
     79          1           0       -2.593490    5.151944    0.791815
     80          1           0       -3.625653    6.006905    1.841707
     81          1           0       -3.604339    6.244845   -0.030295
     82          1           0       -6.838616    8.069953    1.082472
     83          1           0       -5.526972    7.410443    0.164471
     84          1           0       -5.579789    7.136247    1.961726
     85          1           0      -10.568549    2.126997   -0.168005
     86          1           0      -10.443193   -0.702549    1.083866
     87          1           0      -10.778087    0.807890    2.538757
     88          1           0      -11.774098    2.133452    1.776812
     89          1           0      -10.228558    2.483822    2.482225
     90          1           0      -12.114556   -0.067259   -0.554708
     91          1           0      -11.230787   -1.573676   -0.895083
     92          1           0      -11.601548    0.348855   -2.945678
     93          1           0      -10.367738   -0.977082   -2.889415
     94          1           0       -9.989523    0.604070   -2.322736
     95          1           0       -8.750161   -4.412096   -1.079228
     96          1           0       -7.690357   -5.615848   -0.233828
     97          1           0       -7.564544   -5.308663   -1.969242
     98          1           0       -2.256266   -3.585849   -1.471082
     99          1           0       -1.415318   -5.951236    1.782675
    100          1           0        0.286286   -5.295040    1.339431
    101          1           0       -0.359236   -6.804710    0.696414
    102          1           0        3.761241   -2.157536    0.961842
    103          1           0        3.441342   -0.385115    0.856308
    104          1           0        4.981276   -1.258255   -1.345615
    105          1           0        6.898575    0.966756    1.770520
    106          1           0        6.884871   -0.493828    2.436225
    107          1           0        5.325042    0.286378    2.262358
    108          1           0        7.661465   -1.001767   -1.174764
    109          1           0        8.278090   -0.161650    0.137524
    110          1           0        7.594599    2.037538   -0.667092
    111          1           0        6.335261    1.220864   -1.714263
    112          1           0        7.856636    1.172751   -3.452660
    113          1           0        8.942492    0.171685   -2.494231
    114          1           0        9.898333    2.512920   -1.585026
    115          1           0        7.701989    3.719895   -2.277104
    116          1           0        8.247954    3.723125   -3.931782
    117          1           0        9.222075    4.416794   -2.532442
    118          1           0       10.322791    2.848338   -4.377334
    119          1           0       10.194127    1.123363   -4.115882
    120          1           0       11.976455    3.038000   -2.413774
    121          1           0       12.552473    2.573840   -3.987550
    122          1           0       13.186055    0.617026   -3.089945
    123          1           0       11.600199    0.193430   -2.493913
    124          1           0       12.211616    2.045003   -0.637679
    125          1           0       14.421876    2.314768   -0.168257
    126          1           0       14.808000    1.523437   -1.752065
    127          1           0       14.710955    0.627438   -0.230465
    128          1           0       13.156375   -0.719757   -0.253492
    129          1           0       11.400499   -0.367874   -0.323630
    130          1           0       11.410482    0.663796    1.812469
    131          1           0       12.913502    1.369841    1.534348
    132          1           0       14.041123   -0.188664    2.702393
    133          1           0       13.436813   -1.534578    1.894494
    134          1           0       11.187216   -0.731152    3.323827
    135          1           0       11.791304    0.094084    5.477774
    136          1           0       13.146166    0.655819    4.547538
    137          1           0       13.153128   -0.858326    5.543985
    138          1           0       11.734858   -2.924886    4.633652
    139          1           0       13.174846   -3.160455    3.602633
    140          1           0       11.641505   -3.020277    2.932354
 ---------------------------------------------------------------------

 SCF Done:  E(RCAM-B3LYP) =  -3007.20591164     A.U. after   17 cycles

 Excitation energies and oscillator strengths:

 Excited State   1:      Singlet-A      1.6848 eV  735.88 nm  f=0.3713  <S**2>=0.000
     245 -> 248       -0.17610
     246 -> 247        0.68573
     245 <- 248       -0.10717
 This state for optimization and/or second-order correction.
 Total Energy, E(TD-HF/TD-DFT) =  -3007.14399502
 Copying the excited state density for this state as the 1-particle RhoCI density.

 Excited State   2:      Singlet-A      2.2830 eV  543.08 nm  f=0.0919  <S**2>=0.000
     245 -> 247        0.62282
     246 -> 248        0.32116

 Excited State   3:      Singlet-A      3.4320 eV  361.26 nm  f=0.0147  <S**2>=0.000
     240 -> 247        0.53665
     240 -> 249        0.31680
     240 -> 250        0.11500
     240 -> 251       -0.10010
     242 -> 247       -0.15648
     244 -> 247        0.10281

 Excited State   4:      Singlet-A      3.4497 eV  359.41 nm  f=0.5343  <S**2>=0.000
     244 -> 247       -0.27504
     245 -> 247       -0.27427
     246 -> 248        0.57301

 Excited State   5:      Singlet-A      3.4980 eV  354.44 nm  f=0.1174  <S**2>=0.000
     240 -> 247       -0.17079
     242 -> 247       -0.21236
     244 -> 247        0.59667
     245 -> 247       -0.11014
     246 -> 248        0.18168

 The electronic state is 1-A.
 Alpha  occ. eigenvalues --  -46.88058 -19.26543 -19.23901 -19.21026 -19.19756
 Alpha  occ. eigenvalues --  -19.19045 -19.17779 -14.41508 -14.40666 -14.39203
 Alpha  occ. eigenvalues --  -14.39075 -10.41082 -10.38883 -10.34983 -10.34615
 Alpha  occ. eigenvalues --  -10.32744 -10.30644 -10.30327 -10.30191 -10.30131
 Alpha  occ. eigenvalues --  -10.30037 -10.29870 -10.29138 -10.28948 -10.28806
 Alpha  occ. eigenvalues --  -10.28491 -10.28287 -10.28009 -10.27739 -10.27492
 Alpha  occ. eigenvalues --  -10.27403 -10.27343 -10.27172 -10.27068 -10.27049
 Alpha  occ. eigenvalues --  -10.26778 -10.26758 -10.26680 -10.26651 -10.26451
 Alpha  occ. eigenvalues --  -10.26435 -10.26408 -10.26399 -10.26244 -10.26145
 Alpha  occ. eigenvalues --  -10.26118 -10.26097 -10.26052 -10.25833 -10.25578
 Alpha  occ. eigenvalues --  -10.25561 -10.25533 -10.25424 -10.25343 -10.25327
 Alpha  occ. eigenvalues --  -10.25280 -10.24910 -10.24887 -10.24782 -10.24739
 Alpha  occ. eigenvalues --  -10.24735 -10.24669 -10.24562 -10.24485 -10.24360
 Alpha  occ. eigenvalues --  -10.24299  -3.16636  -1.91517  -1.91078  -1.90955
 Alpha  occ. eigenvalues --   -1.17397  -1.14927  -1.09766  -1.07859  -1.07335
 Alpha  occ. eigenvalues --   -1.07048  -1.04537  -1.02968  -1.02333  -1.00086
 Alpha  occ. eigenvalues --   -0.93019  -0.90729  -0.90242  -0.89738  -0.88878
 Alpha  occ. eigenvalues --   -0.88629  -0.87713  -0.87524  -0.87055  -0.86544
 Alpha  occ. eigenvalues --   -0.86052  -0.85828  -0.84404  -0.83651  -0.83091
 Alpha  occ. eigenvalues --   -0.82461  -0.81598  -0.81025  -0.80685  -0.80203
 Alpha  occ. eigenvalues --   -0.79711  -0.78164  -0.77360  -0.76729  -0.75961
 Alpha  occ. eigenvalues --   -0.75809  -0.75424  -0.74914  -0.74689  -0.74390
 Alpha  occ. eigenvalues --   -0.73746  -0.72827  -0.71319  -0.70664  -0.69686
 Alpha  occ. eigenvalues --   -0.69277  -0.68455  -0.67282  -0.66746  -0.65252
 Alpha  occ. eigenvalues --   -0.65018  -0.64488  -0.64407  -0.64313  -0.64182
 Alpha  occ. eigenvalues --   -0.64034  -0.63794  -0.62938  -0.61237  -0.60969
 Alpha  occ. eigenvalues --   -0.59718  -0.59111  -0.58827  -0.58297  -0.57787
 Alpha  occ. eigenvalues --   -0.56965  -0.56757  -0.56440  -0.55913  -0.55385
 Alpha  occ. eigenvalues --   -0.55172  -0.54532  -0.54432  -0.54167  -0.53960
 Alpha  occ. eigenvalues --   -0.53729  -0.53661  -0.53174  -0.52963  -0.52830
 Alpha  occ. eigenvalues --   -0.52640  -0.52197  -0.52026  -0.51981  -0.51518
 Alpha  occ. eigenvalues --   -0.51476  -0.51240  -0.51092  -0.50612  -0.50603
 Alpha  occ. eigenvalues --   -0.50327  -0.49938  -0.49871  -0.49818  -0.49537
 Alpha  occ. eigenvalues --   -0.49256  -0.49031  -0.48942  -0.48659  -0.48601
 Alpha  occ. eigenvalues --   -0.48206  -0.48121  -0.47900  -0.47746  -0.47617
 Alpha  occ. eigenvalues --   -0.47318  -0.47023  -0.46852  -0.46585  -0.46461
 Alpha  occ. eigenvalues --   -0.45906  -0.45765  -0.45690  -0.45534  -0.45481
 Alpha  occ. eigenvalues --   -0.45168  -0.44935  -0.44775  -0.44675  -0.44562
 Alpha  occ. eigenvalues --   -0.44483  -0.44407  -0.44118  -0.43856  -0.43815
 Alpha  occ. eigenvalues --   -0.43731  -0.43573  -0.43348  -0.43259  -0.43065
 Alpha  occ. eigenvalues --   -0.42837  -0.42514  -0.42471  -0.42188  -0.41822
 Alpha  occ. eigenvalues --   -0.41727  -0.41677  -0.41164  -0.41057  -0.40757
 Alpha  occ. eigenvalues --   -0.40455  -0.40380  -0.40193  -0.40127  -0.40053
 Alpha  occ. eigenvalues --   -0.39887  -0.39622  -0.39567  -0.38945  -0.38837
 Alpha  occ. eigenvalues --   -0.38554  -0.38456  -0.38049  -0.38013  -0.37720
 Alpha  occ. eigenvalues --   -0.37497  -0.37408  -0.36528  -0.36481  -0.36165
 Alpha  occ. eigenvalues --   -0.36002  -0.35822  -0.35329  -0.34963  -0.34461
 Alpha  occ. eigenvalues --   -0.34021  -0.33764  -0.32595  -0.30956  -0.30551
 Alpha  occ. eigenvalues --   -0.30319  -0.30247  -0.30092  -0.29089  -0.23761
 Alpha  occ. eigenvalues --   -0.20368
 Alpha virt. eigenvalues --   -0.08054  -0.01315   0.00491   0.02006   0.02596
 Alpha virt. eigenvalues --    0.03078   0.04891   0.05330   0.06199   0.06959
 Alpha virt. eigenvalues --    0.07759   0.08430   0.08980   0.09332   0.09521

 Mulliken charges:
               1
     1  Mg   0.828436
     2  C   -0.006460
     3  C   -0.103482
     4  C   -0.044201
     5  C   -0.115381
     6  N   -0.292706
     7  C   -0.096500
     8  C   -0.014942
     9  C   -0.044558
    10  C    0.030341
    11  C    0.078914
    12  C    0.050165
    13  C    0.080183
    14  C    0.204872
    15  O   -0.257502
    16  O   -0.320216
    17  N   -0.438429
    18  C    0.181068
    19  C   -0.175831
    20  C   -0.021723
    21  C    0.124821
    22  C    0.140074
    23  C   -0.005648
    24  O   -0.245975
    25  C    0.083429
    26  N   -0.265568
    27  C    0.014977
    28  C   -0.021035
    29  C   -0.019265
    30  C    0.012894
    31  C    0.065586
    32  C    0.033863
    33  C    0.013907
    34  N   -0.337040
    35  C    0.155514
    36  C   -0.181874
    37  C    0.021421
    38  C    0.151220
    39  C    0.139972
    40  C    0.029047
    41  O   -0.153607
    42  C   -0.046765
    43  C    0.236908
    44  O   -0.221760
    45  O   -0.347163
    46  C    0.180602
    47  C    0.260129
    48  C   -0.148633
    49  C   -0.113443
    50  C    0.064973
    51  C    0.028966
    52  C    0.058774
    53  C    0.019847
    54  C   -0.140196
    55  C    0.043982
    56  C    0.062654
    57  C    0.017489
    58  C    0.096753
    59  C   -0.179535
    60  C    0.065561
    61  C    0.038247
    62  C    0.008465
    63  C    0.052376
    64  C   -0.120150
    65  C    0.042228
    66  C    0.022045
    67  H   -0.026071
    68  H   -0.007451
    69  H   -0.025516
    70  H    0.048606
    71  H   -0.004177
    72  H    0.009865
    73  H    0.043639
    74  H    0.020274
    75  H    0.012047
    76  H    0.002762
    77  H    0.020926
    78  H    0.035522
    79  H   -0.016650
    80  H    0.030249
    81  H    0.035061
    82  H    0.022820
    83  H    0.026960
    84  H    0.034761
    85  H    0.015959
    86  H    0.014007
    87  H    0.013197
    88  H    0.017888
    89  H    0.019751
    90  H    0.010330
    91  H   -0.003358
    92  H    0.023278
    93  H    0.017829
    94  H    0.009535
    95  H    0.004696
    96  H    0.045436
    97  H    0.031813
    98  H    0.042202
    99  H    0.030990
   100  H    0.048253
   101  H    0.027021
   102  H    0.048193
   103  H    0.029957
   104  H    0.008286
   105  H    0.003231
   106  H    0.022645
   107  H    0.017343
   108  H    0.011246
   109  H   -0.008173
   110  H    0.013758
   111  H    0.003446
   112  H   -0.003056
   113  H    0.005954
   114  H   -0.007012
   115  H   -0.005454
   116  H    0.021327
   117  H    0.002501
   118  H   -0.017882
   119  H   -0.000983
   120  H   -0.006760
   121  H   -0.004227
   122  H   -0.010945
   123  H   -0.012283
   124  H   -0.005564
   125  H    0.007623
   126  H    0.007709
   127  H    0.002882
   128  H   -0.003346
   129  H   -0.008267
   130  H   -0.006237
   131  H   -0.012911
   132  H   -0.005421
   133  H   -0.007053
   134  H   -0.001017
   135  H   -0.003038
   136  H    0.006688
   137  H    0.005281
   138  H    0.003335
   139  H    0.016724
   140  H   -0.002070
 Sum of Mulliken charges =  -0.00000

 Dipole moment (field-independent basis, Debye):
    X=              4.2785    Y=              2.5287    Z=             -2.3956  Tot=              5.5171
 Quadrupole moment (field-independent basis, Debye-Ang):
   XX=           -377.8091   YY=           -420.4210   ZZ=           -405.2523
   XY=             16.8204   XZ=             10.5427   YZ=             -0.5893

 Normal termination of Gaussian 16 at Tue May  3 23:17:54 2022.
