 Gaussian 16, Revision A.03,
 Gaussian 16:  ES64L-G16RevA.03 25-Dec-2016

 ---------------------------------
 #p PBE1PBE/Def2SVP td=(nstates=5)
 ---------------------------------

 ------------------------------------------------------
 step_1101_chromophore_19 TDDFT with PBE1PBE functional
 ------------------------------------------------------
 Symbolic Z-matrix:
 Charge =  0 Multiplicity = 1

                         Standard orientation:
 ---------------------------------------------------------------------
 Center     Atomic      Atomic             Coordinates (Angstroms)
 Number     Number       Type             X           Y           Z
 ---------------------------------------------------------------------
      1         12           0       -5.744137    0.506429   -0.266752
      2          6           0       -3.549281   -2.210563   -0.494715
      3          6           0       -3.019281    2.466113    0.579485
      4          6           0       -7.969910    2.899473    0.535565
      5          6           0       -8.343094   -1.834390   -0.218723
      6          7           0       -3.536392    0.159867   -0.089568
      7          6           0       -2.839057   -1.037063   -0.276918
      8          6           0       -1.318162   -0.818556   -0.175782
      9          6           0       -1.244837    0.559471    0.430687
     10          6           0       -2.678677    1.106456    0.392170
     11          6           0       -0.607797    0.666328    1.877326
     12          6           0       -0.615876   -1.039140   -1.575490
     13          6           0        0.578546   -1.972418   -1.595881
     14          6           0        1.469752   -1.985866   -0.353997
     15          8           0        1.216728   -2.463630    0.777418
     16          8           0        2.674953   -1.487857   -0.724865
     17          7           0       -5.493090    2.356685    0.460553
     18          6           0       -4.292158    3.063607    0.623875
     19          6           0       -4.583798    4.464331    0.750487
     20          6           0       -6.005435    4.632639    0.756882
     21          6           0       -6.572420    3.268401    0.581217
     22          6           0       -3.593077    5.585452    0.837655
     23          6           0       -6.829631    5.885114    0.839205
     24          8           0       -8.089445    5.813373    0.783305
     25          6           0       -6.151639    7.225171    1.037972
     26          7           0       -7.929003    0.550821    0.255557
     27          6           0       -8.602014    1.727473    0.452713
     28          6           0      -10.102876    1.429923    0.529521
     29          6           0      -10.173739   -0.096310    0.219691
     30          6           0       -8.739724   -0.493766    0.021705
     31          6           0      -10.779186    1.717274    1.937495
     32          6           0      -11.176989   -0.484959   -0.921262
     33          6           0      -10.802274   -0.121552   -2.373297
     34          7           0       -5.979131   -1.530174   -0.534658
     35          6           0       -7.092465   -2.332602   -0.543724
     36          6           0       -6.751588   -3.716822   -0.831566
     37          6           0       -5.358552   -3.679486   -0.782613
     38          6           0       -4.915559   -2.328252   -0.574285
     39          6           0       -7.752764   -4.844955   -1.001017
     40          6           0       -4.179852   -4.519207   -0.851284
     41          8           0       -4.064825   -5.699248   -1.144440
     42          6           0       -2.933238   -3.570831   -0.616472
     43          6           0       -2.195552   -4.048988    0.549727
     44          8           0       -2.266247   -3.600972    1.696231
     45          8           0       -1.389105   -5.077569    0.061000
     46          6           0       -0.628870   -5.806946    1.041118
     47          6           0        3.688701   -1.291265    0.304132
     48          6           0        5.086704   -1.032343   -0.285061
     49          6           0        6.161793   -0.431121    0.278901
     50          6           0        6.263657    0.081235    1.748820
     51          6           0        7.417990   -0.155694   -0.531589
     52          6           0        7.344555    1.189947   -1.304703
     53          6           0        8.391625    1.112218   -2.505216
     54          6           0        9.387402    2.334043   -2.531036
     55          6           0        8.587669    3.611563   -2.902747
     56          6           0       10.419845    2.067994   -3.622116
     57          6           0       11.909541    2.253680   -3.167684
     58          6           0       12.354772    0.980712   -2.486241
     59          6           0       12.763568    1.193113   -1.035622
     60          6           0       14.272764    1.443201   -0.805992
     61          6           0       12.384581    0.029843   -0.077844
     62          6           0       12.405224    0.409032    1.448087
     63          6           0       13.093319   -0.626589    2.389019
     64          6           0       12.211315   -1.023543    3.557549
     65          6           0       12.601238   -0.244311    4.832578
     66          6           0       12.250121   -2.597244    3.731501
     67          1           0       -2.172457    3.100937    0.846960
     68          1           0       -8.663328    3.733981    0.654241
     69          1           0       -9.189832   -2.513333   -0.095080
     70          1           0       -0.943324   -1.502242    0.585680
     71          1           0       -0.727057    1.170066   -0.309064
     72          1           0        0.444948    0.884928    1.701397
     73          1           0       -0.658162   -0.283513    2.410613
     74          1           0       -1.123263    1.450655    2.431452
     75          1           0       -0.415455   -0.141284   -2.158962
     76          1           0       -1.402131   -1.519743   -2.157982
     77          1           0        1.050948   -1.677961   -2.534067
     78          1           0        0.175245   -2.951126   -1.854122
     79          1           0       -2.593490    5.151944    0.791815
     80          1           0       -3.625653    6.006905    1.841707
     81          1           0       -3.604339    6.244845   -0.030295
     82          1           0       -6.838616    8.069953    1.082472
     83          1           0       -5.526972    7.410443    0.164471
     84          1           0       -5.579789    7.136247    1.961726
     85          1           0      -10.568549    2.126997   -0.168005
     86          1           0      -10.443193   -0.702549    1.083866
     87          1           0      -10.778087    0.807890    2.538757
     88          1           0      -11.774098    2.133452    1.776812
     89          1           0      -10.228558    2.483822    2.482225
     90          1           0      -12.114556   -0.067259   -0.554708
     91          1           0      -11.230787   -1.573676   -0.895083
     92          1           0      -11.601548    0.348855   -2.945678
     93          1           0      -10.367738   -0.977082   -2.889415
     94          1           0       -9.989523    0.604070   -2.322736
     95          1           0       -8.750161   -4.412096   -1.079228
     96          1           0       -7.690357   -5.615848   -0.233828
     97          1           0       -7.564544   -5.308663   -1.969242
     98          1           0       -2.256266   -3.585849   -1.471082
     99          1           0       -1.415318   -5.951236    1.782675
    100          1           0        0.286286   -5.295040    1.339431
    101          1           0       -0.359236   -6.804710    0.696414
    102          1           0        3.761241   -2.157536    0.961842
    103          1           0        3.441342   -0.385115    0.856308
    104          1           0        4.981276   -1.258255   -1.345615
    105          1           0        6.898575    0.966756    1.770520
    106          1           0        6.884871   -0.493828    2.436225
    107          1           0        5.325042    0.286378    2.262358
    108          1           0        7.661465   -1.001767   -1.174764
    109          1           0        8.278090   -0.161650    0.137524
    110          1           0        7.594599    2.037538   -0.667092
    111          1           0        6.335261    1.220864   -1.714263
    112          1           0        7.856636    1.172751   -3.452660
    113          1           0        8.942492    0.171685   -2.494231
    114          1           0        9.898333    2.512920   -1.585026
    115          1           0        7.701989    3.719895   -2.277104
    116          1           0        8.247954    3.723125   -3.931782
    117          1           0        9.222075    4.416794   -2.532442
    118          1           0       10.322791    2.848338   -4.377334
    119          1           0       10.194127    1.123363   -4.115882
    120          1           0       11.976455    3.038000   -2.413774
    121          1           0       12.552473    2.573840   -3.987550
    122          1           0       13.186055    0.617026   -3.089945
    123          1           0       11.600199    0.193430   -2.493913
    124          1           0       12.211616    2.045003   -0.637679
    125          1           0       14.421876    2.314768   -0.168257
    126          1           0       14.808000    1.523437   -1.752065
    127          1           0       14.710955    0.627438   -0.230465
    128          1           0       13.156375   -0.719757   -0.253492
    129          1           0       11.400499   -0.367874   -0.323630
    130          1           0       11.410482    0.663796    1.812469
    131          1           0       12.913502    1.369841    1.534348
    132          1           0       14.041123   -0.188664    2.702393
    133          1           0       13.436813   -1.534578    1.894494
    134          1           0       11.187216   -0.731152    3.323827
    135          1           0       11.791304    0.094084    5.477774
    136          1           0       13.146166    0.655819    4.547538
    137          1           0       13.153128   -0.858326    5.543985
    138          1           0       11.734858   -2.924886    4.633652
    139          1           0       13.174846   -3.160455    3.602633
    140          1           0       11.641505   -3.020277    2.932354
 ---------------------------------------------------------------------

 SCF Done:  E(RPBE1PBE) =  -3005.39431199     A.U. after   15 cycles

 Excitation energies and oscillator strengths:

 Excited State   1:      Singlet-A      1.8286 eV  678.05 nm  f=0.3539  <S**2>=0.000
     245 -> 248        0.16710
     246 -> 247        0.69374
     246 <- 247       -0.11050
 This state for optimization and/or second-order correction.
 Total Energy, E(TD-HF/TD-DFT) =  -3005.32711393
 Copying the excited state density for this state as the 1-particle RhoCI density.

 Excited State   2:      Singlet-A      2.2806 eV  543.66 nm  f=0.0976  <S**2>=0.000
     245 -> 247        0.63768
     246 -> 248       -0.28849

 Excited State   3:      Singlet-A      3.0090 eV  412.04 nm  f=0.0004  <S**2>=0.000
     242 -> 247        0.64973
     242 -> 249       -0.18775
     244 -> 247        0.15748

 Excited State   4:      Singlet-A      3.0594 eV  405.26 nm  f=0.0005  <S**2>=0.000
     243 -> 247        0.64194
     243 -> 248        0.13556
     243 -> 249        0.15025
     243 -> 250       -0.10089
     244 -> 247        0.15861

 Excited State   5:      Singlet-A      3.1284 eV  396.31 nm  f=0.0000  <S**2>=0.000
     242 -> 247       -0.14446
     243 -> 247       -0.16717
     244 -> 247        0.65547

 The electronic state is 1-A.
 Alpha  occ. eigenvalues --  -46.91482 -19.27226 -19.24468 -19.21313 -19.19856
 Alpha  occ. eigenvalues --  -19.19070 -19.18205 -14.41086 -14.40152 -14.38911
 Alpha  occ. eigenvalues --  -14.38765 -10.38102 -10.35752 -10.31954 -10.31914
 Alpha  occ. eigenvalues --  -10.30142 -10.28290 -10.28116 -10.27948 -10.27899
 Alpha  occ. eigenvalues --  -10.27340 -10.27311 -10.27120 -10.26791 -10.26282
 Alpha  occ. eigenvalues --  -10.25964 -10.25903 -10.25476 -10.25354 -10.25350
 Alpha  occ. eigenvalues --  -10.25218 -10.24993 -10.24972 -10.24903 -10.24873
 Alpha  occ. eigenvalues --  -10.24427 -10.24302 -10.24245 -10.24225 -10.24180
 Alpha  occ. eigenvalues --  -10.24033 -10.24007 -10.23945 -10.23911 -10.23815
 Alpha  occ. eigenvalues --  -10.23762 -10.23688 -10.23680 -10.23219 -10.23190
 Alpha  occ. eigenvalues --  -10.23069 -10.23060 -10.23043 -10.22979 -10.22844
 Alpha  occ. eigenvalues --  -10.22692 -10.22528 -10.22487 -10.22440 -10.22224
 Alpha  occ. eigenvalues --  -10.22158 -10.22155 -10.22143 -10.21885 -10.21843
 Alpha  occ. eigenvalues --  -10.21729  -3.13638  -1.86458  -1.85997  -1.85881
 Alpha  occ. eigenvalues --   -1.12212  -1.09563  -1.04327  -1.02685  -1.02028
 Alpha  occ. eigenvalues --   -1.01910  -0.99072  -0.97569  -0.96957  -0.94922
 Alpha  occ. eigenvalues --   -0.87270  -0.84829  -0.84393  -0.83901  -0.82985
 Alpha  occ. eigenvalues --   -0.82928  -0.81843  -0.81823  -0.81290  -0.80938
 Alpha  occ. eigenvalues --   -0.80404  -0.80139  -0.78599  -0.77904  -0.77301
 Alpha  occ. eigenvalues --   -0.76722  -0.75869  -0.75246  -0.74970  -0.74531
 Alpha  occ. eigenvalues --   -0.73864  -0.72411  -0.71741  -0.71051  -0.70176
 Alpha  occ. eigenvalues --   -0.69879  -0.69688  -0.69066  -0.68967  -0.68547
 Alpha  occ. eigenvalues --   -0.68049  -0.67276  -0.65754  -0.64956  -0.63999
 Alpha  occ. eigenvalues --   -0.63521  -0.62872  -0.61530  -0.61273  -0.59746
 Alpha  occ. eigenvalues --   -0.59276  -0.58937  -0.58907  -0.58808  -0.58646
 Alpha  occ. eigenvalues --   -0.58282  -0.57941  -0.57137  -0.55732  -0.55384
 Alpha  occ. eigenvalues --   -0.54167  -0.53648  -0.53505  -0.52882  -0.52051
 Alpha  occ. eigenvalues --   -0.51526  -0.51232  -0.51001  -0.50319  -0.50006
 Alpha  occ. eigenvalues --   -0.49692  -0.48934  -0.48897  -0.48832  -0.48470
 Alpha  occ. eigenvalues --   -0.48216  -0.48103  -0.47641  -0.47438  -0.47378
 Alpha  occ. eigenvalues --   -0.47115  -0.46849  -0.46519  -0.46433  -0.46164
 Alpha  occ. eigenvalues --   -0.46037  -0.45684  -0.45570  -0.45167  -0.45141
 Alpha  occ. eigenvalues --   -0.44909  -0.44608  -0.44521  -0.44434  -0.44098
 Alpha  occ. eigenvalues --   -0.43844  -0.43692  -0.43488  -0.43261  -0.43123
 Alpha  occ. eigenvalues --   -0.42812  -0.42780  -0.42504  -0.42400  -0.42250
 Alpha  occ. eigenvalues --   -0.41964  -0.41692  -0.41484  -0.41270  -0.41108
 Alpha  occ. eigenvalues --   -0.40529  -0.40487  -0.40402  -0.40233  -0.40202
 Alpha  occ. eigenvalues --   -0.39932  -0.39638  -0.39508  -0.39260  -0.39210
 Alpha  occ. eigenvalues --   -0.39189  -0.39072  -0.38904  -0.38592  -0.38496
 Alpha  occ. eigenvalues --   -0.38419  -0.38296  -0.38092  -0.38059  -0.37833
 Alpha  occ. eigenvalues --   -0.37630  -0.37478  -0.37219  -0.37030  -0.36730
 Alpha  occ. eigenvalues --   -0.36639  -0.36389  -0.35957  -0.35883  -0.35681
 Alpha  occ. eigenvalues --   -0.35418  -0.35273  -0.35011  -0.34981  -0.34930
 Alpha  occ. eigenvalues --   -0.34630  -0.34469  -0.34397  -0.33757  -0.33717
 Alpha  occ. eigenvalues --   -0.33327  -0.33264  -0.32973  -0.32822  -0.32699
 Alpha  occ. eigenvalues --   -0.32416  -0.32320  -0.31602  -0.31293  -0.31200
 Alpha  occ. eigenvalues --   -0.30950  -0.30664  -0.30270  -0.29794  -0.29387
 Alpha  occ. eigenvalues --   -0.29007  -0.28698  -0.28199  -0.26569  -0.25807
 Alpha  occ. eigenvalues --   -0.25598  -0.25278  -0.24985  -0.24890  -0.20686
 Alpha  occ. eigenvalues --   -0.18055
 Alpha virt. eigenvalues --   -0.10575  -0.04882  -0.03684  -0.02009  -0.01420
 Alpha virt. eigenvalues --   -0.00465   0.00467   0.00874   0.01711   0.03794
 Alpha virt. eigenvalues --    0.04187   0.04611   0.05218   0.05870   0.06035

 Mulliken charges:
               1
     1  Mg   0.972571
     2  C   -0.022768
     3  C   -0.094532
     4  C   -0.049991
     5  C   -0.103411
     6  N   -0.390925
     7  C   -0.016151
     8  C   -0.084254
     9  C   -0.122879
    10  C    0.074597
    11  C    0.019086
    12  C    0.001608
    13  C    0.005234
    14  C    0.267097
    15  O   -0.291384
    16  O   -0.353271
    17  N   -0.551747
    18  C    0.202418
    19  C   -0.204235
    20  C   -0.070248
    21  C    0.164168
    22  C    0.076324
    23  C    0.045394
    24  O   -0.281556
    25  C    0.008056
    26  N   -0.367756
    27  C    0.055254
    28  C   -0.098012
    29  C   -0.099064
    30  C    0.060725
    31  C    0.009424
    32  C   -0.028254
    33  C   -0.059340
    34  N   -0.468785
    35  C    0.163963
    36  C   -0.186751
    37  C   -0.038868
    38  C    0.197181
    39  C    0.088006
    40  C    0.129372
    41  O   -0.200600
    42  C   -0.152811
    43  C    0.319836
    44  O   -0.257424
    45  O   -0.378575
    46  C    0.127833
    47  C    0.223092
    48  C   -0.154820
    49  C   -0.165190
    50  C    0.005327
    51  C   -0.034176
    52  C   -0.006714
    53  C   -0.033303
    54  C   -0.228784
    55  C   -0.015027
    56  C    0.006627
    57  C   -0.047408
    58  C    0.045066
    59  C   -0.266086
    60  C    0.008059
    61  C   -0.022878
    62  C   -0.052499
    63  C    0.001837
    64  C   -0.215082
    65  C   -0.016382
    66  C   -0.041543
    67  H    0.005760
    68  H    0.025764
    69  H    0.005996
    70  H    0.093381
    71  H    0.034425
    72  H    0.039034
    73  H    0.070049
    74  H    0.047715
    75  H    0.041973
    76  H    0.038314
    77  H    0.053083
    78  H    0.068513
    79  H    0.014551
    80  H    0.059415
    81  H    0.063305
    82  H    0.051170
    83  H    0.054497
    84  H    0.061977
    85  H    0.051571
    86  H    0.051332
    87  H    0.040702
    88  H    0.045637
    89  H    0.047603
    90  H    0.043221
    91  H    0.030050
    92  H    0.050595
    93  H    0.045664
    94  H    0.039438
    95  H    0.030164
    96  H    0.071045
    97  H    0.059019
    98  H    0.080276
    99  H    0.052429
   100  H    0.069860
   101  H    0.049040
   102  H    0.074193
   103  H    0.056846
   104  H    0.038014
   105  H    0.030626
   106  H    0.049877
   107  H    0.043317
   108  H    0.042613
   109  H    0.026552
   110  H    0.044664
   111  H    0.037853
   112  H    0.030309
   113  H    0.037712
   114  H    0.031941
   115  H    0.023718
   116  H    0.047235
   117  H    0.031927
   118  H    0.016455
   119  H    0.031015
   120  H    0.026588
   121  H    0.027685
   122  H    0.022217
   123  H    0.020937
   124  H    0.032788
   125  H    0.034537
   126  H    0.035276
   127  H    0.030867
   128  H    0.030431
   129  H    0.026166
   130  H    0.025333
   131  H    0.019959
   132  H    0.026694
   133  H    0.024690
   134  H    0.035985
   135  H    0.024562
   136  H    0.033989
   137  H    0.032631
   138  H    0.031814
   139  H    0.043392
   140  H    0.027355
 Sum of Mulliken charges =  -0.00000

 Dipole moment (field-independent basis, Debye):
    X=              4.2796    Y=              3.0069    Z=             -2.3202  Tot=              5.7218
 Quadrupole moment (field-independent basis, Debye-Ang):
   XX=           -372.3283   YY=           -417.7492   ZZ=           -402.5440
   XY=             15.0299   XZ=              9.9483   YZ=             -0.4735

 Normal termination of Gaussian 16 at Tue May  3 23:36:58 2022.
