 Gaussian 16, Revision A.03,
 Gaussian 16:  ES64L-G16RevA.03 25-Dec-2016

 --------------------------------
 #p wB97XD/Def2SVP td=(nstates=5)
 --------------------------------

 -----------------------------------------------------
 step_1101_chromophore_19 TDDFT with wB97XD functional
 -----------------------------------------------------
 Symbolic Z-matrix:
 Charge =  0 Multiplicity = 1

                         Standard orientation:
 ---------------------------------------------------------------------
 Center     Atomic      Atomic             Coordinates (Angstroms)
 Number     Number       Type             X           Y           Z
 ---------------------------------------------------------------------
      1         12           0       -5.744137    0.506429   -0.266752
      2          6           0       -3.549281   -2.210563   -0.494715
      3          6           0       -3.019281    2.466113    0.579485
      4          6           0       -7.969910    2.899473    0.535565
      5          6           0       -8.343094   -1.834390   -0.218723
      6          7           0       -3.536392    0.159867   -0.089568
      7          6           0       -2.839057   -1.037063   -0.276918
      8          6           0       -1.318162   -0.818556   -0.175782
      9          6           0       -1.244837    0.559471    0.430687
     10          6           0       -2.678677    1.106456    0.392170
     11          6           0       -0.607797    0.666328    1.877326
     12          6           0       -0.615876   -1.039140   -1.575490
     13          6           0        0.578546   -1.972418   -1.595881
     14          6           0        1.469752   -1.985866   -0.353997
     15          8           0        1.216728   -2.463630    0.777418
     16          8           0        2.674953   -1.487857   -0.724865
     17          7           0       -5.493090    2.356685    0.460553
     18          6           0       -4.292158    3.063607    0.623875
     19          6           0       -4.583798    4.464331    0.750487
     20          6           0       -6.005435    4.632639    0.756882
     21          6           0       -6.572420    3.268401    0.581217
     22          6           0       -3.593077    5.585452    0.837655
     23          6           0       -6.829631    5.885114    0.839205
     24          8           0       -8.089445    5.813373    0.783305
     25          6           0       -6.151639    7.225171    1.037972
     26          7           0       -7.929003    0.550821    0.255557
     27          6           0       -8.602014    1.727473    0.452713
     28          6           0      -10.102876    1.429923    0.529521
     29          6           0      -10.173739   -0.096310    0.219691
     30          6           0       -8.739724   -0.493766    0.021705
     31          6           0      -10.779186    1.717274    1.937495
     32          6           0      -11.176989   -0.484959   -0.921262
     33          6           0      -10.802274   -0.121552   -2.373297
     34          7           0       -5.979131   -1.530174   -0.534658
     35          6           0       -7.092465   -2.332602   -0.543724
     36          6           0       -6.751588   -3.716822   -0.831566
     37          6           0       -5.358552   -3.679486   -0.782613
     38          6           0       -4.915559   -2.328252   -0.574285
     39          6           0       -7.752764   -4.844955   -1.001017
     40          6           0       -4.179852   -4.519207   -0.851284
     41          8           0       -4.064825   -5.699248   -1.144440
     42          6           0       -2.933238   -3.570831   -0.616472
     43          6           0       -2.195552   -4.048988    0.549727
     44          8           0       -2.266247   -3.600972    1.696231
     45          8           0       -1.389105   -5.077569    0.061000
     46          6           0       -0.628870   -5.806946    1.041118
     47          6           0        3.688701   -1.291265    0.304132
     48          6           0        5.086704   -1.032343   -0.285061
     49          6           0        6.161793   -0.431121    0.278901
     50          6           0        6.263657    0.081235    1.748820
     51          6           0        7.417990   -0.155694   -0.531589
     52          6           0        7.344555    1.189947   -1.304703
     53          6           0        8.391625    1.112218   -2.505216
     54          6           0        9.387402    2.334043   -2.531036
     55          6           0        8.587669    3.611563   -2.902747
     56          6           0       10.419845    2.067994   -3.622116
     57          6           0       11.909541    2.253680   -3.167684
     58          6           0       12.354772    0.980712   -2.486241
     59          6           0       12.763568    1.193113   -1.035622
     60          6           0       14.272764    1.443201   -0.805992
     61          6           0       12.384581    0.029843   -0.077844
     62          6           0       12.405224    0.409032    1.448087
     63          6           0       13.093319   -0.626589    2.389019
     64          6           0       12.211315   -1.023543    3.557549
     65          6           0       12.601238   -0.244311    4.832578
     66          6           0       12.250121   -2.597244    3.731501
     67          1           0       -2.172457    3.100937    0.846960
     68          1           0       -8.663328    3.733981    0.654241
     69          1           0       -9.189832   -2.513333   -0.095080
     70          1           0       -0.943324   -1.502242    0.585680
     71          1           0       -0.727057    1.170066   -0.309064
     72          1           0        0.444948    0.884928    1.701397
     73          1           0       -0.658162   -0.283513    2.410613
     74          1           0       -1.123263    1.450655    2.431452
     75          1           0       -0.415455   -0.141284   -2.158962
     76          1           0       -1.402131   -1.519743   -2.157982
     77          1           0        1.050948   -1.677961   -2.534067
     78          1           0        0.175245   -2.951126   -1.854122
     79          1           0       -2.593490    5.151944    0.791815
     80          1           0       -3.625653    6.006905    1.841707
     81          1           0       -3.604339    6.244845   -0.030295
     82          1           0       -6.838616    8.069953    1.082472
     83          1           0       -5.526972    7.410443    0.164471
     84          1           0       -5.579789    7.136247    1.961726
     85          1           0      -10.568549    2.126997   -0.168005
     86          1           0      -10.443193   -0.702549    1.083866
     87          1           0      -10.778087    0.807890    2.538757
     88          1           0      -11.774098    2.133452    1.776812
     89          1           0      -10.228558    2.483822    2.482225
     90          1           0      -12.114556   -0.067259   -0.554708
     91          1           0      -11.230787   -1.573676   -0.895083
     92          1           0      -11.601548    0.348855   -2.945678
     93          1           0      -10.367738   -0.977082   -2.889415
     94          1           0       -9.989523    0.604070   -2.322736
     95          1           0       -8.750161   -4.412096   -1.079228
     96          1           0       -7.690357   -5.615848   -0.233828
     97          1           0       -7.564544   -5.308663   -1.969242
     98          1           0       -2.256266   -3.585849   -1.471082
     99          1           0       -1.415318   -5.951236    1.782675
    100          1           0        0.286286   -5.295040    1.339431
    101          1           0       -0.359236   -6.804710    0.696414
    102          1           0        3.761241   -2.157536    0.961842
    103          1           0        3.441342   -0.385115    0.856308
    104          1           0        4.981276   -1.258255   -1.345615
    105          1           0        6.898575    0.966756    1.770520
    106          1           0        6.884871   -0.493828    2.436225
    107          1           0        5.325042    0.286378    2.262358
    108          1           0        7.661465   -1.001767   -1.174764
    109          1           0        8.278090   -0.161650    0.137524
    110          1           0        7.594599    2.037538   -0.667092
    111          1           0        6.335261    1.220864   -1.714263
    112          1           0        7.856636    1.172751   -3.452660
    113          1           0        8.942492    0.171685   -2.494231
    114          1           0        9.898333    2.512920   -1.585026
    115          1           0        7.701989    3.719895   -2.277104
    116          1           0        8.247954    3.723125   -3.931782
    117          1           0        9.222075    4.416794   -2.532442
    118          1           0       10.322791    2.848338   -4.377334
    119          1           0       10.194127    1.123363   -4.115882
    120          1           0       11.976455    3.038000   -2.413774
    121          1           0       12.552473    2.573840   -3.987550
    122          1           0       13.186055    0.617026   -3.089945
    123          1           0       11.600199    0.193430   -2.493913
    124          1           0       12.211616    2.045003   -0.637679
    125          1           0       14.421876    2.314768   -0.168257
    126          1           0       14.808000    1.523437   -1.752065
    127          1           0       14.710955    0.627438   -0.230465
    128          1           0       13.156375   -0.719757   -0.253492
    129          1           0       11.400499   -0.367874   -0.323630
    130          1           0       11.410482    0.663796    1.812469
    131          1           0       12.913502    1.369841    1.534348
    132          1           0       14.041123   -0.188664    2.702393
    133          1           0       13.436813   -1.534578    1.894494
    134          1           0       11.187216   -0.731152    3.323827
    135          1           0       11.791304    0.094084    5.477774
    136          1           0       13.146166    0.655819    4.547538
    137          1           0       13.153128   -0.858326    5.543985
    138          1           0       11.734858   -2.924886    4.633652
    139          1           0       13.174846   -3.160455    3.602633
    140          1           0       11.641505   -3.020277    2.932354
 ---------------------------------------------------------------------

 SCF Done:  E(RwB97XD) =  -3007.90524229     A.U. after   19 cycles

 Excitation energies and oscillator strengths:

 Excited State   1:      Singlet-A      1.6305 eV  760.40 nm  f=0.3699  <S**2>=0.000
     245 -> 248        0.18144
     246 -> 247        0.68359
     245 <- 248        0.11636
 This state for optimization and/or second-order correction.
 Total Energy, E(TD-HF/TD-DFT) =  -3007.84532202
 Copying the excited state density for this state as the 1-particle RhoCI density.

 Excited State   2:      Singlet-A      2.2263 eV  556.91 nm  f=0.0901  <S**2>=0.000
     245 -> 247        0.62191
     246 -> 248       -0.32205

 Excited State   3:      Singlet-A      3.4446 eV  359.94 nm  f=0.0251  <S**2>=0.000
     240 -> 247        0.47893
     240 -> 249        0.31164
     240 -> 250        0.14409
     241 -> 247       -0.26452
     241 -> 249       -0.14539
     246 -> 248       -0.12138

 Excited State   4:      Singlet-A      3.4664 eV  357.68 nm  f=0.5986  <S**2>=0.000
     240 -> 247        0.15160
     244 -> 247        0.18560
     245 -> 247        0.28060
     246 -> 248        0.58475
     245 <- 247       -0.10627

 Excited State   5:      Singlet-A      3.5183 eV  352.40 nm  f=0.0352  <S**2>=0.000
     240 -> 247       -0.20523
     241 -> 247       -0.22062
     244 -> 247        0.60769

 The electronic state is 1-A.
 Alpha  occ. eigenvalues --  -46.94404 -19.31775 -19.29143 -19.25963 -19.24714
 Alpha  occ. eigenvalues --  -19.24177 -19.22775 -14.46110 -14.45256 -14.43818
 Alpha  occ. eigenvalues --  -14.43674 -10.44894 -10.42746 -10.39068 -10.38541
 Alpha  occ. eigenvalues --  -10.36619 -10.34729 -10.34360 -10.34140 -10.34013
 Alpha  occ. eigenvalues --  -10.33961 -10.33904 -10.33105 -10.32917 -10.32860
 Alpha  occ. eigenvalues --  -10.32714 -10.32317 -10.31914 -10.31727 -10.31570
 Alpha  occ. eigenvalues --  -10.31456 -10.31379 -10.31258 -10.31116 -10.31059
 Alpha  occ. eigenvalues --  -10.30790 -10.30707 -10.30624 -10.30593 -10.30477
 Alpha  occ. eigenvalues --  -10.30470 -10.30386 -10.30300 -10.30274 -10.30101
 Alpha  occ. eigenvalues --  -10.30063 -10.30053 -10.30037 -10.29693 -10.29654
 Alpha  occ. eigenvalues --  -10.29539 -10.29369 -10.29316 -10.29277 -10.29206
 Alpha  occ. eigenvalues --  -10.29143 -10.28838 -10.28795 -10.28794 -10.28585
 Alpha  occ. eigenvalues --  -10.28584 -10.28569 -10.28499 -10.28315 -10.28211
 Alpha  occ. eigenvalues --  -10.28162  -3.20424  -1.93992  -1.93534  -1.93410
 Alpha  occ. eigenvalues --   -1.19585  -1.17104  -1.12078  -1.10036  -1.09539
 Alpha  occ. eigenvalues --   -1.09203  -1.06615  -1.04969  -1.04328  -1.02070
 Alpha  occ. eigenvalues --   -0.95043  -0.92504  -0.92056  -0.91560  -0.90651
 Alpha  occ. eigenvalues --   -0.90525  -0.89494  -0.89428  -0.89022  -0.88446
 Alpha  occ. eigenvalues --   -0.87965  -0.87725  -0.86250  -0.85606  -0.84937
 Alpha  occ. eigenvalues --   -0.84338  -0.83485  -0.82906  -0.82626  -0.82145
 Alpha  occ. eigenvalues --   -0.81530  -0.80107  -0.79260  -0.78637  -0.77839
 Alpha  occ. eigenvalues --   -0.77582  -0.77366  -0.76739  -0.76608  -0.76216
 Alpha  occ. eigenvalues --   -0.75650  -0.74826  -0.73271  -0.72572  -0.71596
 Alpha  occ. eigenvalues --   -0.71156  -0.70472  -0.69153  -0.68714  -0.67243
 Alpha  occ. eigenvalues --   -0.66893  -0.66435  -0.66358  -0.66285  -0.66032
 Alpha  occ. eigenvalues --   -0.65973  -0.65603  -0.64770  -0.63242  -0.62893
 Alpha  occ. eigenvalues --   -0.61692  -0.61121  -0.60801  -0.60283  -0.59736
 Alpha  occ. eigenvalues --   -0.58897  -0.58679  -0.58404  -0.57829  -0.57357
 Alpha  occ. eigenvalues --   -0.57097  -0.56401  -0.56351  -0.56157  -0.55881
 Alpha  occ. eigenvalues --   -0.55667  -0.55537  -0.55067  -0.54858  -0.54739
 Alpha  occ. eigenvalues --   -0.54504  -0.54117  -0.53935  -0.53831  -0.53438
 Alpha  occ. eigenvalues --   -0.53381  -0.53205  -0.52999  -0.52606  -0.52485
 Alpha  occ. eigenvalues --   -0.52206  -0.51849  -0.51766  -0.51707  -0.51464
 Alpha  occ. eigenvalues --   -0.51144  -0.50953  -0.50804  -0.50581  -0.50537
 Alpha  occ. eigenvalues --   -0.50094  -0.50028  -0.49779  -0.49659  -0.49495
 Alpha  occ. eigenvalues --   -0.49246  -0.48954  -0.48817  -0.48492  -0.48356
 Alpha  occ. eigenvalues --   -0.47757  -0.47721  -0.47595  -0.47432  -0.47396
 Alpha  occ. eigenvalues --   -0.47087  -0.46835  -0.46704  -0.46508  -0.46486
 Alpha  occ. eigenvalues --   -0.46420  -0.46280  -0.46023  -0.45838  -0.45768
 Alpha  occ. eigenvalues --   -0.45593  -0.45512  -0.45210  -0.45153  -0.44967
 Alpha  occ. eigenvalues --   -0.44743  -0.44381  -0.44340  -0.44091  -0.43773
 Alpha  occ. eigenvalues --   -0.43629  -0.43527  -0.43001  -0.42980  -0.42720
 Alpha  occ. eigenvalues --   -0.42404  -0.42290  -0.42049  -0.41991  -0.41973
 Alpha  occ. eigenvalues --   -0.41816  -0.41494  -0.41453  -0.40784  -0.40723
 Alpha  occ. eigenvalues --   -0.40391  -0.40310  -0.39936  -0.39882  -0.39720
 Alpha  occ. eigenvalues --   -0.39347  -0.39331  -0.38634  -0.38314  -0.38095
 Alpha  occ. eigenvalues --   -0.37860  -0.37833  -0.37171  -0.36876  -0.36293
 Alpha  occ. eigenvalues --   -0.35972  -0.35752  -0.34864  -0.33202  -0.32607
 Alpha  occ. eigenvalues --   -0.32440  -0.32341  -0.31965  -0.31215  -0.25687
 Alpha  occ. eigenvalues --   -0.22174
 Alpha virt. eigenvalues --   -0.06413   0.00616   0.02540   0.04497   0.05324
 Alpha virt. eigenvalues --    0.05489   0.07146   0.07496   0.08528   0.10516
 Alpha virt. eigenvalues --    0.10818   0.11087   0.11968   0.12515   0.12699

 Mulliken charges:
               1
     1  Mg   0.963550
     2  C   -0.024066
     3  C   -0.111624
     4  C   -0.059272
     5  C   -0.122512
     6  N   -0.359364
     7  C   -0.045940
     8  C   -0.055852
     9  C   -0.096938
    10  C    0.058042
    11  C    0.031452
    12  C    0.012112
    13  C    0.020014
    14  C    0.256182
    15  O   -0.287092
    16  O   -0.351651
    17  N   -0.521676
    18  C    0.193875
    19  C   -0.194724
    20  C   -0.064861
    21  C    0.149403
    22  C    0.090309
    23  C    0.039288
    24  O   -0.277610
    25  C    0.022347
    26  N   -0.332073
    27  C    0.038909
    28  C   -0.076840
    29  C   -0.068525
    30  C    0.042649
    31  C    0.020463
    32  C   -0.013823
    33  C   -0.041673
    34  N   -0.429411
    35  C    0.164648
    36  C   -0.188084
    37  C   -0.030834
    38  C    0.183128
    39  C    0.100919
    40  C    0.109501
    41  O   -0.189058
    42  C   -0.111245
    43  C    0.298039
    44  O   -0.249587
    45  O   -0.377920
    46  C    0.141640
    47  C    0.235800
    48  C   -0.166870
    49  C   -0.148445
    50  C    0.017955
    51  C   -0.014315
    52  C    0.008946
    53  C   -0.013905
    54  C   -0.198307
    55  C   -0.003223
    56  C    0.020837
    57  C   -0.026546
    58  C    0.055904
    59  C   -0.231995
    60  C    0.017940
    61  C    0.001429
    62  C   -0.036487
    63  C    0.013442
    64  C   -0.184402
    65  C   -0.005986
    66  C   -0.028489
    67  H   -0.002304
    68  H    0.020543
    69  H   -0.001627
    70  H    0.068652
    71  H    0.022802
    72  H    0.032430
    73  H    0.065944
    74  H    0.041468
    75  H    0.037160
    76  H    0.026825
    77  H    0.049201
    78  H    0.062340
    79  H    0.007817
    80  H    0.052830
    81  H    0.057295
    82  H    0.049612
    83  H    0.047610
    84  H    0.055156
    85  H    0.043134
    86  H    0.039954
    87  H    0.034109
    88  H    0.040000
    89  H    0.041834
    90  H    0.035847
    91  H    0.020961
    92  H    0.046710
    93  H    0.039606
    94  H    0.029264
    95  H    0.025170
    96  H    0.068569
    97  H    0.055434
    98  H    0.069920
    99  H    0.047358
   100  H    0.068389
   101  H    0.045719
   102  H    0.069967
   103  H    0.050049
   104  H    0.035355
   105  H    0.023995
   106  H    0.044720
   107  H    0.038905
   108  H    0.034816
   109  H    0.017457
   110  H    0.035512
   111  H    0.028309
   112  H    0.021057
   113  H    0.024608
   114  H    0.016584
   115  H    0.016400
   116  H    0.042002
   117  H    0.025279
   118  H    0.007563
   119  H    0.022355
   120  H    0.014256
   121  H    0.022457
   122  H    0.014822
   123  H    0.008019
   124  H    0.015225
   125  H    0.029353
   126  H    0.029931
   127  H    0.022368
   128  H    0.017349
   129  H    0.016245
   130  H    0.016559
   131  H    0.009814
   132  H    0.018403
   133  H    0.015149
   134  H    0.024397
   135  H    0.019482
   136  H    0.027085
   137  H    0.026792
   138  H    0.026348
   139  H    0.037856
   140  H    0.019924
 Sum of Mulliken charges =  -0.00000

 Dipole moment (field-independent basis, Debye):
    X=              4.2931    Y=              2.4511    Z=             -2.4703  Tot=              5.5264
 Quadrupole moment (field-independent basis, Debye-Ang):
   XX=           -372.5610   YY=           -416.1653   ZZ=           -402.1096
   XY=             17.9205   XZ=             11.0749   YZ=             -0.4622

 Normal termination of Gaussian 16 at Wed May  4 00:06:57 2022.
