 Gaussian 16, Revision A.03,
 Gaussian 16:  ES64L-G16RevA.03 25-Dec-2016

 --------------------
 #p ZINDO=(nstates=5)
 --------------------

 ------------------------------
 step_1101_chromophore_19 ZINDO
 ------------------------------
 Symbolic Z-matrix:
 Charge =  0 Multiplicity = 1

                         Standard orientation:
 ---------------------------------------------------------------------
 Center     Atomic      Atomic             Coordinates (Angstroms)
 Number     Number       Type             X           Y           Z
 ---------------------------------------------------------------------
      1         12           0       -5.744137    0.506429   -0.266752
      2          6           0       -3.549281   -2.210563   -0.494715
      3          6           0       -3.019281    2.466113    0.579485
      4          6           0       -7.969910    2.899473    0.535565
      5          6           0       -8.343094   -1.834390   -0.218723
      6          7           0       -3.536392    0.159867   -0.089568
      7          6           0       -2.839057   -1.037063   -0.276918
      8          6           0       -1.318162   -0.818556   -0.175782
      9          6           0       -1.244837    0.559471    0.430687
     10          6           0       -2.678677    1.106456    0.392170
     11          6           0       -0.607797    0.666328    1.877326
     12          6           0       -0.615876   -1.039140   -1.575490
     13          6           0        0.578546   -1.972418   -1.595881
     14          6           0        1.469752   -1.985866   -0.353997
     15          8           0        1.216728   -2.463630    0.777418
     16          8           0        2.674953   -1.487857   -0.724865
     17          7           0       -5.493090    2.356685    0.460553
     18          6           0       -4.292158    3.063607    0.623875
     19          6           0       -4.583798    4.464331    0.750487
     20          6           0       -6.005435    4.632639    0.756882
     21          6           0       -6.572420    3.268401    0.581217
     22          6           0       -3.593077    5.585452    0.837655
     23          6           0       -6.829631    5.885114    0.839205
     24          8           0       -8.089445    5.813373    0.783305
     25          6           0       -6.151639    7.225171    1.037972
     26          7           0       -7.929003    0.550821    0.255557
     27          6           0       -8.602014    1.727473    0.452713
     28          6           0      -10.102876    1.429923    0.529521
     29          6           0      -10.173739   -0.096310    0.219691
     30          6           0       -8.739724   -0.493766    0.021705
     31          6           0      -10.779186    1.717274    1.937495
     32          6           0      -11.176989   -0.484959   -0.921262
     33          6           0      -10.802274   -0.121552   -2.373297
     34          7           0       -5.979131   -1.530174   -0.534658
     35          6           0       -7.092465   -2.332602   -0.543724
     36          6           0       -6.751588   -3.716822   -0.831566
     37          6           0       -5.358552   -3.679486   -0.782613
     38          6           0       -4.915559   -2.328252   -0.574285
     39          6           0       -7.752764   -4.844955   -1.001017
     40          6           0       -4.179852   -4.519207   -0.851284
     41          8           0       -4.064825   -5.699248   -1.144440
     42          6           0       -2.933238   -3.570831   -0.616472
     43          6           0       -2.195552   -4.048988    0.549727
     44          8           0       -2.266247   -3.600972    1.696231
     45          8           0       -1.389105   -5.077569    0.061000
     46          6           0       -0.628870   -5.806946    1.041118
     47          6           0        3.688701   -1.291265    0.304132
     48          6           0        5.086704   -1.032343   -0.285061
     49          6           0        6.161793   -0.431121    0.278901
     50          6           0        6.263657    0.081235    1.748820
     51          6           0        7.417990   -0.155694   -0.531589
     52          6           0        7.344555    1.189947   -1.304703
     53          6           0        8.391625    1.112218   -2.505216
     54          6           0        9.387402    2.334043   -2.531036
     55          6           0        8.587669    3.611563   -2.902747
     56          6           0       10.419845    2.067994   -3.622116
     57          6           0       11.909541    2.253680   -3.167684
     58          6           0       12.354772    0.980712   -2.486241
     59          6           0       12.763568    1.193113   -1.035622
     60          6           0       14.272764    1.443201   -0.805992
     61          6           0       12.384581    0.029843   -0.077844
     62          6           0       12.405224    0.409032    1.448087
     63          6           0       13.093319   -0.626589    2.389019
     64          6           0       12.211315   -1.023543    3.557549
     65          6           0       12.601238   -0.244311    4.832578
     66          6           0       12.250121   -2.597244    3.731501
     67          1           0       -2.172457    3.100937    0.846960
     68          1           0       -8.663328    3.733981    0.654241
     69          1           0       -9.189832   -2.513333   -0.095080
     70          1           0       -0.943324   -1.502242    0.585680
     71          1           0       -0.727057    1.170066   -0.309064
     72          1           0        0.444948    0.884928    1.701397
     73          1           0       -0.658162   -0.283513    2.410613
     74          1           0       -1.123263    1.450655    2.431452
     75          1           0       -0.415455   -0.141284   -2.158962
     76          1           0       -1.402131   -1.519743   -2.157982
     77          1           0        1.050948   -1.677961   -2.534067
     78          1           0        0.175245   -2.951126   -1.854122
     79          1           0       -2.593490    5.151944    0.791815
     80          1           0       -3.625653    6.006905    1.841707
     81          1           0       -3.604339    6.244845   -0.030295
     82          1           0       -6.838616    8.069953    1.082472
     83          1           0       -5.526972    7.410443    0.164471
     84          1           0       -5.579789    7.136247    1.961726
     85          1           0      -10.568549    2.126997   -0.168005
     86          1           0      -10.443193   -0.702549    1.083866
     87          1           0      -10.778087    0.807890    2.538757
     88          1           0      -11.774098    2.133452    1.776812
     89          1           0      -10.228558    2.483822    2.482225
     90          1           0      -12.114556   -0.067259   -0.554708
     91          1           0      -11.230787   -1.573676   -0.895083
     92          1           0      -11.601548    0.348855   -2.945678
     93          1           0      -10.367738   -0.977082   -2.889415
     94          1           0       -9.989523    0.604070   -2.322736
     95          1           0       -8.750161   -4.412096   -1.079228
     96          1           0       -7.690357   -5.615848   -0.233828
     97          1           0       -7.564544   -5.308663   -1.969242
     98          1           0       -2.256266   -3.585849   -1.471082
     99          1           0       -1.415318   -5.951236    1.782675
    100          1           0        0.286286   -5.295040    1.339431
    101          1           0       -0.359236   -6.804710    0.696414
    102          1           0        3.761241   -2.157536    0.961842
    103          1           0        3.441342   -0.385115    0.856308
    104          1           0        4.981276   -1.258255   -1.345615
    105          1           0        6.898575    0.966756    1.770520
    106          1           0        6.884871   -0.493828    2.436225
    107          1           0        5.325042    0.286378    2.262358
    108          1           0        7.661465   -1.001767   -1.174764
    109          1           0        8.278090   -0.161650    0.137524
    110          1           0        7.594599    2.037538   -0.667092
    111          1           0        6.335261    1.220864   -1.714263
    112          1           0        7.856636    1.172751   -3.452660
    113          1           0        8.942492    0.171685   -2.494231
    114          1           0        9.898333    2.512920   -1.585026
    115          1           0        7.701989    3.719895   -2.277104
    116          1           0        8.247954    3.723125   -3.931782
    117          1           0        9.222075    4.416794   -2.532442
    118          1           0       10.322791    2.848338   -4.377334
    119          1           0       10.194127    1.123363   -4.115882
    120          1           0       11.976455    3.038000   -2.413774
    121          1           0       12.552473    2.573840   -3.987550
    122          1           0       13.186055    0.617026   -3.089945
    123          1           0       11.600199    0.193430   -2.493913
    124          1           0       12.211616    2.045003   -0.637679
    125          1           0       14.421876    2.314768   -0.168257
    126          1           0       14.808000    1.523437   -1.752065
    127          1           0       14.710955    0.627438   -0.230465
    128          1           0       13.156375   -0.719757   -0.253492
    129          1           0       11.400499   -0.367874   -0.323630
    130          1           0       11.410482    0.663796    1.812469
    131          1           0       12.913502    1.369841    1.534348
    132          1           0       14.041123   -0.188664    2.702393
    133          1           0       13.436813   -1.534578    1.894494
    134          1           0       11.187216   -0.731152    3.323827
    135          1           0       11.791304    0.094084    5.477774
    136          1           0       13.146166    0.655819    4.547538
    137          1           0       13.153128   -0.858326    5.543985
    138          1           0       11.734858   -2.924886    4.633652
    139          1           0       13.174846   -3.160455    3.602633
    140          1           0       11.641505   -3.020277    2.932354
 ---------------------------------------------------------------------

 SCF Done:  E(RZINDO/S) =  -474.291023591     A.U. after   20 cycles

 Excitation energies and oscillator strengths:

 Excited State   1:      Singlet-A      1.2648 eV  980.28 nm  f=0.5704  <S**2>=0.000
     175 ->178        -0.17320
     176 ->177         0.66748
 This state for optimization and/or second-order correction.
 Total Energy, E(CIS/TDA) =  -474.244543813
 Copying the excited state density for this state as the 1-particle RhoCI density.

 Excited State   2:      Singlet-A      1.9473 eV  636.68 nm  f=0.0206  <S**2>=0.000
     175 ->177         0.51666
     176 ->178         0.44763

 Excited State   3:      Singlet-A      2.8916 eV  428.78 nm  f=0.1638  <S**2>=0.000
     168 ->177         0.19372
     168 ->179        -0.21464
     168 ->186        -0.10064
     175 ->177        -0.16718
     176 ->178         0.28132
     176 ->179         0.45135
     176 ->181         0.12204

 Excited State   4:      Singlet-A      2.9303 eV  423.11 nm  f=0.1775  <S**2>=0.000
     168 ->177         0.30950
     168 ->178        -0.15067
     168 ->179        -0.33598
     168 ->181         0.10474
     168 ->186        -0.15510
     175 ->177         0.15889
     176 ->178        -0.23535
     176 ->179        -0.22894

 Excited State   5:      Singlet-A      2.9747 eV  416.80 nm  f=0.0034  <S**2>=0.000
     170 ->181         0.10136
     171 ->177         0.23495
     171 ->178        -0.11248
     171 ->179         0.27550
     171 ->181         0.41014
     171 ->183        -0.19238
     171 ->186         0.16514
     171 ->188         0.18872
     171 ->202        -0.10265

 The electronic state is 1-A.
 Alpha  occ. eigenvalues --   -1.86058  -1.80340  -1.78097  -1.72797  -1.72589
 Alpha  occ. eigenvalues --   -1.69316  -1.66907  -1.60450  -1.58917  -1.55200
 Alpha  occ. eigenvalues --   -1.54748  -1.51369  -1.50655  -1.48913  -1.46264
 Alpha  occ. eigenvalues --   -1.44202  -1.42630  -1.39235  -1.39099  -1.37803
 Alpha  occ. eigenvalues --   -1.36077  -1.34137  -1.32176  -1.30728  -1.28559
 Alpha  occ. eigenvalues --   -1.25459  -1.24836  -1.21923  -1.20840  -1.18664
 Alpha  occ. eigenvalues --   -1.18083  -1.16820  -1.14936  -1.13076  -1.12457
 Alpha  occ. eigenvalues --   -1.12423  -1.11332  -1.08985  -1.05141  -1.03898
 Alpha  occ. eigenvalues --   -1.02529  -1.02013  -1.00486  -0.97560  -0.97269
 Alpha  occ. eigenvalues --   -0.95693  -0.94392  -0.93634  -0.93022  -0.92417
 Alpha  occ. eigenvalues --   -0.90685  -0.90003  -0.88425  -0.87477  -0.87335
 Alpha  occ. eigenvalues --   -0.85354  -0.84597  -0.83252  -0.82199  -0.80941
 Alpha  occ. eigenvalues --   -0.79721  -0.77826  -0.77504  -0.76760  -0.75901
 Alpha  occ. eigenvalues --   -0.75642  -0.74923  -0.74520  -0.74098  -0.73173
 Alpha  occ. eigenvalues --   -0.72608  -0.71941  -0.71607  -0.71084  -0.70788
 Alpha  occ. eigenvalues --   -0.69884  -0.69402  -0.68726  -0.68043  -0.67802
 Alpha  occ. eigenvalues --   -0.67429  -0.67246  -0.67111  -0.66892  -0.65836
 Alpha  occ. eigenvalues --   -0.65437  -0.64368  -0.64125  -0.63929  -0.63737
 Alpha  occ. eigenvalues --   -0.63430  -0.63315  -0.62496  -0.62339  -0.61692
 Alpha  occ. eigenvalues --   -0.61057  -0.60626  -0.60103  -0.59738  -0.59485
 Alpha  occ. eigenvalues --   -0.59265  -0.58948  -0.58332  -0.58169  -0.57881
 Alpha  occ. eigenvalues --   -0.57494  -0.57306  -0.57030  -0.56878  -0.56013
 Alpha  occ. eigenvalues --   -0.55843  -0.55211  -0.54821  -0.54496  -0.54186
 Alpha  occ. eigenvalues --   -0.54096  -0.53804  -0.53588  -0.53508  -0.52819
 Alpha  occ. eigenvalues --   -0.52752  -0.52539  -0.52147  -0.51462  -0.51351
 Alpha  occ. eigenvalues --   -0.50872  -0.50608  -0.50480  -0.50341  -0.50128
 Alpha  occ. eigenvalues --   -0.49754  -0.49567  -0.49411  -0.49187  -0.49106
 Alpha  occ. eigenvalues --   -0.48573  -0.48243  -0.47925  -0.47520  -0.47503
 Alpha  occ. eigenvalues --   -0.47107  -0.47013  -0.46854  -0.46714  -0.46423
 Alpha  occ. eigenvalues --   -0.46260  -0.46132  -0.45830  -0.45239  -0.45190
 Alpha  occ. eigenvalues --   -0.44834  -0.44714  -0.44538  -0.43806  -0.43563
 Alpha  occ. eigenvalues --   -0.43551  -0.42955  -0.42836  -0.42634  -0.42207
 Alpha  occ. eigenvalues --   -0.41801  -0.41586  -0.41362  -0.39382  -0.38854
 Alpha  occ. eigenvalues --   -0.38463  -0.36788  -0.35710  -0.34248  -0.34014
 Alpha  occ. eigenvalues --   -0.33675  -0.32519  -0.32086  -0.31442  -0.26450
 Alpha  occ. eigenvalues --   -0.21095
 Alpha virt. eigenvalues --   -0.07861  -0.01659  -0.00555   0.00818   0.01560
 Alpha virt. eigenvalues --    0.02010   0.02478   0.03396   0.04214   0.05406
 Alpha virt. eigenvalues --    0.07032   0.07319   0.07974   0.08334   0.08533

 Mulliken charges:
               1
     1  Mg   0.426190
     2  C   -0.050244
     3  C   -0.073047
     4  C   -0.044522
     5  C   -0.080373
     6  N   -0.297472
     7  C    0.146628
     8  C    0.007128
     9  C    0.004134
    10  C    0.100920
    11  C   -0.050234
    12  C   -0.021541
    13  C    0.007671
    14  C    0.478224
    15  O   -0.523434
    16  O   -0.260956
    17  N   -0.326190
    18  C    0.083279
    19  C   -0.011691
    20  C   -0.065524
    21  C    0.113467
    22  C   -0.047666
    23  C    0.323585
    24  O   -0.556539
    25  C   -0.027773
    26  N   -0.278454
    27  C    0.108960
    28  C    0.003300
    29  C    0.007423
    30  C    0.165550
    31  C   -0.056018
    32  C   -0.029029
    33  C   -0.053616
    34  N   -0.324157
    35  C    0.132368
    36  C    0.048698
    37  C   -0.042088
    38  C    0.141180
    39  C   -0.032743
    40  C    0.332879
    41  O   -0.509284
    42  C    0.053892
    43  C    0.494449
    44  O   -0.515398
    45  O   -0.271792
    46  C    0.069673
    47  C    0.100731
    48  C   -0.090812
    49  C   -0.004693
    50  C   -0.050227
    51  C   -0.020298
    52  C   -0.034614
    53  C   -0.043503
    54  C   -0.011378
    55  C   -0.059394
    56  C   -0.036947
    57  C   -0.036550
    58  C   -0.027058
    59  C   -0.012879
    60  C   -0.057733
    61  C   -0.038329
    62  C   -0.041719
    63  C   -0.028847
    64  C   -0.001460
    65  C   -0.059195
    66  C   -0.063186
    67  H    0.021032
    68  H    0.044584
    69  H    0.023435
    70  H    0.055153
    71  H    0.022115
    72  H    0.017041
    73  H    0.036744
    74  H    0.029166
    75  H    0.031703
    76  H    0.013435
    77  H    0.030948
    78  H    0.042976
    79  H    0.005979
    80  H    0.035016
    81  H    0.036755
    82  H    0.034187
    83  H    0.035866
    84  H    0.040231
    85  H    0.037347
    86  H    0.034003
    87  H    0.024042
    88  H    0.021495
    89  H    0.025292
    90  H    0.023210
    91  H    0.012726
    92  H    0.026689
    93  H    0.022429
    94  H    0.017298
    95  H    0.023789
    96  H    0.046354
    97  H    0.034309
    98  H    0.057265
    99  H    0.046437
   100  H    0.053536
   101  H    0.029705
   102  H    0.058734
   103  H    0.043936
   104  H    0.032442
   105  H    0.019481
   106  H    0.030932
   107  H    0.026362
   108  H    0.022925
   109  H    0.013571
   110  H    0.033019
   111  H    0.026498
   112  H    0.018566
   113  H    0.022060
   114  H    0.029538
   115  H    0.006314
   116  H    0.031870
   117  H    0.012972
   118  H    0.004516
   119  H    0.025708
   120  H    0.019126
   121  H    0.019911
   122  H    0.013950
   123  H    0.018769
   124  H    0.016824
   125  H    0.017283
   126  H    0.019697
   127  H    0.018379
   128  H    0.019400
   129  H    0.013339
   130  H    0.019056
   131  H    0.013948
   132  H    0.015545
   133  H    0.017781
   134  H    0.023912
   135  H    0.012790
   136  H    0.018818
   137  H    0.018786
   138  H    0.014383
   139  H    0.029679
   140  H    0.005169
 Sum of Mulliken charges =  -0.00000

 Dipole moment (field-independent basis, Debye):
    X=              4.4551    Y=              1.0390    Z=             -4.0621  Tot=              6.1178
 N-N= 4.304147118561D+03 E-N= 0.000000000000D+00  KE=-9.283180399365D+03
 Leave Link  601 at Wed May  4 00:20:02 2022, MaxMem=  6710886400 cpu:               0.9 elap:               0.1
 (Enter /sw/apps/gaussian-16.0/g16/l9999.exe)
 1\1\GINC-BP1-COMPUTE065\SP\RZINDO CIS\STO-3G\C55H74Mg1N4O6\OF15641\04-
 May-2022\0\\#p ZINDO=(nstates=5)\\step_1101_chromophore_19 ZINDO\\0,1\
 Mg,0,25.374,50.365,26.734\C,0,23.198,51.497,29.231\C,0,27.66,49.654,29
 .234\C,0,27.616,49.889,24.27\C,0,23.304,52.009,24.443\N,0,25.36,50.476
 ,28.973\C,0,24.331,50.932,29.802\C,0,24.681,50.731,31.288\C,0,26.157,5
 0.433,31.219\C,0,26.472,50.24,29.729\C,0,27.127,51.485,31.899\C,0,23.7
 46,49.642,31.952\C,0,23.065,50.032,33.249\C,0,23.838,50.959,34.187\O,0

 Normal termination of Gaussian 16 at Wed May  4 00:20:02 2022.
