 Gaussian 16, Revision A.03,
 Gaussian 16:  ES64L-G16RevA.03 25-Dec-2016

 ------------------------------
 #p blyp/Def2SVP td=(nstates=5)
 ------------------------------

 -------------------------------------------------
 step_501_chromophore_4 TDDFT with blyp functional
 -------------------------------------------------
 Symbolic Z-matrix:
 Charge =  0 Multiplicity = 1

                         Standard orientation:
 ---------------------------------------------------------------------
 Center     Atomic      Atomic             Coordinates (Angstroms)
 Number     Number       Type             X           Y           Z
 ---------------------------------------------------------------------
      1         12           0        6.057992    0.567783    0.139363
      2          6           0        3.541001   -1.990412   -0.148032
      3          6           0        3.618236    2.824037   -0.642145
      4          6           0        8.466387    2.902357    0.109979
      5          6           0        8.387050   -1.891677    0.418117
      6          7           0        3.727663    0.398769   -0.306342
      7          6           0        2.997940   -0.754461   -0.306351
      8          6           0        1.572031   -0.369157   -0.423239
      9          6           0        1.582327    1.155576   -0.722325
     10          6           0        3.077824    1.559897   -0.610569
     11          6           0        1.028020    1.473045   -2.147602
     12          6           0        0.692388   -0.736680    0.745483
     13          6           0       -0.815303   -0.594576    0.612760
     14          6           0       -1.629390   -1.751856    1.015119
     15          8           0       -1.432668   -2.538125    1.974726
     16          8           0       -2.751075   -1.828775    0.213004
     17          7           0        6.023700    2.569406   -0.102828
     18          6           0        4.904358    3.336431   -0.528893
     19          6           0        5.325725    4.749395   -0.488931
     20          6           0        6.712369    4.730601   -0.363372
     21          6           0        7.139424    3.333207   -0.168253
     22          6           0        4.342073    5.869759   -0.754845
     23          6           0        7.713405    5.905363   -0.321135
     24          8           0        8.946959    5.775719   -0.431851
     25          6           0        7.151609    7.251345   -0.106514
     26          7           0        8.176068    0.535405    0.184319
     27          6           0        8.978743    1.579813    0.178527
     28          6           0       10.484181    1.202327    0.243539
     29          6           0       10.387766   -0.285358    0.588789
     30          6           0        8.908995   -0.557604    0.434388
     31          6           0       11.203613    1.466165   -1.122176
     32          6           0       10.910393   -0.708266    1.943186
     33          6           0       11.743087   -2.001779    1.988546
     34          7           0        5.968102   -1.486422    0.227874
     35          6           0        7.031041   -2.353396    0.357417
     36          6           0        6.568385   -3.771380    0.444183
     37          6           0        5.218871   -3.585448    0.221654
     38          6           0        4.895125   -2.234708    0.045626
     39          6           0        7.350295   -4.986811    0.826731
     40          6           0        3.975198   -4.331554    0.098872
     41          8           0        3.811672   -5.539380    0.229719
     42          6           0        2.816599   -3.337711   -0.145616
     43          6           0        2.094013   -3.825636   -1.292492
     44          8           0        2.441065   -3.740074   -2.495137
     45          8           0        0.859654   -4.264121   -0.920260
     46          6           0       -0.119740   -4.537578   -1.949196
     47          6           0       -3.787237   -2.790213    0.592440
     48          6           0       -5.182410   -2.151155    0.520610
     49          6           0       -6.400921   -2.719943    0.652351
     50          6           0       -6.654890   -4.171148    0.963811
     51          6           0       -7.676478   -1.868915    0.516449
     52          6           0       -8.277713   -1.683449   -0.903086
     53          6           0       -8.022540   -0.305877   -1.504916
     54          6           0       -9.253965    0.643282   -1.318159
     55          6           0       -9.638858    1.205377   -2.723659
     56          6           0       -9.072248    1.799277   -0.241364
     57          6           0       -9.955869    1.555306    0.995725
     58          6           0      -10.567335    2.825061    1.696067
     59          6           0      -11.974152    2.519344    2.318874
     60          6           0      -12.140416    3.499404    3.512736
     61          6           0      -13.112707    2.752439    1.278342
     62          6           0      -13.930892    1.444057    0.948109
     63          6           0      -13.967739    0.927123   -0.458462
     64          6           0      -15.272601    0.067198   -0.665874
     65          6           0      -15.264438   -0.950563   -1.867724
     66          6           0      -16.472477    1.094218   -0.744469
     67          1           0        2.834120    3.565819   -0.806045
     68          1           0        9.262553    3.629408   -0.062250
     69          1           0        9.213012   -2.591498    0.276302
     70          1           0        1.250040   -0.912765   -1.310480
     71          1           0        0.980172    1.722761   -0.012317
     72          1           0        0.248487    2.211027   -2.339458
     73          1           0        0.633269    0.518442   -2.495102
     74          1           0        1.787130    1.660539   -2.907484
     75          1           0        0.892395   -0.097655    1.605732
     76          1           0        1.000887   -1.673388    1.208884
     77          1           0       -1.093181   -0.393108   -0.420707
     78          1           0       -1.103372    0.112297    1.390432
     79          1           0        4.703246    6.627359   -1.450016
     80          1           0        4.009594    6.390630    0.142844
     81          1           0        3.419317    5.562814   -1.247811
     82          1           0        6.497044    7.215846    0.764454
     83          1           0        6.572384    7.406289   -1.016118
     84          1           0        7.990581    7.894290    0.157106
     85          1           0       10.907908    1.792679    1.056688
     86          1           0       10.863551   -0.971777   -0.111027
     87          1           0       11.505510    0.536102   -1.602870
     88          1           0       12.126259    2.029193   -0.981278
     89          1           0       10.466371    1.979042   -1.740047
     90          1           0       10.109282   -0.798397    2.676118
     91          1           0       11.358578    0.200064    2.344581
     92          1           0       12.424729   -1.904293    2.832948
     93          1           0       12.204716   -2.247343    1.031650
     94          1           0       10.963092   -2.743869    2.157565
     95          1           0        7.211496   -5.301968    1.861072
     96          1           0        8.370986   -4.781873    0.505050
     97          1           0        7.126329   -5.790428    0.124106
     98          1           0        2.134042   -3.511764    0.686155
     99          1           0        0.188259   -4.256417   -2.956616
    100          1           0       -1.086883   -4.112790   -1.681720
    101          1           0       -0.350230   -5.600808   -2.021320
    102          1           0       -3.696110   -3.173889    1.609219
    103          1           0       -3.605532   -3.689564    0.004417
    104          1           0       -5.136444   -1.075726    0.351179
    105          1           0       -5.721597   -4.679541    1.207221
    106          1           0       -7.120837   -4.727628    0.150298
    107          1           0       -7.269971   -4.092120    1.860024
    108          1           0       -7.611450   -0.874666    0.959823
    109          1           0       -8.406910   -2.390400    1.134556
    110          1           0       -9.341224   -1.916825   -0.867607
    111          1           0       -7.865510   -2.445463   -1.564670
    112          1           0       -7.606937   -0.392006   -2.509520
    113          1           0       -7.227953    0.323381   -1.106064
    114          1           0      -10.143007    0.079580   -1.035842
    115          1           0       -9.172045    0.647018   -3.534711
    116          1           0       -9.478551    2.270831   -2.891520
    117          1           0      -10.725403    1.144569   -2.774109
    118          1           0       -9.374308    2.785054   -0.594448
    119          1           0       -8.023336    1.919113    0.029224
    120          1           0       -9.362766    1.103163    1.791075
    121          1           0      -10.803168    0.987393    0.611515
    122          1           0      -10.632533    3.725456    1.083933
    123          1           0       -9.884967    3.117226    2.495241
    124          1           0      -11.974393    1.493134    2.684916
    125          1           0      -11.579756    4.398081    3.254036
    126          1           0      -11.821425    3.096812    4.474148
    127          1           0      -13.180025    3.819257    3.446071
    128          1           0      -12.677537    3.016448    0.314060
    129          1           0      -13.807916    3.577888    1.433244
    130          1           0      -14.937537    1.804961    1.160453
    131          1           0      -13.619236    0.591471    1.551651
    132          1           0      -13.050135    0.355337   -0.598614
    133          1           0      -14.042757    1.698892   -1.224881
    134          1           0      -15.376884   -0.544966    0.230169
    135          1           0      -16.242904   -1.130618   -2.313739
    136          1           0      -14.935277   -1.920614   -1.494163
    137          1           0      -14.555330   -0.645533   -2.637970
    138          1           0      -17.006592    1.060189    0.204278
    139          1           0      -17.161811    0.782856   -1.530229
    140          1           0      -16.179998    2.136982   -0.871017
 ---------------------------------------------------------------------

 SCF Done:  E(RB-LYP) =  -3007.36735110     A.U. after   21 cycles

 Excitation energies and oscillator strengths:

 Excited State   1:      Singlet-A      1.8653 eV  664.69 nm  f=0.2906  <S**2>=0.000
     245 -> 248        0.20449
     246 -> 247        0.67981
     246 <- 247       -0.13794
 This state for optimization and/or second-order correction.
 Total Energy, E(TD-HF/TD-DFT) =  -3007.29880299
 Copying the excited state density for this state as the 1-particle RhoCI density.

 Excited State   2:      Singlet-A      1.9889 eV  623.39 nm  f=0.0006  <S**2>=0.000
     244 -> 247        0.70249

 Excited State   3:      Singlet-A      2.0562 eV  602.98 nm  f=0.0353  <S**2>=0.000
     243 -> 247        0.54598
     245 -> 247       -0.40311
     246 -> 248        0.15890

 Excited State   4:      Singlet-A      2.1219 eV  584.31 nm  f=0.0411  <S**2>=0.000
     243 -> 247        0.43927
     245 -> 247        0.48809
     246 -> 248       -0.23807

 Excited State   5:      Singlet-A      2.4073 eV  515.04 nm  f=0.0001  <S**2>=0.000
     242 -> 247        0.70707

 The electronic state is 1-A.
 Alpha  occ. eigenvalues --  -46.26963 -18.82563 -18.82114 -18.76701 -18.75729
 Alpha  occ. eigenvalues --  -18.75656 -18.75303 -14.03109 -14.02294 -14.01257
 Alpha  occ. eigenvalues --  -14.01182 -10.04278 -10.03531  -9.99922  -9.99073
 Alpha  occ. eigenvalues --   -9.98061  -9.97210  -9.96326  -9.96262  -9.96135
 Alpha  occ. eigenvalues --   -9.96084  -9.96029  -9.95920  -9.95798  -9.94331
 Alpha  occ. eigenvalues --   -9.94267  -9.94207  -9.94063  -9.94004  -9.93601
 Alpha  occ. eigenvalues --   -9.93566  -9.93545  -9.93492  -9.93373  -9.93266
 Alpha  occ. eigenvalues --   -9.92902  -9.92901  -9.92828  -9.92825  -9.92799
 Alpha  occ. eigenvalues --   -9.92558  -9.92490  -9.92467  -9.92339  -9.92339
 Alpha  occ. eigenvalues --   -9.92287  -9.92217  -9.92104  -9.92096  -9.92021
 Alpha  occ. eigenvalues --   -9.92007  -9.91866  -9.91734  -9.91733  -9.91332
 Alpha  occ. eigenvalues --   -9.91287  -9.91269  -9.91200  -9.91152  -9.91106
 Alpha  occ. eigenvalues --   -9.91075  -9.91026  -9.90967  -9.90638  -9.90554
 Alpha  occ. eigenvalues --   -9.90513  -2.91659  -1.72095  -1.71548  -1.71366
 Alpha  occ. eigenvalues --   -0.97504  -0.97359  -0.90953  -0.90610  -0.88623
 Alpha  occ. eigenvalues --   -0.88016  -0.87915  -0.86933  -0.85464  -0.84618
 Alpha  occ. eigenvalues --   -0.75966  -0.73856  -0.73388  -0.73239  -0.72755
 Alpha  occ. eigenvalues --   -0.71821  -0.71687  -0.70882  -0.70649  -0.70504
 Alpha  occ. eigenvalues --   -0.70102  -0.69666  -0.68196  -0.67853  -0.67601
 Alpha  occ. eigenvalues --   -0.66600  -0.66228  -0.65709  -0.65247  -0.65028
 Alpha  occ. eigenvalues --   -0.64275  -0.63008  -0.62769  -0.62137  -0.61348
 Alpha  occ. eigenvalues --   -0.60441  -0.60120  -0.60069  -0.59259  -0.59001
 Alpha  occ. eigenvalues --   -0.58663  -0.57925  -0.57082  -0.55969  -0.54956
 Alpha  occ. eigenvalues --   -0.54283  -0.53275  -0.52533  -0.52258  -0.52070
 Alpha  occ. eigenvalues --   -0.51539  -0.51048  -0.50810  -0.50524  -0.50340
 Alpha  occ. eigenvalues --   -0.49609  -0.49486  -0.48918  -0.48801  -0.46835
 Alpha  occ. eigenvalues --   -0.46625  -0.46224  -0.46058  -0.45568  -0.44762
 Alpha  occ. eigenvalues --   -0.44336  -0.43886  -0.43274  -0.42756  -0.42323
 Alpha  occ. eigenvalues --   -0.42173  -0.42006  -0.41674  -0.41373  -0.41186
 Alpha  occ. eigenvalues --   -0.41053  -0.41030  -0.40646  -0.40418  -0.40049
 Alpha  occ. eigenvalues --   -0.39608  -0.39510  -0.39422  -0.39228  -0.39108
 Alpha  occ. eigenvalues --   -0.38916  -0.38796  -0.38610  -0.38353  -0.38314
 Alpha  occ. eigenvalues --   -0.38015  -0.37934  -0.37916  -0.37559  -0.37226
 Alpha  occ. eigenvalues --   -0.37060  -0.36863  -0.36636  -0.36410  -0.36300
 Alpha  occ. eigenvalues --   -0.36193  -0.36120  -0.35940  -0.35763  -0.35665
 Alpha  occ. eigenvalues --   -0.35453  -0.35327  -0.35148  -0.34844  -0.34758
 Alpha  occ. eigenvalues --   -0.34570  -0.34502  -0.34374  -0.34250  -0.34060
 Alpha  occ. eigenvalues --   -0.33778  -0.33727  -0.33591  -0.33455  -0.33074
 Alpha  occ. eigenvalues --   -0.32914  -0.32706  -0.32595  -0.32399  -0.32285
 Alpha  occ. eigenvalues --   -0.31948  -0.31869  -0.31837  -0.31590  -0.31506
 Alpha  occ. eigenvalues --   -0.31424  -0.31078  -0.30974  -0.30811  -0.30521
 Alpha  occ. eigenvalues --   -0.30303  -0.29979  -0.29912  -0.29841  -0.29770
 Alpha  occ. eigenvalues --   -0.29510  -0.29390  -0.29214  -0.29150  -0.28988
 Alpha  occ. eigenvalues --   -0.28904  -0.28435  -0.28242  -0.27868  -0.27792
 Alpha  occ. eigenvalues --   -0.27655  -0.27567  -0.27031  -0.26888  -0.26591
 Alpha  occ. eigenvalues --   -0.26464  -0.26454  -0.26168  -0.25184  -0.25135
 Alpha  occ. eigenvalues --   -0.24751  -0.24410  -0.24199  -0.24114  -0.23799
 Alpha  occ. eigenvalues --   -0.22716  -0.22293  -0.21861  -0.21097  -0.20972
 Alpha  occ. eigenvalues --   -0.20739  -0.20026  -0.18725  -0.18381  -0.17302
 Alpha  occ. eigenvalues --   -0.15722
 Alpha virt. eigenvalues --   -0.11180  -0.06838  -0.05833  -0.04508  -0.03314
 Alpha virt. eigenvalues --   -0.03017  -0.01843  -0.01674  -0.01252   0.00110
 Alpha virt. eigenvalues --    0.00926   0.01625   0.01825   0.02582   0.02872

 Mulliken charges:
               1
     1  Mg   0.700852
     2  C    0.060420
     3  C   -0.031686
     4  C   -0.034427
     5  C   -0.101963
     6  N   -0.194368
     7  C   -0.165339
     8  C    0.110331
     9  C   -0.005582
    10  C    0.011039
    11  C    0.113931
    12  C    0.116540
    13  C    0.180264
    14  C    0.051494
    15  O   -0.216554
    16  O   -0.274304
    17  N   -0.347304
    18  C    0.164789
    19  C   -0.113336
    20  C    0.025788
    21  C    0.117262
    22  C    0.143510
    23  C   -0.077735
    24  O   -0.181883
    25  C    0.155546
    26  N   -0.180304
    27  C   -0.056409
    28  C    0.052545
    29  C    0.001507
    30  C   -0.010158
    31  C    0.136262
    32  C    0.103070
    33  C    0.086514
    34  N   -0.236198
    35  C    0.126203
    36  C   -0.208463
    37  C    0.128043
    38  C    0.075052
    39  C    0.200880
    40  C   -0.111700
    41  O   -0.133207
    42  C    0.113465
    43  C    0.100660
    44  O   -0.215279
    45  O   -0.251699
    46  C    0.207028
    47  C    0.284798
    48  C   -0.080754
    49  C   -0.159317
    50  C    0.148151
    51  C    0.128685
    52  C    0.113658
    53  C    0.106579
    54  C   -0.083929
    55  C    0.086580
    56  C    0.121114
    57  C    0.048312
    58  C    0.074080
    59  C   -0.090672
    60  C    0.127920
    61  C    0.135394
    62  C    0.042295
    63  C    0.090497
    64  C   -0.108235
    65  C    0.108373
    66  C    0.091820
    67  H   -0.073591
    68  H   -0.034302
    69  H   -0.051056
    70  H   -0.024818
    71  H   -0.024487
    72  H   -0.006611
    73  H   -0.026494
    74  H   -0.012940
    75  H   -0.046840
    76  H   -0.021590
    77  H    0.003378
    78  H    0.012689
    79  H   -0.007694
    80  H    0.002323
    81  H   -0.012244
    82  H    0.002551
    83  H    0.016972
    84  H    0.000604
    85  H   -0.018790
    86  H   -0.028142
    87  H   -0.012963
    88  H    0.001354
    89  H    0.008432
    90  H   -0.033609
    91  H   -0.044820
    92  H    0.003999
    93  H   -0.005054
    94  H    0.000658
    95  H    0.030712
    96  H   -0.029288
    97  H   -0.002571
    98  H    0.016007
    99  H    0.022069
   100  H    0.008313
   101  H    0.006274
   102  H    0.013320
   103  H   -0.000887
   104  H   -0.036635
   105  H   -0.019818
   106  H    0.009430
   107  H    0.005570
   108  H   -0.021467
   109  H   -0.055880
   110  H   -0.029737
   111  H   -0.039908
   112  H   -0.037812
   113  H   -0.044219
   114  H   -0.021629
   115  H   -0.012783
   116  H   -0.020750
   117  H   -0.022645
   118  H   -0.040040
   119  H   -0.035954
   120  H   -0.013393
   121  H   -0.017082
   122  H   -0.032764
   123  H   -0.042717
   124  H   -0.031481
   125  H   -0.025250
   126  H   -0.004744
   127  H   -0.030206
   128  H   -0.049371
   129  H   -0.030882
   130  H   -0.040989
   131  H   -0.025467
   132  H   -0.032466
   133  H   -0.029927
   134  H   -0.032992
   135  H   -0.014089
   136  H   -0.020032
   137  H   -0.013849
   138  H   -0.010249
   139  H   -0.019770
   140  H   -0.009319
 Sum of Mulliken charges =  -0.00000

 Dipole moment (field-independent basis, Debye):
    X=             -2.5713    Y=              3.6654    Z=              0.9327  Tot=              4.5735
 Quadrupole moment (field-independent basis, Debye-Ang):
   XX=           -366.3136   YY=           -423.7193   ZZ=           -413.2517
   XY=             -1.4463   XZ=             15.6399   YZ=              1.5607

 Normal termination of Gaussian 16 at Fri Apr 29 23:44:12 2022.
