 Gaussian 16, Revision A.03,
 Gaussian 16:  ES64L-G16RevA.03 25-Dec-2016

 -----------------------------------
 #p cam-b3lyp/Def2SVP td=(nstates=5)
 -----------------------------------

 ------------------------------------------------------
 step_501_chromophore_4 TDDFT with cam-b3lyp functional
 ------------------------------------------------------
 Symbolic Z-matrix:
 Charge =  0 Multiplicity = 1

                         Standard orientation:
 ---------------------------------------------------------------------
 Center     Atomic      Atomic             Coordinates (Angstroms)
 Number     Number       Type             X           Y           Z
 ---------------------------------------------------------------------
      1         12           0        6.057992    0.567783    0.139363
      2          6           0        3.541001   -1.990412   -0.148032
      3          6           0        3.618236    2.824037   -0.642145
      4          6           0        8.466387    2.902357    0.109979
      5          6           0        8.387050   -1.891677    0.418117
      6          7           0        3.727663    0.398769   -0.306342
      7          6           0        2.997940   -0.754461   -0.306351
      8          6           0        1.572031   -0.369157   -0.423239
      9          6           0        1.582327    1.155576   -0.722325
     10          6           0        3.077824    1.559897   -0.610569
     11          6           0        1.028020    1.473045   -2.147602
     12          6           0        0.692388   -0.736680    0.745483
     13          6           0       -0.815303   -0.594576    0.612760
     14          6           0       -1.629390   -1.751856    1.015119
     15          8           0       -1.432668   -2.538125    1.974726
     16          8           0       -2.751075   -1.828775    0.213004
     17          7           0        6.023700    2.569406   -0.102828
     18          6           0        4.904358    3.336431   -0.528893
     19          6           0        5.325725    4.749395   -0.488931
     20          6           0        6.712369    4.730601   -0.363372
     21          6           0        7.139424    3.333207   -0.168253
     22          6           0        4.342073    5.869759   -0.754845
     23          6           0        7.713405    5.905363   -0.321135
     24          8           0        8.946959    5.775719   -0.431851
     25          6           0        7.151609    7.251345   -0.106514
     26          7           0        8.176068    0.535405    0.184319
     27          6           0        8.978743    1.579813    0.178527
     28          6           0       10.484181    1.202327    0.243539
     29          6           0       10.387766   -0.285358    0.588789
     30          6           0        8.908995   -0.557604    0.434388
     31          6           0       11.203613    1.466165   -1.122176
     32          6           0       10.910393   -0.708266    1.943186
     33          6           0       11.743087   -2.001779    1.988546
     34          7           0        5.968102   -1.486422    0.227874
     35          6           0        7.031041   -2.353396    0.357417
     36          6           0        6.568385   -3.771380    0.444183
     37          6           0        5.218871   -3.585448    0.221654
     38          6           0        4.895125   -2.234708    0.045626
     39          6           0        7.350295   -4.986811    0.826731
     40          6           0        3.975198   -4.331554    0.098872
     41          8           0        3.811672   -5.539380    0.229719
     42          6           0        2.816599   -3.337711   -0.145616
     43          6           0        2.094013   -3.825636   -1.292492
     44          8           0        2.441065   -3.740074   -2.495137
     45          8           0        0.859654   -4.264121   -0.920260
     46          6           0       -0.119740   -4.537578   -1.949196
     47          6           0       -3.787237   -2.790213    0.592440
     48          6           0       -5.182410   -2.151155    0.520610
     49          6           0       -6.400921   -2.719943    0.652351
     50          6           0       -6.654890   -4.171148    0.963811
     51          6           0       -7.676478   -1.868915    0.516449
     52          6           0       -8.277713   -1.683449   -0.903086
     53          6           0       -8.022540   -0.305877   -1.504916
     54          6           0       -9.253965    0.643282   -1.318159
     55          6           0       -9.638858    1.205377   -2.723659
     56          6           0       -9.072248    1.799277   -0.241364
     57          6           0       -9.955869    1.555306    0.995725
     58          6           0      -10.567335    2.825061    1.696067
     59          6           0      -11.974152    2.519344    2.318874
     60          6           0      -12.140416    3.499404    3.512736
     61          6           0      -13.112707    2.752439    1.278342
     62          6           0      -13.930892    1.444057    0.948109
     63          6           0      -13.967739    0.927123   -0.458462
     64          6           0      -15.272601    0.067198   -0.665874
     65          6           0      -15.264438   -0.950563   -1.867724
     66          6           0      -16.472477    1.094218   -0.744469
     67          1           0        2.834120    3.565819   -0.806045
     68          1           0        9.262553    3.629408   -0.062250
     69          1           0        9.213012   -2.591498    0.276302
     70          1           0        1.250040   -0.912765   -1.310480
     71          1           0        0.980172    1.722761   -0.012317
     72          1           0        0.248487    2.211027   -2.339458
     73          1           0        0.633269    0.518442   -2.495102
     74          1           0        1.787130    1.660539   -2.907484
     75          1           0        0.892395   -0.097655    1.605732
     76          1           0        1.000887   -1.673388    1.208884
     77          1           0       -1.093181   -0.393108   -0.420707
     78          1           0       -1.103372    0.112297    1.390432
     79          1           0        4.703246    6.627359   -1.450016
     80          1           0        4.009594    6.390630    0.142844
     81          1           0        3.419317    5.562814   -1.247811
     82          1           0        6.497044    7.215846    0.764454
     83          1           0        6.572384    7.406289   -1.016118
     84          1           0        7.990581    7.894290    0.157106
     85          1           0       10.907908    1.792679    1.056688
     86          1           0       10.863551   -0.971777   -0.111027
     87          1           0       11.505510    0.536102   -1.602870
     88          1           0       12.126259    2.029193   -0.981278
     89          1           0       10.466371    1.979042   -1.740047
     90          1           0       10.109282   -0.798397    2.676118
     91          1           0       11.358578    0.200064    2.344581
     92          1           0       12.424729   -1.904293    2.832948
     93          1           0       12.204716   -2.247343    1.031650
     94          1           0       10.963092   -2.743869    2.157565
     95          1           0        7.211496   -5.301968    1.861072
     96          1           0        8.370986   -4.781873    0.505050
     97          1           0        7.126329   -5.790428    0.124106
     98          1           0        2.134042   -3.511764    0.686155
     99          1           0        0.188259   -4.256417   -2.956616
    100          1           0       -1.086883   -4.112790   -1.681720
    101          1           0       -0.350230   -5.600808   -2.021320
    102          1           0       -3.696110   -3.173889    1.609219
    103          1           0       -3.605532   -3.689564    0.004417
    104          1           0       -5.136444   -1.075726    0.351179
    105          1           0       -5.721597   -4.679541    1.207221
    106          1           0       -7.120837   -4.727628    0.150298
    107          1           0       -7.269971   -4.092120    1.860024
    108          1           0       -7.611450   -0.874666    0.959823
    109          1           0       -8.406910   -2.390400    1.134556
    110          1           0       -9.341224   -1.916825   -0.867607
    111          1           0       -7.865510   -2.445463   -1.564670
    112          1           0       -7.606937   -0.392006   -2.509520
    113          1           0       -7.227953    0.323381   -1.106064
    114          1           0      -10.143007    0.079580   -1.035842
    115          1           0       -9.172045    0.647018   -3.534711
    116          1           0       -9.478551    2.270831   -2.891520
    117          1           0      -10.725403    1.144569   -2.774109
    118          1           0       -9.374308    2.785054   -0.594448
    119          1           0       -8.023336    1.919113    0.029224
    120          1           0       -9.362766    1.103163    1.791075
    121          1           0      -10.803168    0.987393    0.611515
    122          1           0      -10.632533    3.725456    1.083933
    123          1           0       -9.884967    3.117226    2.495241
    124          1           0      -11.974393    1.493134    2.684916
    125          1           0      -11.579756    4.398081    3.254036
    126          1           0      -11.821425    3.096812    4.474148
    127          1           0      -13.180025    3.819257    3.446071
    128          1           0      -12.677537    3.016448    0.314060
    129          1           0      -13.807916    3.577888    1.433244
    130          1           0      -14.937537    1.804961    1.160453
    131          1           0      -13.619236    0.591471    1.551651
    132          1           0      -13.050135    0.355337   -0.598614
    133          1           0      -14.042757    1.698892   -1.224881
    134          1           0      -15.376884   -0.544966    0.230169
    135          1           0      -16.242904   -1.130618   -2.313739
    136          1           0      -14.935277   -1.920614   -1.494163
    137          1           0      -14.555330   -0.645533   -2.637970
    138          1           0      -17.006592    1.060189    0.204278
    139          1           0      -17.161811    0.782856   -1.530229
    140          1           0      -16.179998    2.136982   -0.871017
 ---------------------------------------------------------------------

 SCF Done:  E(RCAM-B3LYP) =  -3007.16550885     A.U. after   17 cycles

 Excitation energies and oscillator strengths:

 Excited State   1:      Singlet-A      1.7560 eV  706.05 nm  f=0.3705  <S**2>=0.000
     245 -> 248        0.19970
     246 -> 247        0.68107
     245 <- 248        0.11284
 This state for optimization and/or second-order correction.
 Total Energy, E(TD-HF/TD-DFT) =  -3007.10097605
 Copying the excited state density for this state as the 1-particle RhoCI density.

 Excited State   2:      Singlet-A      2.3183 eV  534.81 nm  f=0.0756  <S**2>=0.000
     245 -> 247        0.61669
     246 -> 248       -0.33954

 Excited State   3:      Singlet-A      3.5319 eV  351.04 nm  f=0.5874  <S**2>=0.000
     241 -> 247        0.13008
     242 -> 247        0.31905
     242 -> 249        0.13851
     242 -> 250        0.11914
     245 -> 247        0.26901
     246 -> 248        0.51175

 Excited State   4:      Singlet-A      3.5511 eV  349.14 nm  f=0.2015  <S**2>=0.000
     241 -> 247       -0.15369
     242 -> 247        0.45315
     242 -> 249        0.26404
     242 -> 250        0.20341
     243 -> 247        0.16857
     245 -> 247       -0.15946
     246 -> 248       -0.29493

 Excited State   5:      Singlet-A      3.6953 eV  335.52 nm  f=0.0376  <S**2>=0.000
     242 -> 247       -0.14407
     243 -> 247        0.66552

 The electronic state is 1-A.
 Alpha  occ. eigenvalues --  -46.88506 -19.25455 -19.25101 -19.19644 -19.19028
 Alpha  occ. eigenvalues --  -19.18786 -19.18522 -14.41906 -14.41147 -14.39771
 Alpha  occ. eigenvalues --  -14.39590 -10.39657 -10.39078 -10.35247 -10.34367
 Alpha  occ. eigenvalues --  -10.32106 -10.31186 -10.30791 -10.30612 -10.30555
 Alpha  occ. eigenvalues --  -10.30474 -10.30402 -10.30393 -10.30146 -10.29035
 Alpha  occ. eigenvalues --  -10.28386 -10.28284 -10.27991 -10.27984 -10.27932
 Alpha  occ. eigenvalues --  -10.27826 -10.27618 -10.27550 -10.27501 -10.27323
 Alpha  occ. eigenvalues --  -10.27071 -10.27050 -10.26964 -10.26950 -10.26703
 Alpha  occ. eigenvalues --  -10.26344 -10.26168 -10.26119 -10.26096 -10.26042
 Alpha  occ. eigenvalues --  -10.26008 -10.25979 -10.25912 -10.25902 -10.25851
 Alpha  occ. eigenvalues --  -10.25829 -10.25764 -10.25610 -10.25386 -10.25035
 Alpha  occ. eigenvalues --  -10.25004 -10.24982 -10.24871 -10.24802 -10.24773
 Alpha  occ. eigenvalues --  -10.24766 -10.24642 -10.24639 -10.24578 -10.24242
 Alpha  occ. eigenvalues --  -10.24161  -3.17111  -1.92019  -1.91559  -1.91423
 Alpha  occ. eigenvalues --   -1.16051  -1.15764  -1.09379  -1.09060  -1.06445
 Alpha  occ. eigenvalues --   -1.05905  -1.05764  -1.04574  -1.03128  -1.02196
 Alpha  occ. eigenvalues --   -0.93134  -0.90708  -0.90099  -0.90076  -0.89560
 Alpha  occ. eigenvalues --   -0.88542  -0.88375  -0.87608  -0.87223  -0.87082
 Alpha  occ. eigenvalues --   -0.86657  -0.86044  -0.84469  -0.84055  -0.83802
 Alpha  occ. eigenvalues --   -0.82738  -0.82325  -0.81755  -0.81096  -0.80897
 Alpha  occ. eigenvalues --   -0.80093  -0.78717  -0.78520  -0.77647  -0.76792
 Alpha  occ. eigenvalues --   -0.75739  -0.75472  -0.75383  -0.74525  -0.74273
 Alpha  occ. eigenvalues --   -0.73748  -0.72945  -0.71983  -0.70790  -0.69519
 Alpha  occ. eigenvalues --   -0.68910  -0.67765  -0.66855  -0.66448  -0.66415
 Alpha  occ. eigenvalues --   -0.65816  -0.65147  -0.65032  -0.64578  -0.64420
 Alpha  occ. eigenvalues --   -0.63496  -0.63318  -0.62848  -0.62496  -0.60511
 Alpha  occ. eigenvalues --   -0.60303  -0.59742  -0.59539  -0.58919  -0.58388
 Alpha  occ. eigenvalues --   -0.57784  -0.57232  -0.56483  -0.56180  -0.55524
 Alpha  occ. eigenvalues --   -0.55216  -0.55098  -0.54679  -0.54345  -0.54187
 Alpha  occ. eigenvalues --   -0.53903  -0.53697  -0.53495  -0.53158  -0.53015
 Alpha  occ. eigenvalues --   -0.52306  -0.52095  -0.51891  -0.51764  -0.51699
 Alpha  occ. eigenvalues --   -0.51651  -0.51311  -0.51108  -0.50773  -0.50637
 Alpha  occ. eigenvalues --   -0.50487  -0.50277  -0.50157  -0.49862  -0.49637
 Alpha  occ. eigenvalues --   -0.49434  -0.49136  -0.48943  -0.48766  -0.48480
 Alpha  occ. eigenvalues --   -0.48345  -0.48334  -0.48219  -0.48061  -0.47847
 Alpha  occ. eigenvalues --   -0.47608  -0.47498  -0.47352  -0.46992  -0.46656
 Alpha  occ. eigenvalues --   -0.46545  -0.46343  -0.46230  -0.46092  -0.45902
 Alpha  occ. eigenvalues --   -0.45570  -0.45429  -0.45251  -0.45127  -0.44973
 Alpha  occ. eigenvalues --   -0.44690  -0.44509  -0.44211  -0.43929  -0.43818
 Alpha  occ. eigenvalues --   -0.43753  -0.43610  -0.43401  -0.43305  -0.43107
 Alpha  occ. eigenvalues --   -0.42969  -0.42867  -0.42405  -0.42287  -0.42118
 Alpha  occ. eigenvalues --   -0.41652  -0.41549  -0.41361  -0.41154  -0.41104
 Alpha  occ. eigenvalues --   -0.40957  -0.40863  -0.40450  -0.40291  -0.40103
 Alpha  occ. eigenvalues --   -0.39939  -0.39390  -0.39146  -0.38920  -0.38817
 Alpha  occ. eigenvalues --   -0.38781  -0.38418  -0.37900  -0.37869  -0.37725
 Alpha  occ. eigenvalues --   -0.37212  -0.37069  -0.36885  -0.36519  -0.36020
 Alpha  occ. eigenvalues --   -0.35637  -0.35238  -0.34914  -0.34547  -0.34205
 Alpha  occ. eigenvalues --   -0.33790  -0.33532  -0.32997  -0.31572  -0.31043
 Alpha  occ. eigenvalues --   -0.30564  -0.30461  -0.30252  -0.29689  -0.24072
 Alpha  occ. eigenvalues --   -0.20924
 Alpha virt. eigenvalues --   -0.08142  -0.01809   0.00762   0.02583   0.03047
 Alpha virt. eigenvalues --    0.04394   0.04641   0.05580   0.05695   0.06668
 Alpha virt. eigenvalues --    0.07889   0.07927   0.08668   0.08917   0.09106

 Mulliken charges:
               1
     1  Mg   0.835289
     2  C    0.024907
     3  C   -0.055401
     4  C   -0.051450
     5  C   -0.105922
     6  N   -0.263911
     7  C   -0.108957
     8  C    0.054888
     9  C   -0.063359
    10  C    0.036280
    11  C    0.054528
    12  C    0.058470
    13  C    0.100646
    14  C    0.142512
    15  O   -0.259545
    16  O   -0.339925
    17  N   -0.433155
    18  C    0.174596
    19  C   -0.115124
    20  C   -0.045537
    21  C    0.143390
    22  C    0.083596
    23  C    0.007324
    24  O   -0.223219
    25  C    0.070519
    26  N   -0.254215
    27  C   -0.037001
    28  C   -0.003993
    29  C   -0.057357
    30  C    0.012109
    31  C    0.079527
    32  C    0.047451
    33  C    0.022711
    34  N   -0.327845
    35  C    0.125786
    36  C   -0.201298
    37  C    0.045283
    38  C    0.112677
    39  C    0.151229
    40  C   -0.007672
    41  O   -0.171351
    42  C    0.033371
    43  C    0.193276
    44  O   -0.254134
    45  O   -0.315835
    46  C    0.171848
    47  C    0.257294
    48  C   -0.103482
    49  C   -0.185045
    50  C    0.088455
    51  C    0.075142
    52  C    0.056101
    53  C    0.050382
    54  C   -0.139784
    55  C    0.034981
    56  C    0.069270
    57  C    0.002118
    58  C    0.023905
    59  C   -0.148299
    60  C    0.069005
    61  C    0.081431
    62  C   -0.014322
    63  C    0.039700
    64  C   -0.165118
    65  C    0.051972
    66  C    0.028922
    67  H   -0.038826
    68  H    0.004221
    69  H   -0.019033
    70  H    0.008339
    71  H    0.009985
    72  H    0.018884
    73  H   -0.001946
    74  H    0.014831
    75  H   -0.012560
    76  H    0.012387
    77  H    0.036655
    78  H    0.045129
    79  H    0.018539
    80  H    0.030322
    81  H    0.016486
    82  H    0.031185
    83  H    0.040841
    84  H    0.035934
    85  H    0.017152
    86  H    0.006280
    87  H    0.011858
    88  H    0.025620
    89  H    0.033299
    90  H   -0.001692
    91  H   -0.015505
    92  H    0.028624
    93  H    0.017402
    94  H    0.021758
    95  H    0.055712
    96  H   -0.004647
    97  H    0.025733
    98  H    0.060730
    99  H    0.049555
   100  H    0.026563
   101  H    0.028403
   102  H    0.044730
   103  H    0.023422
   104  H   -0.002751
   105  H    0.004364
   106  H    0.032956
   107  H    0.028302
   108  H    0.005021
   109  H   -0.023903
   110  H   -0.000154
   111  H   -0.009451
   112  H   -0.006270
   113  H   -0.016901
   114  H    0.006269
   115  H    0.010995
   116  H    0.002971
   117  H   -0.000719
   118  H   -0.010939
   119  H   -0.007949
   120  H    0.011953
   121  H    0.002582
   122  H   -0.005579
   123  H   -0.012042
   124  H    0.000750
   125  H   -0.001315
   126  H    0.019833
   127  H   -0.004870
   128  H   -0.019977
   129  H   -0.001571
   130  H   -0.010995
   131  H    0.002221
   132  H   -0.008228
   133  H   -0.003002
   134  H   -0.001420
   135  H    0.009659
   136  H    0.003874
   137  H    0.009076
   138  H    0.013296
   139  H    0.005489
   140  H    0.013423
 Sum of Mulliken charges =  -0.00000

 Dipole moment (field-independent basis, Debye):
    X=             -2.7290    Y=              4.3287    Z=              0.8467  Tot=              5.1867
 Quadrupole moment (field-independent basis, Debye-Ang):
   XX=           -366.0885   YY=           -419.0469   ZZ=           -413.7064
   XY=              0.9947   XZ=             16.4732   YZ=              1.7234

 Normal termination of Gaussian 16 at Fri Apr 29 22:42:59 2022.
