 Gaussian 16, Revision A.03,
 Gaussian 16:  ES64L-G16RevA.03 25-Dec-2016

 ---------------------------------
 #p PBE1PBE/Def2SVP td=(nstates=5)
 ---------------------------------

 ----------------------------------------------------
 step_501_chromophore_4 TDDFT with PBE1PBE functional
 ----------------------------------------------------
 Symbolic Z-matrix:
 Charge =  0 Multiplicity = 1

                         Standard orientation:
 ---------------------------------------------------------------------
 Center     Atomic      Atomic             Coordinates (Angstroms)
 Number     Number       Type             X           Y           Z
 ---------------------------------------------------------------------
      1         12           0        6.057992    0.567783    0.139363
      2          6           0        3.541001   -1.990412   -0.148032
      3          6           0        3.618236    2.824037   -0.642145
      4          6           0        8.466387    2.902357    0.109979
      5          6           0        8.387050   -1.891677    0.418117
      6          7           0        3.727663    0.398769   -0.306342
      7          6           0        2.997940   -0.754461   -0.306351
      8          6           0        1.572031   -0.369157   -0.423239
      9          6           0        1.582327    1.155576   -0.722325
     10          6           0        3.077824    1.559897   -0.610569
     11          6           0        1.028020    1.473045   -2.147602
     12          6           0        0.692388   -0.736680    0.745483
     13          6           0       -0.815303   -0.594576    0.612760
     14          6           0       -1.629390   -1.751856    1.015119
     15          8           0       -1.432668   -2.538125    1.974726
     16          8           0       -2.751075   -1.828775    0.213004
     17          7           0        6.023700    2.569406   -0.102828
     18          6           0        4.904358    3.336431   -0.528893
     19          6           0        5.325725    4.749395   -0.488931
     20          6           0        6.712369    4.730601   -0.363372
     21          6           0        7.139424    3.333207   -0.168253
     22          6           0        4.342073    5.869759   -0.754845
     23          6           0        7.713405    5.905363   -0.321135
     24          8           0        8.946959    5.775719   -0.431851
     25          6           0        7.151609    7.251345   -0.106514
     26          7           0        8.176068    0.535405    0.184319
     27          6           0        8.978743    1.579813    0.178527
     28          6           0       10.484181    1.202327    0.243539
     29          6           0       10.387766   -0.285358    0.588789
     30          6           0        8.908995   -0.557604    0.434388
     31          6           0       11.203613    1.466165   -1.122176
     32          6           0       10.910393   -0.708266    1.943186
     33          6           0       11.743087   -2.001779    1.988546
     34          7           0        5.968102   -1.486422    0.227874
     35          6           0        7.031041   -2.353396    0.357417
     36          6           0        6.568385   -3.771380    0.444183
     37          6           0        5.218871   -3.585448    0.221654
     38          6           0        4.895125   -2.234708    0.045626
     39          6           0        7.350295   -4.986811    0.826731
     40          6           0        3.975198   -4.331554    0.098872
     41          8           0        3.811672   -5.539380    0.229719
     42          6           0        2.816599   -3.337711   -0.145616
     43          6           0        2.094013   -3.825636   -1.292492
     44          8           0        2.441065   -3.740074   -2.495137
     45          8           0        0.859654   -4.264121   -0.920260
     46          6           0       -0.119740   -4.537578   -1.949196
     47          6           0       -3.787237   -2.790213    0.592440
     48          6           0       -5.182410   -2.151155    0.520610
     49          6           0       -6.400921   -2.719943    0.652351
     50          6           0       -6.654890   -4.171148    0.963811
     51          6           0       -7.676478   -1.868915    0.516449
     52          6           0       -8.277713   -1.683449   -0.903086
     53          6           0       -8.022540   -0.305877   -1.504916
     54          6           0       -9.253965    0.643282   -1.318159
     55          6           0       -9.638858    1.205377   -2.723659
     56          6           0       -9.072248    1.799277   -0.241364
     57          6           0       -9.955869    1.555306    0.995725
     58          6           0      -10.567335    2.825061    1.696067
     59          6           0      -11.974152    2.519344    2.318874
     60          6           0      -12.140416    3.499404    3.512736
     61          6           0      -13.112707    2.752439    1.278342
     62          6           0      -13.930892    1.444057    0.948109
     63          6           0      -13.967739    0.927123   -0.458462
     64          6           0      -15.272601    0.067198   -0.665874
     65          6           0      -15.264438   -0.950563   -1.867724
     66          6           0      -16.472477    1.094218   -0.744469
     67          1           0        2.834120    3.565819   -0.806045
     68          1           0        9.262553    3.629408   -0.062250
     69          1           0        9.213012   -2.591498    0.276302
     70          1           0        1.250040   -0.912765   -1.310480
     71          1           0        0.980172    1.722761   -0.012317
     72          1           0        0.248487    2.211027   -2.339458
     73          1           0        0.633269    0.518442   -2.495102
     74          1           0        1.787130    1.660539   -2.907484
     75          1           0        0.892395   -0.097655    1.605732
     76          1           0        1.000887   -1.673388    1.208884
     77          1           0       -1.093181   -0.393108   -0.420707
     78          1           0       -1.103372    0.112297    1.390432
     79          1           0        4.703246    6.627359   -1.450016
     80          1           0        4.009594    6.390630    0.142844
     81          1           0        3.419317    5.562814   -1.247811
     82          1           0        6.497044    7.215846    0.764454
     83          1           0        6.572384    7.406289   -1.016118
     84          1           0        7.990581    7.894290    0.157106
     85          1           0       10.907908    1.792679    1.056688
     86          1           0       10.863551   -0.971777   -0.111027
     87          1           0       11.505510    0.536102   -1.602870
     88          1           0       12.126259    2.029193   -0.981278
     89          1           0       10.466371    1.979042   -1.740047
     90          1           0       10.109282   -0.798397    2.676118
     91          1           0       11.358578    0.200064    2.344581
     92          1           0       12.424729   -1.904293    2.832948
     93          1           0       12.204716   -2.247343    1.031650
     94          1           0       10.963092   -2.743869    2.157565
     95          1           0        7.211496   -5.301968    1.861072
     96          1           0        8.370986   -4.781873    0.505050
     97          1           0        7.126329   -5.790428    0.124106
     98          1           0        2.134042   -3.511764    0.686155
     99          1           0        0.188259   -4.256417   -2.956616
    100          1           0       -1.086883   -4.112790   -1.681720
    101          1           0       -0.350230   -5.600808   -2.021320
    102          1           0       -3.696110   -3.173889    1.609219
    103          1           0       -3.605532   -3.689564    0.004417
    104          1           0       -5.136444   -1.075726    0.351179
    105          1           0       -5.721597   -4.679541    1.207221
    106          1           0       -7.120837   -4.727628    0.150298
    107          1           0       -7.269971   -4.092120    1.860024
    108          1           0       -7.611450   -0.874666    0.959823
    109          1           0       -8.406910   -2.390400    1.134556
    110          1           0       -9.341224   -1.916825   -0.867607
    111          1           0       -7.865510   -2.445463   -1.564670
    112          1           0       -7.606937   -0.392006   -2.509520
    113          1           0       -7.227953    0.323381   -1.106064
    114          1           0      -10.143007    0.079580   -1.035842
    115          1           0       -9.172045    0.647018   -3.534711
    116          1           0       -9.478551    2.270831   -2.891520
    117          1           0      -10.725403    1.144569   -2.774109
    118          1           0       -9.374308    2.785054   -0.594448
    119          1           0       -8.023336    1.919113    0.029224
    120          1           0       -9.362766    1.103163    1.791075
    121          1           0      -10.803168    0.987393    0.611515
    122          1           0      -10.632533    3.725456    1.083933
    123          1           0       -9.884967    3.117226    2.495241
    124          1           0      -11.974393    1.493134    2.684916
    125          1           0      -11.579756    4.398081    3.254036
    126          1           0      -11.821425    3.096812    4.474148
    127          1           0      -13.180025    3.819257    3.446071
    128          1           0      -12.677537    3.016448    0.314060
    129          1           0      -13.807916    3.577888    1.433244
    130          1           0      -14.937537    1.804961    1.160453
    131          1           0      -13.619236    0.591471    1.551651
    132          1           0      -13.050135    0.355337   -0.598614
    133          1           0      -14.042757    1.698892   -1.224881
    134          1           0      -15.376884   -0.544966    0.230169
    135          1           0      -16.242904   -1.130618   -2.313739
    136          1           0      -14.935277   -1.920614   -1.494163
    137          1           0      -14.555330   -0.645533   -2.637970
    138          1           0      -17.006592    1.060189    0.204278
    139          1           0      -17.161811    0.782856   -1.530229
    140          1           0      -16.179998    2.136982   -0.871017
 ---------------------------------------------------------------------

 SCF Done:  E(RPBE1PBE) =  -3005.35453677     A.U. after   15 cycles

 Excitation energies and oscillator strengths:

 Excited State   1:      Singlet-A      1.9194 eV  645.95 nm  f=0.3623  <S**2>=0.000
     245 -> 248        0.19153
     246 -> 247        0.68770
 This state for optimization and/or second-order correction.
 Total Energy, E(TD-HF/TD-DFT) =  -3005.28399989
 Copying the excited state density for this state as the 1-particle RhoCI density.

 Excited State   2:      Singlet-A      2.3257 eV  533.09 nm  f=0.0825  <S**2>=0.000
     245 -> 247        0.63252
     246 -> 248       -0.30965

 Excited State   3:      Singlet-A      3.0442 eV  407.28 nm  f=0.0002  <S**2>=0.000
     243 -> 247        0.67338
     243 -> 249        0.16939
     243 -> 250        0.11396

 Excited State   4:      Singlet-A      3.2012 eV  387.31 nm  f=0.0030  <S**2>=0.000
     242 -> 247        0.66016
     242 -> 249       -0.17302
     242 -> 250        0.10985

 Excited State   5:      Singlet-A      3.3338 eV  371.90 nm  f=0.0150  <S**2>=0.000
     241 -> 247        0.68310
     246 -> 248       -0.12182

 The electronic state is 1-A.
 Alpha  occ. eigenvalues --  -46.91905 -19.26162 -19.25739 -19.19962 -19.19215
 Alpha  occ. eigenvalues --  -19.19025 -19.18765 -14.41406 -14.40662 -14.39430
 Alpha  occ. eigenvalues --  -14.39248 -10.36686 -10.36048 -10.32332 -10.31557
 Alpha  occ. eigenvalues --  -10.29527 -10.28482 -10.28407 -10.28403 -10.28257
 Alpha  occ. eigenvalues --  -10.28207 -10.28153 -10.28041 -10.27883 -10.26641
 Alpha  occ. eigenvalues --  -10.26103 -10.26077 -10.25817 -10.25748 -10.25454
 Alpha  occ. eigenvalues --  -10.25422 -10.25394 -10.25299 -10.24965 -10.24937
 Alpha  occ. eigenvalues --  -10.24935 -10.24690 -10.24688 -10.24531 -10.24324
 Alpha  occ. eigenvalues --  -10.24052 -10.23767 -10.23626 -10.23577 -10.23574
 Alpha  occ. eigenvalues --  -10.23572 -10.23488 -10.23482 -10.23479 -10.23385
 Alpha  occ. eigenvalues --  -10.23326 -10.23311 -10.23151 -10.22932 -10.22581
 Alpha  occ. eigenvalues --  -10.22576 -10.22572 -10.22414 -10.22395 -10.22360
 Alpha  occ. eigenvalues --  -10.22316 -10.22184 -10.22169 -10.22068 -10.21653
 Alpha  occ. eigenvalues --  -10.21576  -3.14089  -1.86938  -1.86455  -1.86325
 Alpha  occ. eigenvalues --   -1.10814  -1.10583  -1.04130  -1.03720  -1.01296
 Alpha  occ. eigenvalues --   -1.00676  -1.00430  -0.99304  -0.97735  -0.96829
 Alpha  occ. eigenvalues --   -0.87520  -0.84933  -0.84414  -0.84203  -0.83648
 Alpha  occ. eigenvalues --   -0.82857  -0.82491  -0.81883  -0.81398  -0.81339
 Alpha  occ. eigenvalues --   -0.80997  -0.80319  -0.78783  -0.78291  -0.78011
 Alpha  occ. eigenvalues --   -0.76963  -0.76495  -0.75979  -0.75415  -0.75225
 Alpha  occ. eigenvalues --   -0.74259  -0.73008  -0.72767  -0.71970  -0.71114
 Alpha  occ. eigenvalues --   -0.70075  -0.69597  -0.69561  -0.68681  -0.68429
 Alpha  occ. eigenvalues --   -0.68089  -0.67387  -0.66437  -0.65107  -0.63908
 Alpha  occ. eigenvalues --   -0.63365  -0.62030  -0.61288  -0.60855  -0.60697
 Alpha  occ. eigenvalues --   -0.60252  -0.59731  -0.59245  -0.59154  -0.58541
 Alpha  occ. eigenvalues --   -0.57846  -0.57634  -0.57087  -0.57044  -0.54989
 Alpha  occ. eigenvalues --   -0.54804  -0.54319  -0.54021  -0.53543  -0.52889
 Alpha  occ. eigenvalues --   -0.52336  -0.51566  -0.51083  -0.50749  -0.50053
 Alpha  occ. eigenvalues --   -0.49747  -0.49449  -0.49241  -0.48855  -0.48687
 Alpha  occ. eigenvalues --   -0.48461  -0.48124  -0.47916  -0.47753  -0.47592
 Alpha  occ. eigenvalues --   -0.46843  -0.46621  -0.46538  -0.46352  -0.46200
 Alpha  occ. eigenvalues --   -0.46192  -0.45859  -0.45652  -0.45398  -0.45165
 Alpha  occ. eigenvalues --   -0.45017  -0.44880  -0.44708  -0.44481  -0.44220
 Alpha  occ. eigenvalues --   -0.44027  -0.43702  -0.43526  -0.43358  -0.43117
 Alpha  occ. eigenvalues --   -0.42994  -0.42899  -0.42848  -0.42696  -0.42500
 Alpha  occ. eigenvalues --   -0.42247  -0.42160  -0.42007  -0.41700  -0.41292
 Alpha  occ. eigenvalues --   -0.41278  -0.41070  -0.40933  -0.40738  -0.40682
 Alpha  occ. eigenvalues --   -0.40391  -0.40054  -0.39952  -0.39851  -0.39707
 Alpha  occ. eigenvalues --   -0.39457  -0.39288  -0.38912  -0.38717  -0.38518
 Alpha  occ. eigenvalues --   -0.38511  -0.38381  -0.38089  -0.38030  -0.37988
 Alpha  occ. eigenvalues --   -0.37710  -0.37592  -0.37188  -0.37112  -0.37001
 Alpha  occ. eigenvalues --   -0.36474  -0.36335  -0.36198  -0.36024  -0.35899
 Alpha  occ. eigenvalues --   -0.35745  -0.35703  -0.35262  -0.35209  -0.34925
 Alpha  occ. eigenvalues --   -0.34914  -0.34183  -0.33951  -0.33799  -0.33722
 Alpha  occ. eigenvalues --   -0.33606  -0.33199  -0.32905  -0.32643  -0.32483
 Alpha  occ. eigenvalues --   -0.32155  -0.32051  -0.31770  -0.31484  -0.31069
 Alpha  occ. eigenvalues --   -0.30566  -0.30201  -0.29843  -0.29492  -0.29144
 Alpha  occ. eigenvalues --   -0.28914  -0.28584  -0.28135  -0.27175  -0.26178
 Alpha  occ. eigenvalues --   -0.25872  -0.25743  -0.25314  -0.24958  -0.21011
 Alpha  occ. eigenvalues --   -0.18620
 Alpha virt. eigenvalues --   -0.10692  -0.05256  -0.03498  -0.01867  -0.00118
 Alpha virt. eigenvalues --   -0.00046   0.00421   0.01312   0.01586   0.02903
 Alpha virt. eigenvalues --    0.03677   0.04634   0.04639   0.05481   0.05794

 Mulliken charges:
               1
     1  Mg   0.985063
     2  C    0.003688
     3  C   -0.063296
     4  C   -0.040086
     5  C   -0.088500
     6  N   -0.369353
     7  C   -0.019585
     8  C   -0.022387
     9  C   -0.150782
    10  C    0.083427
    11  C    0.002513
    12  C    0.012623
    13  C    0.013051
    14  C    0.217554
    15  O   -0.292857
    16  O   -0.372281
    17  N   -0.542333
    18  C    0.195206
    19  C   -0.136095
    20  C   -0.101309
    21  C    0.175438
    22  C    0.027189
    23  C    0.058743
    24  O   -0.260973
    25  C   -0.005105
    26  N   -0.359486
    27  C   -0.003186
    28  C   -0.085213
    29  C   -0.135902
    30  C    0.050018
    31  C    0.024683
    32  C   -0.003121
    33  C   -0.055031
    34  N   -0.460534
    35  C    0.137431
    36  C   -0.206304
    37  C   -0.018300
    38  C    0.172353
    39  C    0.094985
    40  C    0.097012
    41  O   -0.217607
    42  C   -0.073165
    43  C    0.288501
    44  O   -0.290651
    45  O   -0.350876
    46  C    0.117741
    47  C    0.222575
    48  C   -0.113635
    49  C   -0.234670
    50  C    0.024554
    51  C    0.012619
    52  C   -0.010094
    53  C   -0.000620
    54  C   -0.228624
    55  C   -0.021556
    56  C    0.022263
    57  C   -0.070870
    58  C   -0.027531
    59  C   -0.236512
    60  C    0.007085
    61  C    0.033748
    62  C   -0.077002
    63  C   -0.026863
    64  C   -0.251594
    65  C   -0.009015
    66  C   -0.034113
    67  H   -0.004578
    68  H    0.035818
    69  H    0.012890
    70  H    0.050150
    71  H    0.046209
    72  H    0.045717
    73  H    0.025392
    74  H    0.042507
    75  H    0.021293
    76  H    0.046158
    77  H    0.068179
    78  H    0.077930
    79  H    0.045682
    80  H    0.057626
    81  H    0.042424
    82  H    0.058868
    83  H    0.067960
    84  H    0.062615
    85  H    0.052565
    86  H    0.043209
    87  H    0.038936
    88  H    0.052781
    89  H    0.061356
    90  H    0.031581
    91  H    0.018200
    92  H    0.056736
    93  H    0.044424
    94  H    0.049578
    95  H    0.081846
    96  H    0.023832
    97  H    0.054115
    98  H    0.097123
    99  H    0.069829
   100  H    0.050195
   101  H    0.050554
   102  H    0.070467
   103  H    0.049619
   104  H    0.027478
   105  H    0.032431
   106  H    0.059791
   107  H    0.055757
   108  H    0.039779
   109  H    0.008937
   110  H    0.031444
   111  H    0.024150
   112  H    0.024509
   113  H    0.015314
   114  H    0.044349
   115  H    0.037717
   116  H    0.029902
   117  H    0.027265
   118  H    0.021718
   119  H    0.023137
   120  H    0.045002
   121  H    0.041430
   122  H    0.024945
   123  H    0.022181
   124  H    0.037467
   125  H    0.027030
   126  H    0.047381
   127  H    0.024123
   128  H    0.014062
   129  H    0.028134
   130  H    0.024393
   131  H    0.033601
   132  H    0.028243
   133  H    0.029851
   134  H    0.036527
   135  H    0.036285
   136  H    0.031854
   137  H    0.036283
   138  H    0.040720
   139  H    0.033774
   140  H    0.040201
 Sum of Mulliken charges =  -0.00000

 Dipole moment (field-independent basis, Debye):
    X=             -2.6799    Y=              4.1948    Z=              0.8888  Tot=              5.0565
 Quadrupole moment (field-independent basis, Debye-Ang):
   XX=           -359.6126   YY=           -416.4002   ZZ=           -411.3306
   XY=             -0.8132   XZ=             17.3628   YZ=              1.6032

 Normal termination of Gaussian 16 at Fri Apr 29 23:03:57 2022.
