 Gaussian 16, Revision A.03,
 Gaussian 16:  ES64L-G16RevA.03 25-Dec-2016

 --------------------------------
 #p wB97XD/Def2SVP td=(nstates=5)
 --------------------------------

 ---------------------------------------------------
 step_501_chromophore_4 TDDFT with wB97XD functional
 ---------------------------------------------------
 Symbolic Z-matrix:
 Charge =  0 Multiplicity = 1

                         Standard orientation:
 ---------------------------------------------------------------------
 Center     Atomic      Atomic             Coordinates (Angstroms)
 Number     Number       Type             X           Y           Z
 ---------------------------------------------------------------------
      1         12           0        6.057992    0.567783    0.139363
      2          6           0        3.541001   -1.990412   -0.148032
      3          6           0        3.618236    2.824037   -0.642145
      4          6           0        8.466387    2.902357    0.109979
      5          6           0        8.387050   -1.891677    0.418117
      6          7           0        3.727663    0.398769   -0.306342
      7          6           0        2.997940   -0.754461   -0.306351
      8          6           0        1.572031   -0.369157   -0.423239
      9          6           0        1.582327    1.155576   -0.722325
     10          6           0        3.077824    1.559897   -0.610569
     11          6           0        1.028020    1.473045   -2.147602
     12          6           0        0.692388   -0.736680    0.745483
     13          6           0       -0.815303   -0.594576    0.612760
     14          6           0       -1.629390   -1.751856    1.015119
     15          8           0       -1.432668   -2.538125    1.974726
     16          8           0       -2.751075   -1.828775    0.213004
     17          7           0        6.023700    2.569406   -0.102828
     18          6           0        4.904358    3.336431   -0.528893
     19          6           0        5.325725    4.749395   -0.488931
     20          6           0        6.712369    4.730601   -0.363372
     21          6           0        7.139424    3.333207   -0.168253
     22          6           0        4.342073    5.869759   -0.754845
     23          6           0        7.713405    5.905363   -0.321135
     24          8           0        8.946959    5.775719   -0.431851
     25          6           0        7.151609    7.251345   -0.106514
     26          7           0        8.176068    0.535405    0.184319
     27          6           0        8.978743    1.579813    0.178527
     28          6           0       10.484181    1.202327    0.243539
     29          6           0       10.387766   -0.285358    0.588789
     30          6           0        8.908995   -0.557604    0.434388
     31          6           0       11.203613    1.466165   -1.122176
     32          6           0       10.910393   -0.708266    1.943186
     33          6           0       11.743087   -2.001779    1.988546
     34          7           0        5.968102   -1.486422    0.227874
     35          6           0        7.031041   -2.353396    0.357417
     36          6           0        6.568385   -3.771380    0.444183
     37          6           0        5.218871   -3.585448    0.221654
     38          6           0        4.895125   -2.234708    0.045626
     39          6           0        7.350295   -4.986811    0.826731
     40          6           0        3.975198   -4.331554    0.098872
     41          8           0        3.811672   -5.539380    0.229719
     42          6           0        2.816599   -3.337711   -0.145616
     43          6           0        2.094013   -3.825636   -1.292492
     44          8           0        2.441065   -3.740074   -2.495137
     45          8           0        0.859654   -4.264121   -0.920260
     46          6           0       -0.119740   -4.537578   -1.949196
     47          6           0       -3.787237   -2.790213    0.592440
     48          6           0       -5.182410   -2.151155    0.520610
     49          6           0       -6.400921   -2.719943    0.652351
     50          6           0       -6.654890   -4.171148    0.963811
     51          6           0       -7.676478   -1.868915    0.516449
     52          6           0       -8.277713   -1.683449   -0.903086
     53          6           0       -8.022540   -0.305877   -1.504916
     54          6           0       -9.253965    0.643282   -1.318159
     55          6           0       -9.638858    1.205377   -2.723659
     56          6           0       -9.072248    1.799277   -0.241364
     57          6           0       -9.955869    1.555306    0.995725
     58          6           0      -10.567335    2.825061    1.696067
     59          6           0      -11.974152    2.519344    2.318874
     60          6           0      -12.140416    3.499404    3.512736
     61          6           0      -13.112707    2.752439    1.278342
     62          6           0      -13.930892    1.444057    0.948109
     63          6           0      -13.967739    0.927123   -0.458462
     64          6           0      -15.272601    0.067198   -0.665874
     65          6           0      -15.264438   -0.950563   -1.867724
     66          6           0      -16.472477    1.094218   -0.744469
     67          1           0        2.834120    3.565819   -0.806045
     68          1           0        9.262553    3.629408   -0.062250
     69          1           0        9.213012   -2.591498    0.276302
     70          1           0        1.250040   -0.912765   -1.310480
     71          1           0        0.980172    1.722761   -0.012317
     72          1           0        0.248487    2.211027   -2.339458
     73          1           0        0.633269    0.518442   -2.495102
     74          1           0        1.787130    1.660539   -2.907484
     75          1           0        0.892395   -0.097655    1.605732
     76          1           0        1.000887   -1.673388    1.208884
     77          1           0       -1.093181   -0.393108   -0.420707
     78          1           0       -1.103372    0.112297    1.390432
     79          1           0        4.703246    6.627359   -1.450016
     80          1           0        4.009594    6.390630    0.142844
     81          1           0        3.419317    5.562814   -1.247811
     82          1           0        6.497044    7.215846    0.764454
     83          1           0        6.572384    7.406289   -1.016118
     84          1           0        7.990581    7.894290    0.157106
     85          1           0       10.907908    1.792679    1.056688
     86          1           0       10.863551   -0.971777   -0.111027
     87          1           0       11.505510    0.536102   -1.602870
     88          1           0       12.126259    2.029193   -0.981278
     89          1           0       10.466371    1.979042   -1.740047
     90          1           0       10.109282   -0.798397    2.676118
     91          1           0       11.358578    0.200064    2.344581
     92          1           0       12.424729   -1.904293    2.832948
     93          1           0       12.204716   -2.247343    1.031650
     94          1           0       10.963092   -2.743869    2.157565
     95          1           0        7.211496   -5.301968    1.861072
     96          1           0        8.370986   -4.781873    0.505050
     97          1           0        7.126329   -5.790428    0.124106
     98          1           0        2.134042   -3.511764    0.686155
     99          1           0        0.188259   -4.256417   -2.956616
    100          1           0       -1.086883   -4.112790   -1.681720
    101          1           0       -0.350230   -5.600808   -2.021320
    102          1           0       -3.696110   -3.173889    1.609219
    103          1           0       -3.605532   -3.689564    0.004417
    104          1           0       -5.136444   -1.075726    0.351179
    105          1           0       -5.721597   -4.679541    1.207221
    106          1           0       -7.120837   -4.727628    0.150298
    107          1           0       -7.269971   -4.092120    1.860024
    108          1           0       -7.611450   -0.874666    0.959823
    109          1           0       -8.406910   -2.390400    1.134556
    110          1           0       -9.341224   -1.916825   -0.867607
    111          1           0       -7.865510   -2.445463   -1.564670
    112          1           0       -7.606937   -0.392006   -2.509520
    113          1           0       -7.227953    0.323381   -1.106064
    114          1           0      -10.143007    0.079580   -1.035842
    115          1           0       -9.172045    0.647018   -3.534711
    116          1           0       -9.478551    2.270831   -2.891520
    117          1           0      -10.725403    1.144569   -2.774109
    118          1           0       -9.374308    2.785054   -0.594448
    119          1           0       -8.023336    1.919113    0.029224
    120          1           0       -9.362766    1.103163    1.791075
    121          1           0      -10.803168    0.987393    0.611515
    122          1           0      -10.632533    3.725456    1.083933
    123          1           0       -9.884967    3.117226    2.495241
    124          1           0      -11.974393    1.493134    2.684916
    125          1           0      -11.579756    4.398081    3.254036
    126          1           0      -11.821425    3.096812    4.474148
    127          1           0      -13.180025    3.819257    3.446071
    128          1           0      -12.677537    3.016448    0.314060
    129          1           0      -13.807916    3.577888    1.433244
    130          1           0      -14.937537    1.804961    1.160453
    131          1           0      -13.619236    0.591471    1.551651
    132          1           0      -13.050135    0.355337   -0.598614
    133          1           0      -14.042757    1.698892   -1.224881
    134          1           0      -15.376884   -0.544966    0.230169
    135          1           0      -16.242904   -1.130618   -2.313739
    136          1           0      -14.935277   -1.920614   -1.494163
    137          1           0      -14.555330   -0.645533   -2.637970
    138          1           0      -17.006592    1.060189    0.204278
    139          1           0      -17.161811    0.782856   -1.530229
    140          1           0      -16.179998    2.136982   -0.871017
 ---------------------------------------------------------------------

 SCF Done:  E(RwB97XD) =  -3007.86164501     A.U. after   19 cycles

 Excitation energies and oscillator strengths:

 Excited State   1:      Singlet-A      1.6957 eV  731.16 nm  f=0.3679  <S**2>=0.000
     245 -> 248        0.20530
     246 -> 247        0.67914
     245 <- 248        0.12267
 This state for optimization and/or second-order correction.
 Total Energy, E(TD-HF/TD-DFT) =  -3007.79932875
 Copying the excited state density for this state as the 1-particle RhoCI density.

 Excited State   2:      Singlet-A      2.2622 eV  548.06 nm  f=0.0740  <S**2>=0.000
     245 -> 247        0.61554
     246 -> 248       -0.34072

 Excited State   3:      Singlet-A      3.5401 eV  350.23 nm  f=0.7169  <S**2>=0.000
     241 -> 247        0.20374
     242 -> 247        0.16633
     243 -> 249        0.10087
     245 -> 247        0.29436
     246 -> 248        0.56338
     245 <- 247       -0.10988

 Excited State   4:      Singlet-A      3.5731 eV  346.99 nm  f=0.0646  <S**2>=0.000
     242 -> 247        0.26132
     242 -> 249        0.20560
     242 -> 250       -0.15648
     243 -> 247        0.46522
     243 -> 249        0.23448
     243 -> 250       -0.18349
     246 -> 248       -0.16398

 Excited State   5:      Singlet-A      3.7117 eV  334.04 nm  f=0.0397  <S**2>=0.000
     242 -> 247        0.55475
     243 -> 247       -0.38483

 The electronic state is 1-A.
 Alpha  occ. eigenvalues --  -46.94848 -19.30705 -19.30328 -19.24616 -19.24072
 Alpha  occ. eigenvalues --  -19.23763 -19.23584 -14.46473 -14.45759 -14.44394
 Alpha  occ. eigenvalues --  -14.44179 -10.43468 -10.42927 -10.39218 -10.38393
 Alpha  occ. eigenvalues --  -10.36009 -10.34906 -10.34832 -10.34612 -10.34578
 Alpha  occ. eigenvalues --  -10.34555 -10.34456 -10.34439 -10.34154 -10.33194
 Alpha  occ. eigenvalues --  -10.32360 -10.32341 -10.32118 -10.32025 -10.31887
 Alpha  occ. eigenvalues --  -10.31842 -10.31736 -10.31551 -10.31506 -10.31424
 Alpha  occ. eigenvalues --  -10.31102 -10.31049 -10.31028 -10.30996 -10.30695
 Alpha  occ. eigenvalues --  -10.30308 -10.30040 -10.30023 -10.29991 -10.29959
 Alpha  occ. eigenvalues --  -10.29945 -10.29841 -10.29840 -10.29829 -10.29819
 Alpha  occ. eigenvalues --  -10.29742 -10.29700 -10.29548 -10.29309 -10.28961
 Alpha  occ. eigenvalues --  -10.28946 -10.28919 -10.28770 -10.28750 -10.28707
 Alpha  occ. eigenvalues --  -10.28616 -10.28585 -10.28552 -10.28474 -10.28074
 Alpha  occ. eigenvalues --  -10.27994  -3.20884  -1.94484  -1.94003  -1.93865
 Alpha  occ. eigenvalues --   -1.18237  -1.17962  -1.11617  -1.11275  -1.08647
 Alpha  occ. eigenvalues --   -1.08094  -1.07766  -1.06611  -1.05142  -1.04249
 Alpha  occ. eigenvalues --   -0.95128  -0.92570  -0.91939  -0.91884  -0.91320
 Alpha  occ. eigenvalues --   -0.90490  -0.90159  -0.89560  -0.89012  -0.88999
 Alpha  occ. eigenvalues --   -0.88605  -0.87938  -0.86423  -0.85920  -0.85659
 Alpha  occ. eigenvalues --   -0.84654  -0.84186  -0.83642  -0.83015  -0.82846
 Alpha  occ. eigenvalues --   -0.81928  -0.80666  -0.80443  -0.79568  -0.78723
 Alpha  occ. eigenvalues --   -0.77660  -0.77268  -0.77243  -0.76347  -0.76108
 Alpha  occ. eigenvalues --   -0.75679  -0.74928  -0.73956  -0.72715  -0.71430
 Alpha  occ. eigenvalues --   -0.70903  -0.69653  -0.68827  -0.68353  -0.68308
 Alpha  occ. eigenvalues --   -0.67797  -0.67163  -0.66886  -0.66589  -0.66226
 Alpha  occ. eigenvalues --   -0.65341  -0.65258  -0.64678  -0.64482  -0.62458
 Alpha  occ. eigenvalues --   -0.62289  -0.61717  -0.61497  -0.60908  -0.60359
 Alpha  occ. eigenvalues --   -0.59784  -0.59095  -0.58485  -0.58169  -0.57473
 Alpha  occ. eigenvalues --   -0.57170  -0.56946  -0.56620  -0.56268  -0.56096
 Alpha  occ. eigenvalues --   -0.55838  -0.55549  -0.55423  -0.55117  -0.54963
 Alpha  occ. eigenvalues --   -0.54228  -0.53992  -0.53811  -0.53675  -0.53600
 Alpha  occ. eigenvalues --   -0.53589  -0.53205  -0.52997  -0.52699  -0.52510
 Alpha  occ. eigenvalues --   -0.52451  -0.52201  -0.52038  -0.51769  -0.51560
 Alpha  occ. eigenvalues --   -0.51346  -0.51047  -0.50847  -0.50678  -0.50396
 Alpha  occ. eigenvalues --   -0.50262  -0.50212  -0.50148  -0.49988  -0.49775
 Alpha  occ. eigenvalues --   -0.49531  -0.49418  -0.49280  -0.48960  -0.48537
 Alpha  occ. eigenvalues --   -0.48472  -0.48264  -0.48116  -0.47956  -0.47826
 Alpha  occ. eigenvalues --   -0.47505  -0.47282  -0.47110  -0.47057  -0.46905
 Alpha  occ. eigenvalues --   -0.46632  -0.46434  -0.46093  -0.45847  -0.45748
 Alpha  occ. eigenvalues --   -0.45665  -0.45531  -0.45262  -0.45221  -0.45025
 Alpha  occ. eigenvalues --   -0.44862  -0.44771  -0.44367  -0.44195  -0.44066
 Alpha  occ. eigenvalues --   -0.43595  -0.43482  -0.43363  -0.43044  -0.43006
 Alpha  occ. eigenvalues --   -0.42817  -0.42760  -0.42311  -0.42223  -0.41990
 Alpha  occ. eigenvalues --   -0.41817  -0.41249  -0.40994  -0.40812  -0.40701
 Alpha  occ. eigenvalues --   -0.40677  -0.40245  -0.39829  -0.39709  -0.39567
 Alpha  occ. eigenvalues --   -0.39254  -0.39069  -0.38733  -0.38502  -0.37926
 Alpha  occ. eigenvalues --   -0.37663  -0.37084  -0.36765  -0.36391  -0.36133
 Alpha  occ. eigenvalues --   -0.35847  -0.35497  -0.35143  -0.33786  -0.32984
 Alpha  occ. eigenvalues --   -0.32738  -0.32474  -0.32398  -0.31718  -0.26003
 Alpha  occ. eigenvalues --   -0.22739
 Alpha virt. eigenvalues --   -0.06502   0.00079   0.02803   0.04675   0.06162
 Alpha virt. eigenvalues --    0.06689   0.06870   0.07992   0.08249   0.09221
 Alpha virt. eigenvalues --    0.10332   0.11263   0.11436   0.12218   0.12498

 Mulliken charges:
               1
     1  Mg   0.975640
     2  C    0.003036
     3  C   -0.073861
     4  C   -0.058618
     5  C   -0.108379
     6  N   -0.330623
     7  C   -0.058656
     8  C    0.009814
     9  C   -0.122914
    10  C    0.065514
    11  C    0.010702
    12  C    0.023794
    13  C    0.031369
    14  C    0.205715
    15  O   -0.290274
    16  O   -0.371118
    17  N   -0.515825
    18  C    0.189644
    19  C   -0.128769
    20  C   -0.091764
    21  C    0.167042
    22  C    0.036502
    23  C    0.055233
    24  O   -0.254799
    25  C    0.008703
    26  N   -0.326439
    27  C   -0.014156
    28  C   -0.059949
    29  C   -0.104977
    30  C    0.037770
    31  C    0.034203
    32  C    0.004943
    33  C   -0.035308
    34  N   -0.421176
    35  C    0.133463
    36  C   -0.209053
    37  C   -0.007936
    38  C    0.152109
    39  C    0.109087
    40  C    0.074409
    41  O   -0.207668
    42  C   -0.034527
    43  C    0.262177
    44  O   -0.284153
    45  O   -0.348796
    46  C    0.132543
    47  C    0.233113
    48  C   -0.123714
    49  C   -0.218700
    50  C    0.038963
    51  C    0.033256
    52  C    0.006833
    53  C    0.013601
    54  C   -0.195180
    55  C   -0.008217
    56  C    0.031714
    57  C   -0.039306
    58  C   -0.013524
    59  C   -0.207094
    60  C    0.021396
    61  C    0.044949
    62  C   -0.059579
    63  C   -0.004751
    64  C   -0.223587
    65  C    0.003237
    66  C   -0.022125
    67  H   -0.012876
    68  H    0.030660
    69  H    0.003782
    70  H    0.033995
    71  H    0.036985
    72  H    0.041552
    73  H    0.017974
    74  H    0.036999
    75  H    0.013785
    76  H    0.034250
    77  H    0.061880
    78  H    0.072566
    79  H    0.040345
    80  H    0.054000
    81  H    0.038708
    82  H    0.053170
    83  H    0.060342
    84  H    0.061927
    85  H    0.043865
    86  H    0.028180
    87  H    0.033582
    88  H    0.048042
    89  H    0.054456
    90  H    0.023428
    91  H    0.008938
    92  H    0.052276
    93  H    0.038478
    94  H    0.041354
    95  H    0.078308
    96  H    0.016863
    97  H    0.049567
    98  H    0.090779
    99  H    0.066384
   100  H    0.047102
   101  H    0.046056
   102  H    0.065330
   103  H    0.045134
   104  H    0.024315
   105  H    0.027008
   106  H    0.055004
   107  H    0.048990
   108  H    0.027051
   109  H    0.001106
   110  H    0.024373
   111  H    0.016201
   112  H    0.017875
   113  H    0.003172
   114  H    0.026410
   115  H    0.031441
   116  H    0.023792
   117  H    0.020969
   118  H    0.011296
   119  H    0.015526
   120  H    0.036989
   121  H    0.017874
   122  H    0.015274
   123  H    0.013186
   124  H    0.025742
   125  H    0.019276
   126  H    0.043221
   127  H    0.016772
   128  H    0.001673
   129  H    0.021862
   130  H    0.012965
   131  H    0.024858
   132  H    0.016846
   133  H    0.018619
   134  H    0.024724
   135  H    0.030496
   136  H    0.026052
   137  H    0.030184
   138  H    0.034573
   139  H    0.027983
   140  H    0.033170
 Sum of Mulliken charges =  -0.00000

 Dipole moment (field-independent basis, Debye):
    X=             -2.7668    Y=              4.4269    Z=              0.8528  Tot=              5.2896
 Quadrupole moment (field-independent basis, Debye-Ang):
   XX=           -361.2373   YY=           -414.3209   ZZ=           -411.0358
   XY=              0.9672   XZ=             17.2943   YZ=              1.6645

 Normal termination of Gaussian 16 at Fri Apr 29 23:32:40 2022.
