 Gaussian 16, Revision A.03,
 Gaussian 16:  ES64L-G16RevA.03 25-Dec-2016

 --------------------
 #p ZINDO=(nstates=5)
 --------------------

 ----------------------------
 step_501_chromophore_4 ZINDO
 ----------------------------
 Symbolic Z-matrix:
 Charge =  0 Multiplicity = 1

                         Standard orientation:
 ---------------------------------------------------------------------
 Center     Atomic      Atomic             Coordinates (Angstroms)
 Number     Number       Type             X           Y           Z
 ---------------------------------------------------------------------
      1         12           0        6.057992    0.567783    0.139363
      2          6           0        3.541001   -1.990412   -0.148032
      3          6           0        3.618236    2.824037   -0.642145
      4          6           0        8.466387    2.902357    0.109979
      5          6           0        8.387050   -1.891677    0.418117
      6          7           0        3.727663    0.398769   -0.306342
      7          6           0        2.997940   -0.754461   -0.306351
      8          6           0        1.572031   -0.369157   -0.423239
      9          6           0        1.582327    1.155576   -0.722325
     10          6           0        3.077824    1.559897   -0.610569
     11          6           0        1.028020    1.473045   -2.147602
     12          6           0        0.692388   -0.736680    0.745483
     13          6           0       -0.815303   -0.594576    0.612760
     14          6           0       -1.629390   -1.751856    1.015119
     15          8           0       -1.432668   -2.538125    1.974726
     16          8           0       -2.751075   -1.828775    0.213004
     17          7           0        6.023700    2.569406   -0.102828
     18          6           0        4.904358    3.336431   -0.528893
     19          6           0        5.325725    4.749395   -0.488931
     20          6           0        6.712369    4.730601   -0.363372
     21          6           0        7.139424    3.333207   -0.168253
     22          6           0        4.342073    5.869759   -0.754845
     23          6           0        7.713405    5.905363   -0.321135
     24          8           0        8.946959    5.775719   -0.431851
     25          6           0        7.151609    7.251345   -0.106514
     26          7           0        8.176068    0.535405    0.184319
     27          6           0        8.978743    1.579813    0.178527
     28          6           0       10.484181    1.202327    0.243539
     29          6           0       10.387766   -0.285358    0.588789
     30          6           0        8.908995   -0.557604    0.434388
     31          6           0       11.203613    1.466165   -1.122176
     32          6           0       10.910393   -0.708266    1.943186
     33          6           0       11.743087   -2.001779    1.988546
     34          7           0        5.968102   -1.486422    0.227874
     35          6           0        7.031041   -2.353396    0.357417
     36          6           0        6.568385   -3.771380    0.444183
     37          6           0        5.218871   -3.585448    0.221654
     38          6           0        4.895125   -2.234708    0.045626
     39          6           0        7.350295   -4.986811    0.826731
     40          6           0        3.975198   -4.331554    0.098872
     41          8           0        3.811672   -5.539380    0.229719
     42          6           0        2.816599   -3.337711   -0.145616
     43          6           0        2.094013   -3.825636   -1.292492
     44          8           0        2.441065   -3.740074   -2.495137
     45          8           0        0.859654   -4.264121   -0.920260
     46          6           0       -0.119740   -4.537578   -1.949196
     47          6           0       -3.787237   -2.790213    0.592440
     48          6           0       -5.182410   -2.151155    0.520610
     49          6           0       -6.400921   -2.719943    0.652351
     50          6           0       -6.654890   -4.171148    0.963811
     51          6           0       -7.676478   -1.868915    0.516449
     52          6           0       -8.277713   -1.683449   -0.903086
     53          6           0       -8.022540   -0.305877   -1.504916
     54          6           0       -9.253965    0.643282   -1.318159
     55          6           0       -9.638858    1.205377   -2.723659
     56          6           0       -9.072248    1.799277   -0.241364
     57          6           0       -9.955869    1.555306    0.995725
     58          6           0      -10.567335    2.825061    1.696067
     59          6           0      -11.974152    2.519344    2.318874
     60          6           0      -12.140416    3.499404    3.512736
     61          6           0      -13.112707    2.752439    1.278342
     62          6           0      -13.930892    1.444057    0.948109
     63          6           0      -13.967739    0.927123   -0.458462
     64          6           0      -15.272601    0.067198   -0.665874
     65          6           0      -15.264438   -0.950563   -1.867724
     66          6           0      -16.472477    1.094218   -0.744469
     67          1           0        2.834120    3.565819   -0.806045
     68          1           0        9.262553    3.629408   -0.062250
     69          1           0        9.213012   -2.591498    0.276302
     70          1           0        1.250040   -0.912765   -1.310480
     71          1           0        0.980172    1.722761   -0.012317
     72          1           0        0.248487    2.211027   -2.339458
     73          1           0        0.633269    0.518442   -2.495102
     74          1           0        1.787130    1.660539   -2.907484
     75          1           0        0.892395   -0.097655    1.605732
     76          1           0        1.000887   -1.673388    1.208884
     77          1           0       -1.093181   -0.393108   -0.420707
     78          1           0       -1.103372    0.112297    1.390432
     79          1           0        4.703246    6.627359   -1.450016
     80          1           0        4.009594    6.390630    0.142844
     81          1           0        3.419317    5.562814   -1.247811
     82          1           0        6.497044    7.215846    0.764454
     83          1           0        6.572384    7.406289   -1.016118
     84          1           0        7.990581    7.894290    0.157106
     85          1           0       10.907908    1.792679    1.056688
     86          1           0       10.863551   -0.971777   -0.111027
     87          1           0       11.505510    0.536102   -1.602870
     88          1           0       12.126259    2.029193   -0.981278
     89          1           0       10.466371    1.979042   -1.740047
     90          1           0       10.109282   -0.798397    2.676118
     91          1           0       11.358578    0.200064    2.344581
     92          1           0       12.424729   -1.904293    2.832948
     93          1           0       12.204716   -2.247343    1.031650
     94          1           0       10.963092   -2.743869    2.157565
     95          1           0        7.211496   -5.301968    1.861072
     96          1           0        8.370986   -4.781873    0.505050
     97          1           0        7.126329   -5.790428    0.124106
     98          1           0        2.134042   -3.511764    0.686155
     99          1           0        0.188259   -4.256417   -2.956616
    100          1           0       -1.086883   -4.112790   -1.681720
    101          1           0       -0.350230   -5.600808   -2.021320
    102          1           0       -3.696110   -3.173889    1.609219
    103          1           0       -3.605532   -3.689564    0.004417
    104          1           0       -5.136444   -1.075726    0.351179
    105          1           0       -5.721597   -4.679541    1.207221
    106          1           0       -7.120837   -4.727628    0.150298
    107          1           0       -7.269971   -4.092120    1.860024
    108          1           0       -7.611450   -0.874666    0.959823
    109          1           0       -8.406910   -2.390400    1.134556
    110          1           0       -9.341224   -1.916825   -0.867607
    111          1           0       -7.865510   -2.445463   -1.564670
    112          1           0       -7.606937   -0.392006   -2.509520
    113          1           0       -7.227953    0.323381   -1.106064
    114          1           0      -10.143007    0.079580   -1.035842
    115          1           0       -9.172045    0.647018   -3.534711
    116          1           0       -9.478551    2.270831   -2.891520
    117          1           0      -10.725403    1.144569   -2.774109
    118          1           0       -9.374308    2.785054   -0.594448
    119          1           0       -8.023336    1.919113    0.029224
    120          1           0       -9.362766    1.103163    1.791075
    121          1           0      -10.803168    0.987393    0.611515
    122          1           0      -10.632533    3.725456    1.083933
    123          1           0       -9.884967    3.117226    2.495241
    124          1           0      -11.974393    1.493134    2.684916
    125          1           0      -11.579756    4.398081    3.254036
    126          1           0      -11.821425    3.096812    4.474148
    127          1           0      -13.180025    3.819257    3.446071
    128          1           0      -12.677537    3.016448    0.314060
    129          1           0      -13.807916    3.577888    1.433244
    130          1           0      -14.937537    1.804961    1.160453
    131          1           0      -13.619236    0.591471    1.551651
    132          1           0      -13.050135    0.355337   -0.598614
    133          1           0      -14.042757    1.698892   -1.224881
    134          1           0      -15.376884   -0.544966    0.230169
    135          1           0      -16.242904   -1.130618   -2.313739
    136          1           0      -14.935277   -1.920614   -1.494163
    137          1           0      -14.555330   -0.645533   -2.637970
    138          1           0      -17.006592    1.060189    0.204278
    139          1           0      -17.161811    0.782856   -1.530229
    140          1           0      -16.179998    2.136982   -0.871017
 ---------------------------------------------------------------------

 SCF Done:  E(RZINDO/S) =  -474.474025417     A.U. after   20 cycles

 Excitation energies and oscillator strengths:

 Excited State   1:      Singlet-A      1.2684 eV  977.50 nm  f=0.5866  <S**2>=0.000
     175 ->178         0.20812
     176 ->177         0.65940
 This state for optimization and/or second-order correction.
 Total Energy, E(CIS/TDA) =  -474.427413246
 Copying the excited state density for this state as the 1-particle RhoCI density.

 Excited State   2:      Singlet-A      1.9520 eV  635.16 nm  f=0.0050  <S**2>=0.000
     175 ->177         0.50105
     176 ->178        -0.48127

 Excited State   3:      Singlet-A      2.9236 eV  424.09 nm  f=0.0076  <S**2>=0.000
     169 ->177         0.13631
     169 ->179        -0.18251
     170 ->177         0.30173
     170 ->179        -0.36074
     170 ->180         0.22053
     170 ->182         0.15642
     170 ->186        -0.16458
     170 ->187        -0.11598

 Excited State   4:      Singlet-A      3.0122 eV  411.61 nm  f=0.1636  <S**2>=0.000
     168 ->177         0.23997
     168 ->179         0.27600
     168 ->180         0.33837
     168 ->182         0.11974
     168 ->186         0.18867
     169 ->177         0.10145
     169 ->180         0.14519
     175 ->177        -0.15512
     176 ->178        -0.17048
     176 ->179        -0.10976

 Excited State   5:      Singlet-A      3.0679 eV  404.14 nm  f=0.1533  <S**2>=0.000
     168 ->180         0.12865
     175 ->177         0.14401
     176 ->178         0.14856
     176 ->179         0.61009

 The electronic state is 1-A.
 Alpha  occ. eigenvalues --   -1.85983  -1.83580  -1.80073  -1.73367  -1.73114
 Alpha  occ. eigenvalues --   -1.71454  -1.64532  -1.60155  -1.59394  -1.58147
 Alpha  occ. eigenvalues --   -1.54522  -1.51651  -1.49729  -1.48547  -1.47728
 Alpha  occ. eigenvalues --   -1.42912  -1.42269  -1.39744  -1.38815  -1.37333
 Alpha  occ. eigenvalues --   -1.35708  -1.33782  -1.33032  -1.32353  -1.29070
 Alpha  occ. eigenvalues --   -1.28644  -1.25027  -1.23361  -1.21857  -1.19131
 Alpha  occ. eigenvalues --   -1.18708  -1.16186  -1.15468  -1.13446  -1.12155
 Alpha  occ. eigenvalues --   -1.12020  -1.11441  -1.11350  -1.05987  -1.05420
 Alpha  occ. eigenvalues --   -1.03408  -1.01670  -0.98908  -0.98340  -0.97444
 Alpha  occ. eigenvalues --   -0.95605  -0.94744  -0.94304  -0.92634  -0.91987
 Alpha  occ. eigenvalues --   -0.90551  -0.90135  -0.89780  -0.89115  -0.87160
 Alpha  occ. eigenvalues --   -0.85923  -0.84296  -0.83900  -0.83253  -0.80767
 Alpha  occ. eigenvalues --   -0.80364  -0.79849  -0.77631  -0.77430  -0.75661
 Alpha  occ. eigenvalues --   -0.74903  -0.74660  -0.73933  -0.73583  -0.73172
 Alpha  occ. eigenvalues --   -0.72671  -0.72187  -0.71585  -0.70846  -0.70292
 Alpha  occ. eigenvalues --   -0.69748  -0.69007  -0.68724  -0.68371  -0.68105
 Alpha  occ. eigenvalues --   -0.67699  -0.67339  -0.66958  -0.66895  -0.65983
 Alpha  occ. eigenvalues --   -0.65332  -0.64897  -0.64471  -0.64281  -0.63605
 Alpha  occ. eigenvalues --   -0.63074  -0.62799  -0.62255  -0.62184  -0.61925
 Alpha  occ. eigenvalues --   -0.61341  -0.60975  -0.60889  -0.60281  -0.59826
 Alpha  occ. eigenvalues --   -0.59659  -0.59420  -0.59033  -0.58707  -0.58531
 Alpha  occ. eigenvalues --   -0.58092  -0.57857  -0.57430  -0.56740  -0.56638
 Alpha  occ. eigenvalues --   -0.56133  -0.55655  -0.55359  -0.54923  -0.54560
 Alpha  occ. eigenvalues --   -0.54337  -0.54211  -0.53352  -0.53218  -0.52475
 Alpha  occ. eigenvalues --   -0.52355  -0.51793  -0.51582  -0.51356  -0.51091
 Alpha  occ. eigenvalues --   -0.50935  -0.50800  -0.50594  -0.50395  -0.50117
 Alpha  occ. eigenvalues --   -0.49855  -0.49255  -0.49146  -0.48997  -0.48855
 Alpha  occ. eigenvalues --   -0.48804  -0.48445  -0.47999  -0.47894  -0.47846
 Alpha  occ. eigenvalues --   -0.47577  -0.46969  -0.46837  -0.46695  -0.46379
 Alpha  occ. eigenvalues --   -0.46070  -0.45792  -0.45557  -0.45274  -0.45156
 Alpha  occ. eigenvalues --   -0.44753  -0.44660  -0.44587  -0.44225  -0.43915
 Alpha  occ. eigenvalues --   -0.43394  -0.43200  -0.42380  -0.42312  -0.42276
 Alpha  occ. eigenvalues --   -0.41682  -0.41509  -0.40583  -0.38940  -0.38848
 Alpha  occ. eigenvalues --   -0.37845  -0.36604  -0.35089  -0.34742  -0.34361
 Alpha  occ. eigenvalues --   -0.33357  -0.33031  -0.32488  -0.32265  -0.26675
 Alpha  occ. eigenvalues --   -0.21335
 Alpha virt. eigenvalues --   -0.07939  -0.02108  -0.00124   0.01332   0.01549
 Alpha virt. eigenvalues --    0.02593   0.02761   0.03067   0.04801   0.04895
 Alpha virt. eigenvalues --    0.06439   0.06973   0.07426   0.08013   0.08374

 Mulliken charges:
               1
     1  Mg   0.424627
     2  C   -0.037785
     3  C   -0.059488
     4  C   -0.087211
     5  C   -0.089275
     6  N   -0.310762
     7  C    0.132569
     8  C    0.017792
     9  C    0.010928
    10  C    0.123112
    11  C   -0.064292
    12  C   -0.023398
    13  C    0.011179
    14  C    0.470574
    15  O   -0.540349
    16  O   -0.275123
    17  N   -0.322913
    18  C    0.088942
    19  C    0.010604
    20  C   -0.040063
    21  C    0.141328
    22  C   -0.042478
    23  C    0.326787
    24  O   -0.536633
    25  C   -0.032172
    26  N   -0.247077
    27  C    0.138391
    28  C    0.008426
    29  C    0.010149
    30  C    0.123341
    31  C   -0.050917
    32  C   -0.032090
    33  C   -0.056377
    34  N   -0.306755
    35  C    0.094224
    36  C    0.032290
    37  C   -0.043498
    38  C    0.126135
    39  C   -0.033325
    40  C    0.330383
    41  O   -0.523764
    42  C    0.058046
    43  C    0.500910
    44  O   -0.548342
    45  O   -0.256634
    46  C    0.074360
    47  C    0.103145
    48  C   -0.087045
    49  C   -0.006487
    50  C   -0.041359
    51  C   -0.023738
    52  C   -0.021412
    53  C   -0.034437
    54  C   -0.016496
    55  C   -0.065330
    56  C   -0.037225
    57  C   -0.044923
    58  C   -0.041674
    59  C   -0.011825
    60  C   -0.065438
    61  C   -0.041544
    62  C   -0.042786
    63  C   -0.027376
    64  C   -0.018912
    65  C   -0.058946
    66  C   -0.059418
    67  H    0.014216
    68  H    0.044766
    69  H    0.025627
    70  H    0.033767
    71  H    0.027677
    72  H    0.025634
    73  H    0.011860
    74  H    0.022587
    75  H    0.013666
    76  H    0.032245
    77  H    0.043429
    78  H    0.059782
    79  H    0.022225
    80  H    0.030872
    81  H    0.020836
    82  H    0.031440
    83  H    0.053853
    84  H    0.045095
    85  H    0.037879
    86  H    0.032299
    87  H    0.020799
    88  H    0.025158
    89  H    0.033265
    90  H    0.015693
    91  H    0.014570
    92  H    0.027904
    93  H    0.027539
    94  H    0.021508
    95  H    0.050411
    96  H    0.020427
    97  H    0.034210
    98  H    0.061001
    99  H    0.052365
   100  H    0.031334
   101  H    0.033821
   102  H    0.054947
   103  H    0.044951
   104  H    0.028188
   105  H    0.019425
   106  H    0.035035
   107  H    0.032071
   108  H    0.023962
   109  H    0.009939
   110  H    0.021593
   111  H    0.013946
   112  H    0.019838
   113  H    0.017948
   114  H    0.024465
   115  H    0.022163
   116  H    0.018119
   117  H    0.009555
   118  H    0.019359
   119  H    0.019105
   120  H    0.025069
   121  H    0.027168
   122  H    0.023074
   123  H    0.008671
   124  H    0.026722
   125  H    0.016584
   126  H    0.027505
   127  H    0.017169
   128  H    0.009398
   129  H    0.027692
   130  H    0.016321
   131  H    0.025365
   132  H    0.013118
   133  H    0.020380
   134  H    0.018297
   135  H    0.022540
   136  H    0.012535
   137  H    0.019745
   138  H    0.014132
   139  H    0.018215
   140  H    0.024778
 Sum of Mulliken charges =  -0.00000

 Dipole moment (field-independent basis, Debye):
    X=             -4.1713    Y=              6.1113    Z=              0.8567  Tot=              7.4485
 N-N= 4.251423143113D+03 E-N= 0.000000000000D+00  KE=-9.177421238010D+03
 Leave Link  601 at Fri Apr 29 23:44:18 2022, MaxMem=  6710886400 cpu:               0.8 elap:               0.0
 (Enter /sw/apps/gaussian-16.0/g16/l9999.exe)
 1\1\GINC-BP1-COMPUTE103\SP\RZINDO CIS\STO-3G\C55H74Mg1N4O6\OF15641\29-
 Apr-2022\0\\#p ZINDO=(nstates=5)\\step_501_chromophore_4 ZINDO\\0,1\Mg
 ,0,8.373,3.02,27.583\C,0,9.668,1.599,30.627\C,0,6.705,5.268,29.537\C,0
 ,6.936,4.141,24.767\C,0,9.731,0.4,25.897\N,0,8.26,3.414,29.926\C,0,8.9
 23,2.706,30.886\C,0,8.728,3.421,32.169\C,0,7.67,4.519,31.87\C,0,7.439,
 4.424,30.337\C,0,6.338,4.271,32.647\C,0,9.977,3.964,32.817\C,0,9.903,4
 .499,34.238\C,0,10.915,4.008,35.186\O,0,12.127,3.764,34.964\O,0,10.361

 Normal termination of Gaussian 16 at Fri Apr 29 23:44:18 2022.
