 Gaussian 16, Revision A.03,
 Gaussian 16:  ES64L-G16RevA.03 25-Dec-2016

 ------------------------------
 #p blyp/Def2SVP td=(nstates=5)
 ------------------------------

 --------------------------------------------------
 step_751_chromophore_22 TDDFT with blyp functional
 --------------------------------------------------
 Symbolic Z-matrix:
 Charge =  0 Multiplicity = 1

                         Standard orientation:
 ---------------------------------------------------------------------
 Center     Atomic      Atomic             Coordinates (Angstroms)
 Number     Number       Type             X           Y           Z
 ---------------------------------------------------------------------
      1         12           0        6.272496    0.432299   -0.226828
      2          6           0        4.166888   -2.337402   -0.609147
      3          6           0        3.904608    2.339915   -1.718144
      4          6           0        8.137365    3.160700    0.671404
      5          6           0        8.780762   -1.711046    0.658833
      6          7           0        4.297117    0.042148   -1.032287
      7          6           0        3.576180   -1.116764   -1.070777
      8          6           0        2.115267   -0.895442   -1.520508
      9          6           0        2.286760    0.441293   -2.240864
     10          6           0        3.543588    1.008268   -1.604186
     11          6           0        2.556956    0.443562   -3.727217
     12          6           0        1.074794   -0.817790   -0.325730
     13          6           0       -0.383589   -0.523763   -0.683992
     14          6           0       -1.653322   -1.036165    0.093213
     15          8           0       -1.696347   -1.439843    1.241121
     16          8           0       -2.718869   -1.088114   -0.752303
     17          7           0        6.036225    2.449960   -0.500237
     18          6           0        4.982454    3.052844   -1.124135
     19          6           0        5.157504    4.505554   -1.001010
     20          6           0        6.404609    4.750571   -0.301122
     21          6           0        6.920178    3.416730   -0.005182
     22          6           0        4.233484    5.569253   -1.536955
     23          6           0        7.174729    6.055104   -0.052712
     24          8           0        8.196234    6.064267    0.577160
     25          6           0        6.768585    7.289867   -0.652782
     26          7           0        8.255593    0.729612    0.471712
     27          6           0        8.800448    1.907940    0.813661
     28          6           0       10.179273    1.663563    1.380272
     29          6           0       10.404802    0.117327    1.328444
     30          6           0        9.043305   -0.329670    0.894675
     31          6           0       11.320167    2.468537    0.768297
     32          6           0       10.935582   -0.661002    2.610971
     33          6           0       12.170197   -1.591738    2.430343
     34          7           0        6.542652   -1.621576   -0.221344
     35          6           0        7.604406   -2.311055    0.228589
     36          6           0        7.224345   -3.675282    0.254121
     37          6           0        5.890127   -3.755274   -0.005525
     38          6           0        5.519261   -2.474219   -0.302344
     39          6           0        8.044645   -4.836792    0.503627
     40          6           0        4.739253   -4.657605   -0.079024
     41          8           0        4.541809   -5.843856    0.158047
     42          6           0        3.537877   -3.758552   -0.498323
     43          6           0        2.586238   -3.838085    0.625496
     44          8           0        2.649102   -3.279116    1.682414
     45          8           0        1.564524   -4.611088    0.240244
     46          6           0        0.428718   -4.844033    1.087715
     47          6           0       -3.948242   -1.562562   -0.183591
     48          6           0       -5.136376   -1.220341   -1.075978
     49          6           0       -6.472187   -1.567321   -1.001516
     50          6           0       -7.069591   -2.532111    0.000370
     51          6           0       -7.361777   -1.249426   -2.179254
     52          6           0       -8.447638   -0.238351   -1.795401
     53          6           0       -9.829540   -0.402075   -2.514240
     54          6           0      -10.949772   -0.791229   -1.507350
     55          6           0      -12.113149   -1.494903   -2.223472
     56          6           0      -11.425151    0.359596   -0.611464
     57          6           0      -11.032655    0.220450    0.905260
     58          6           0      -10.563292    1.595069    1.574813
     59          6           0      -11.776926    2.287718    2.435580
     60          6           0      -11.283564    3.102050    3.678294
     61          6           0      -12.853702    2.952837    1.456461
     62          6           0      -14.298071    2.484798    1.786282
     63          6           0      -15.072339    1.842155    0.554259
     64          6           0      -15.482800    0.319093    0.731429
     65          6           0      -16.393695   -0.050196   -0.463309
     66          6           0      -16.138282    0.046160    2.103782
     67          1           0        3.114389    2.955923   -2.153090
     68          1           0        8.771784    3.936057    1.105511
     69          1           0        9.564963   -2.397089    0.985646
     70          1           0        1.792347   -1.705203   -2.175464
     71          1           0        1.392667    1.025620   -2.021923
     72          1           0        1.701196    0.795023   -4.304421
     73          1           0        2.808604   -0.583488   -3.992493
     74          1           0        3.321272    1.142519   -4.067091
     75          1           0        1.394036    0.086433    0.193490
     76          1           0        1.144285   -1.682677    0.334030
     77          1           0       -0.532790   -0.661592   -1.754803
     78          1           0       -0.642439    0.534294   -0.643811
     79          1           0        4.527206    6.248335   -2.337067
     80          1           0        4.027211    6.268615   -0.727536
     81          1           0        3.315409    5.084432   -1.868447
     82          1           0        6.433673    7.197722   -1.685325
     83          1           0        7.670802    7.884855   -0.788003
     84          1           0        6.022400    7.744269   -0.000271
     85          1           0       10.049089    1.998526    2.409245
     86          1           0       11.000473   -0.225147    0.482576
     87          1           0       10.842718    3.303329    0.256251
     88          1           0       11.846241    1.869338    0.025004
     89          1           0       11.943897    2.938488    1.529081
     90          1           0       10.120863   -1.158543    3.136061
     91          1           0       11.154627    0.131693    3.324960
     92          1           0       12.059416   -1.725684    1.354453
     93          1           0       12.156588   -2.552763    2.945375
     94          1           0       13.117564   -1.091445    2.631986
     95          1           0        7.472837   -5.395101    1.244655
     96          1           0        9.044764   -4.633607    0.887562
     97          1           0        8.038167   -5.372297   -0.445698
     98          1           0        2.929541   -4.137655   -1.319305
     99          1           0       -0.370702   -5.238833    0.460174
    100          1           0        0.077059   -3.896234    1.494504
    101          1           0        0.607054   -5.641158    1.809298
    102          1           0       -4.176654   -1.203409    0.819590
    103          1           0       -3.971049   -2.651007   -0.127563
    104          1           0       -4.928761   -0.549271   -1.909038
    105          1           0       -7.362599   -3.535946   -0.309149
    106          1           0       -7.911392   -1.980859    0.419275
    107          1           0       -6.308952   -2.745354    0.751464
    108          1           0       -7.719308   -2.144692   -2.688485
    109          1           0       -6.752630   -0.717530   -2.909646
    110          1           0       -8.081784    0.755043   -2.055052
    111          1           0       -8.588392   -0.103582   -0.722239
    112          1           0       -9.873664   -1.133551   -3.320320
    113          1           0      -10.022022    0.587914   -2.927789
    114          1           0      -10.439793   -1.485443   -0.840794
    115          1           0      -13.059879   -0.956416   -2.175300
    116          1           0      -12.305361   -2.401607   -1.650174
    117          1           0      -11.840485   -1.848520   -3.217266
    118          1           0      -12.494931    0.523810   -0.735996
    119          1           0      -11.014659    1.268906   -1.050189
    120          1           0      -10.338252   -0.589072    1.131534
    121          1           0      -12.019043    0.056599    1.338277
    122          1           0      -10.312916    2.231871    0.726353
    123          1           0       -9.585352    1.552097    2.054411
    124          1           0      -12.186479    1.428360    2.966661
    125          1           0      -11.603329    4.144155    3.699505
    126          1           0      -10.205050    3.023469    3.541981
    127          1           0      -11.426613    2.536915    4.599182
    128          1           0      -12.522385    2.763423    0.434932
    129          1           0      -12.784398    3.990515    1.781859
    130          1           0      -14.889155    3.329257    2.142257
    131          1           0      -14.260064    1.846440    2.668946
    132          1           0      -14.385219    1.900891   -0.289319
    133          1           0      -15.965082    2.429937    0.340695
    134          1           0      -14.535557   -0.219422    0.720590
    135          1           0      -17.024369   -0.894285   -0.182519
    136          1           0      -15.747062   -0.406735   -1.265209
    137          1           0      -17.068261    0.761716   -0.732417
    138          1           0      -15.407729   -0.392776    2.781750
    139          1           0      -16.925572   -0.706529    2.057487
    140          1           0      -16.521870    0.956590    2.564554
 ---------------------------------------------------------------------

 SCF Done:  E(RB-LYP) =  -3007.36234512     A.U. after   21 cycles

 Excitation energies and oscillator strengths:

 Excited State   1:      Singlet-A      1.8208 eV  680.94 nm  f=0.2987  <S**2>=0.000
     245 -> 248       -0.20326
     246 -> 247        0.68749
     246 <- 247       -0.14528
 This state for optimization and/or second-order correction.
 Total Energy, E(TD-HF/TD-DFT) =  -3007.29543277
 Copying the excited state density for this state as the 1-particle RhoCI density.

 Excited State   2:      Singlet-A      2.0058 eV  618.12 nm  f=0.0439  <S**2>=0.000
     243 -> 247        0.18999
     244 -> 247       -0.32058
     245 -> 247        0.56006
     246 -> 248        0.19930

 Excited State   3:      Singlet-A      2.0851 eV  594.62 nm  f=0.0091  <S**2>=0.000
     243 -> 247        0.24628
     244 -> 247        0.61272
     245 -> 247        0.22079
     246 -> 248        0.11328

 Excited State   4:      Singlet-A      2.1475 eV  577.34 nm  f=0.0133  <S**2>=0.000
     243 -> 247        0.63256
     244 -> 247       -0.13951
     245 -> 247       -0.23328
     246 -> 248       -0.14516

 Excited State   5:      Singlet-A      2.3963 eV  517.39 nm  f=0.0000  <S**2>=0.000
     242 -> 247        0.70648

 The electronic state is 1-A.
 Alpha  occ. eigenvalues --  -46.25936 -18.83294 -18.81272 -18.77550 -18.75895
 Alpha  occ. eigenvalues --  -18.75524 -18.75258 -14.03200 -14.02747 -14.00859
 Alpha  occ. eigenvalues --  -14.00115 -10.05275 -10.02738  -9.99951  -9.99381
 Alpha  occ. eigenvalues --   -9.98666  -9.97086  -9.96664  -9.96252  -9.96119
 Alpha  occ. eigenvalues --   -9.95969  -9.95811  -9.95781  -9.94680  -9.94568
 Alpha  occ. eigenvalues --   -9.94408  -9.93952  -9.93891  -9.93786  -9.93703
 Alpha  occ. eigenvalues --   -9.93619  -9.93593  -9.93417  -9.93166  -9.93112
 Alpha  occ. eigenvalues --   -9.92909  -9.92864  -9.92579  -9.92579  -9.92472
 Alpha  occ. eigenvalues --   -9.92443  -9.92413  -9.92311  -9.92266  -9.92258
 Alpha  occ. eigenvalues --   -9.92247  -9.92230  -9.92158  -9.91886  -9.91865
 Alpha  occ. eigenvalues --   -9.91784  -9.91578  -9.91574  -9.91546  -9.91541
 Alpha  occ. eigenvalues --   -9.91523  -9.91498  -9.91405  -9.91189  -9.91179
 Alpha  occ. eigenvalues --   -9.91117  -9.90918  -9.90870  -9.90758  -9.90708
 Alpha  occ. eigenvalues --   -9.90122  -2.90704  -1.71148  -1.70561  -1.70427
 Alpha  occ. eigenvalues --   -0.99483  -0.98601  -0.92990  -0.91357  -0.90942
 Alpha  occ. eigenvalues --   -0.90136  -0.87807  -0.86619  -0.85893  -0.84130
 Alpha  occ. eigenvalues --   -0.75456  -0.73657  -0.73301  -0.72298  -0.72233
 Alpha  occ. eigenvalues --   -0.71610  -0.71497  -0.71073  -0.70743  -0.70066
 Alpha  occ. eigenvalues --   -0.69771  -0.69630  -0.68267  -0.67946  -0.67141
 Alpha  occ. eigenvalues --   -0.66447  -0.66300  -0.65804  -0.65183  -0.64562
 Alpha  occ. eigenvalues --   -0.64156  -0.62858  -0.62591  -0.61722  -0.60901
 Alpha  occ. eigenvalues --   -0.60759  -0.60209  -0.59707  -0.59199  -0.58786
 Alpha  occ. eigenvalues --   -0.58405  -0.57337  -0.56820  -0.55896  -0.54789
 Alpha  occ. eigenvalues --   -0.54095  -0.53485  -0.52819  -0.52421  -0.51755
 Alpha  occ. eigenvalues --   -0.51502  -0.51248  -0.50754  -0.50387  -0.50367
 Alpha  occ. eigenvalues --   -0.49513  -0.48941  -0.48338  -0.48336  -0.47046
 Alpha  occ. eigenvalues --   -0.46238  -0.46229  -0.45838  -0.45144  -0.44336
 Alpha  occ. eigenvalues --   -0.44041  -0.43412  -0.43111  -0.42880  -0.42724
 Alpha  occ. eigenvalues --   -0.42209  -0.42062  -0.41934  -0.41846  -0.41389
 Alpha  occ. eigenvalues --   -0.40955  -0.40798  -0.40537  -0.40414  -0.40254
 Alpha  occ. eigenvalues --   -0.39961  -0.39549  -0.39423  -0.39341  -0.39246
 Alpha  occ. eigenvalues --   -0.39182  -0.38941  -0.38712  -0.38542  -0.38426
 Alpha  occ. eigenvalues --   -0.38029  -0.37920  -0.37710  -0.37297  -0.37272
 Alpha  occ. eigenvalues --   -0.36985  -0.36747  -0.36655  -0.36631  -0.36391
 Alpha  occ. eigenvalues --   -0.36256  -0.36240  -0.36138  -0.35925  -0.35620
 Alpha  occ. eigenvalues --   -0.35445  -0.35287  -0.35122  -0.34982  -0.34816
 Alpha  occ. eigenvalues --   -0.34705  -0.34412  -0.34239  -0.34141  -0.34063
 Alpha  occ. eigenvalues --   -0.33796  -0.33470  -0.33296  -0.33225  -0.33209
 Alpha  occ. eigenvalues --   -0.32823  -0.32708  -0.32366  -0.32343  -0.32147
 Alpha  occ. eigenvalues --   -0.32017  -0.31857  -0.31733  -0.31646  -0.31484
 Alpha  occ. eigenvalues --   -0.31439  -0.31330  -0.30999  -0.30966  -0.30825
 Alpha  occ. eigenvalues --   -0.30755  -0.30567  -0.30330  -0.30124  -0.29969
 Alpha  occ. eigenvalues --   -0.29782  -0.29557  -0.29418  -0.28900  -0.28893
 Alpha  occ. eigenvalues --   -0.28816  -0.28361  -0.28258  -0.28115  -0.27951
 Alpha  occ. eigenvalues --   -0.27717  -0.27177  -0.26839  -0.26556  -0.26220
 Alpha  occ. eigenvalues --   -0.26086  -0.25955  -0.25788  -0.25721  -0.25539
 Alpha  occ. eigenvalues --   -0.24750  -0.24691  -0.24248  -0.24104  -0.23973
 Alpha  occ. eigenvalues --   -0.23203  -0.22555  -0.21707  -0.21019  -0.20621
 Alpha  occ. eigenvalues --   -0.20089  -0.19991  -0.18904  -0.18707  -0.17015
 Alpha  occ. eigenvalues --   -0.15542
 Alpha virt. eigenvalues --   -0.11185  -0.06728  -0.06011  -0.04445  -0.02962
 Alpha virt. eigenvalues --   -0.02297  -0.01707  -0.01027  -0.00813   0.00489
 Alpha virt. eigenvalues --    0.00795   0.01417   0.01527   0.02018   0.02485

 Mulliken charges:
               1
     1  Mg   0.700910
     2  C   -0.016412
     3  C   -0.066348
     4  C   -0.045439
     5  C   -0.090729
     6  N   -0.197895
     7  C   -0.079420
     8  C    0.029227
     9  C    0.003498
    10  C    0.007946
    11  C    0.158871
    12  C    0.169353
    13  C    0.069673
    14  C    0.081048
    15  O   -0.178730
    16  O   -0.249708
    17  N   -0.308904
    18  C    0.148918
    19  C   -0.129613
    20  C    0.027198
    21  C    0.127989
    22  C    0.149154
    23  C   -0.086177
    24  O   -0.148379
    25  C    0.150475
    26  N   -0.228709
    27  C   -0.041001
    28  C    0.058495
    29  C    0.011671
    30  C    0.005926
    31  C    0.157724
    32  C    0.094654
    33  C    0.064216
    34  N   -0.223106
    35  C    0.141838
    36  C   -0.196045
    37  C    0.097232
    38  C    0.087275
    39  C    0.178841
    40  C   -0.027922
    41  O   -0.129801
    42  C    0.054140
    43  C    0.069784
    44  O   -0.166748
    45  O   -0.247775
    46  C    0.212023
    47  C    0.323523
    48  C   -0.112605
    49  C   -0.183169
    50  C    0.144244
    51  C    0.174331
    52  C    0.035378
    53  C    0.112864
    54  C   -0.093694
    55  C    0.120841
    56  C    0.081791
    57  C    0.075520
    58  C    0.053782
    59  C   -0.135264
    60  C    0.123458
    61  C    0.142542
    62  C    0.064715
    63  C    0.069063
    64  C   -0.105802
    65  C    0.116646
    66  C    0.106020
    67  H   -0.070151
    68  H   -0.038888
    69  H   -0.071885
    70  H   -0.041926
    71  H   -0.041465
    72  H   -0.017125
    73  H   -0.007019
    74  H   -0.002999
    75  H   -0.026218
    76  H    0.019122
    77  H   -0.011985
    78  H    0.000768
    79  H    0.003655
    80  H   -0.008451
    81  H   -0.021207
    82  H   -0.007009
    83  H   -0.007562
    84  H    0.020030
    85  H   -0.025350
    86  H   -0.009970
    87  H   -0.013630
    88  H   -0.012670
    89  H   -0.008059
    90  H   -0.020330
    91  H   -0.037594
    92  H   -0.010461
    93  H    0.003322
    94  H    0.001661
    95  H    0.011472
    96  H   -0.020065
    97  H    0.011115
    98  H   -0.012209
    99  H   -0.001884
   100  H    0.029912
   101  H    0.016949
   102  H    0.017067
   103  H    0.000965
   104  H   -0.036644
   105  H    0.005810
   106  H   -0.003655
   107  H   -0.026718
   108  H   -0.015335
   109  H   -0.043186
   110  H   -0.042297
   111  H   -0.020187
   112  H   -0.035570
   113  H   -0.037241
   114  H   -0.037181
   115  H   -0.008084
   116  H   -0.027842
   117  H   -0.022132
   118  H   -0.031449
   119  H   -0.036490
   120  H   -0.010882
   121  H   -0.021017
   122  H   -0.039602
   123  H   -0.036589
   124  H   -0.027571
   125  H   -0.006641
   126  H   -0.032860
   127  H   -0.014975
   128  H   -0.012575
   129  H   -0.035918
   130  H   -0.037934
   131  H   -0.029285
   132  H   -0.025192
   133  H   -0.031127
   134  H   -0.026266
   135  H   -0.027507
   136  H   -0.009123
   137  H   -0.009379
   138  H   -0.017789
   139  H   -0.024153
   140  H   -0.008738
 Sum of Mulliken charges =  -0.00000

 Dipole moment (field-independent basis, Debye):
    X=             -2.0838    Y=              2.4289    Z=             -2.9998  Tot=              4.3864
 Quadrupole moment (field-independent basis, Debye-Ang):
   XX=           -370.4805   YY=           -421.8822   ZZ=           -406.0001
   XY=              4.4400   XZ=             -1.7391   YZ=             -4.6451

 Normal termination of Gaussian 16 at Thu May  5 09:16:42 2022.
