 Gaussian 16, Revision A.03,
 Gaussian 16:  ES64L-G16RevA.03 25-Dec-2016

 -----------------------------------
 #p cam-b3lyp/Def2SVP td=(nstates=5)
 -----------------------------------

 -------------------------------------------------------
 step_751_chromophore_22 TDDFT with cam-b3lyp functional
 -------------------------------------------------------
 Symbolic Z-matrix:
 Charge =  0 Multiplicity = 1

                         Standard orientation:
 ---------------------------------------------------------------------
 Center     Atomic      Atomic             Coordinates (Angstroms)
 Number     Number       Type             X           Y           Z
 ---------------------------------------------------------------------
      1         12           0        6.272496    0.432299   -0.226828
      2          6           0        4.166888   -2.337402   -0.609147
      3          6           0        3.904608    2.339915   -1.718144
      4          6           0        8.137365    3.160700    0.671404
      5          6           0        8.780762   -1.711046    0.658833
      6          7           0        4.297117    0.042148   -1.032287
      7          6           0        3.576180   -1.116764   -1.070777
      8          6           0        2.115267   -0.895442   -1.520508
      9          6           0        2.286760    0.441293   -2.240864
     10          6           0        3.543588    1.008268   -1.604186
     11          6           0        2.556956    0.443562   -3.727217
     12          6           0        1.074794   -0.817790   -0.325730
     13          6           0       -0.383589   -0.523763   -0.683992
     14          6           0       -1.653322   -1.036165    0.093213
     15          8           0       -1.696347   -1.439843    1.241121
     16          8           0       -2.718869   -1.088114   -0.752303
     17          7           0        6.036225    2.449960   -0.500237
     18          6           0        4.982454    3.052844   -1.124135
     19          6           0        5.157504    4.505554   -1.001010
     20          6           0        6.404609    4.750571   -0.301122
     21          6           0        6.920178    3.416730   -0.005182
     22          6           0        4.233484    5.569253   -1.536955
     23          6           0        7.174729    6.055104   -0.052712
     24          8           0        8.196234    6.064267    0.577160
     25          6           0        6.768585    7.289867   -0.652782
     26          7           0        8.255593    0.729612    0.471712
     27          6           0        8.800448    1.907940    0.813661
     28          6           0       10.179273    1.663563    1.380272
     29          6           0       10.404802    0.117327    1.328444
     30          6           0        9.043305   -0.329670    0.894675
     31          6           0       11.320167    2.468537    0.768297
     32          6           0       10.935582   -0.661002    2.610971
     33          6           0       12.170197   -1.591738    2.430343
     34          7           0        6.542652   -1.621576   -0.221344
     35          6           0        7.604406   -2.311055    0.228589
     36          6           0        7.224345   -3.675282    0.254121
     37          6           0        5.890127   -3.755274   -0.005525
     38          6           0        5.519261   -2.474219   -0.302344
     39          6           0        8.044645   -4.836792    0.503627
     40          6           0        4.739253   -4.657605   -0.079024
     41          8           0        4.541809   -5.843856    0.158047
     42          6           0        3.537877   -3.758552   -0.498323
     43          6           0        2.586238   -3.838085    0.625496
     44          8           0        2.649102   -3.279116    1.682414
     45          8           0        1.564524   -4.611088    0.240244
     46          6           0        0.428718   -4.844033    1.087715
     47          6           0       -3.948242   -1.562562   -0.183591
     48          6           0       -5.136376   -1.220341   -1.075978
     49          6           0       -6.472187   -1.567321   -1.001516
     50          6           0       -7.069591   -2.532111    0.000370
     51          6           0       -7.361777   -1.249426   -2.179254
     52          6           0       -8.447638   -0.238351   -1.795401
     53          6           0       -9.829540   -0.402075   -2.514240
     54          6           0      -10.949772   -0.791229   -1.507350
     55          6           0      -12.113149   -1.494903   -2.223472
     56          6           0      -11.425151    0.359596   -0.611464
     57          6           0      -11.032655    0.220450    0.905260
     58          6           0      -10.563292    1.595069    1.574813
     59          6           0      -11.776926    2.287718    2.435580
     60          6           0      -11.283564    3.102050    3.678294
     61          6           0      -12.853702    2.952837    1.456461
     62          6           0      -14.298071    2.484798    1.786282
     63          6           0      -15.072339    1.842155    0.554259
     64          6           0      -15.482800    0.319093    0.731429
     65          6           0      -16.393695   -0.050196   -0.463309
     66          6           0      -16.138282    0.046160    2.103782
     67          1           0        3.114389    2.955923   -2.153090
     68          1           0        8.771784    3.936057    1.105511
     69          1           0        9.564963   -2.397089    0.985646
     70          1           0        1.792347   -1.705203   -2.175464
     71          1           0        1.392667    1.025620   -2.021923
     72          1           0        1.701196    0.795023   -4.304421
     73          1           0        2.808604   -0.583488   -3.992493
     74          1           0        3.321272    1.142519   -4.067091
     75          1           0        1.394036    0.086433    0.193490
     76          1           0        1.144285   -1.682677    0.334030
     77          1           0       -0.532790   -0.661592   -1.754803
     78          1           0       -0.642439    0.534294   -0.643811
     79          1           0        4.527206    6.248335   -2.337067
     80          1           0        4.027211    6.268615   -0.727536
     81          1           0        3.315409    5.084432   -1.868447
     82          1           0        6.433673    7.197722   -1.685325
     83          1           0        7.670802    7.884855   -0.788003
     84          1           0        6.022400    7.744269   -0.000271
     85          1           0       10.049089    1.998526    2.409245
     86          1           0       11.000473   -0.225147    0.482576
     87          1           0       10.842718    3.303329    0.256251
     88          1           0       11.846241    1.869338    0.025004
     89          1           0       11.943897    2.938488    1.529081
     90          1           0       10.120863   -1.158543    3.136061
     91          1           0       11.154627    0.131693    3.324960
     92          1           0       12.059416   -1.725684    1.354453
     93          1           0       12.156588   -2.552763    2.945375
     94          1           0       13.117564   -1.091445    2.631986
     95          1           0        7.472837   -5.395101    1.244655
     96          1           0        9.044764   -4.633607    0.887562
     97          1           0        8.038167   -5.372297   -0.445698
     98          1           0        2.929541   -4.137655   -1.319305
     99          1           0       -0.370702   -5.238833    0.460174
    100          1           0        0.077059   -3.896234    1.494504
    101          1           0        0.607054   -5.641158    1.809298
    102          1           0       -4.176654   -1.203409    0.819590
    103          1           0       -3.971049   -2.651007   -0.127563
    104          1           0       -4.928761   -0.549271   -1.909038
    105          1           0       -7.362599   -3.535946   -0.309149
    106          1           0       -7.911392   -1.980859    0.419275
    107          1           0       -6.308952   -2.745354    0.751464
    108          1           0       -7.719308   -2.144692   -2.688485
    109          1           0       -6.752630   -0.717530   -2.909646
    110          1           0       -8.081784    0.755043   -2.055052
    111          1           0       -8.588392   -0.103582   -0.722239
    112          1           0       -9.873664   -1.133551   -3.320320
    113          1           0      -10.022022    0.587914   -2.927789
    114          1           0      -10.439793   -1.485443   -0.840794
    115          1           0      -13.059879   -0.956416   -2.175300
    116          1           0      -12.305361   -2.401607   -1.650174
    117          1           0      -11.840485   -1.848520   -3.217266
    118          1           0      -12.494931    0.523810   -0.735996
    119          1           0      -11.014659    1.268906   -1.050189
    120          1           0      -10.338252   -0.589072    1.131534
    121          1           0      -12.019043    0.056599    1.338277
    122          1           0      -10.312916    2.231871    0.726353
    123          1           0       -9.585352    1.552097    2.054411
    124          1           0      -12.186479    1.428360    2.966661
    125          1           0      -11.603329    4.144155    3.699505
    126          1           0      -10.205050    3.023469    3.541981
    127          1           0      -11.426613    2.536915    4.599182
    128          1           0      -12.522385    2.763423    0.434932
    129          1           0      -12.784398    3.990515    1.781859
    130          1           0      -14.889155    3.329257    2.142257
    131          1           0      -14.260064    1.846440    2.668946
    132          1           0      -14.385219    1.900891   -0.289319
    133          1           0      -15.965082    2.429937    0.340695
    134          1           0      -14.535557   -0.219422    0.720590
    135          1           0      -17.024369   -0.894285   -0.182519
    136          1           0      -15.747062   -0.406735   -1.265209
    137          1           0      -17.068261    0.761716   -0.732417
    138          1           0      -15.407729   -0.392776    2.781750
    139          1           0      -16.925572   -0.706529    2.057487
    140          1           0      -16.521870    0.956590    2.564554
 ---------------------------------------------------------------------

 SCF Done:  E(RCAM-B3LYP) =  -3007.16737565     A.U. after   17 cycles

 Excitation energies and oscillator strengths:

 Excited State   1:      Singlet-A      1.7139 eV  723.40 nm  f=0.3719  <S**2>=0.000
     245 -> 248       -0.19004
     246 -> 247        0.68361
     245 <- 248       -0.11125
 This state for optimization and/or second-order correction.
 Total Energy, E(TD-HF/TD-DFT) =  -3007.10439092
 Copying the excited state density for this state as the 1-particle RhoCI density.

 Excited State   2:      Singlet-A      2.2540 eV  550.06 nm  f=0.0924  <S**2>=0.000
     245 -> 247        0.62945
     246 -> 248        0.31348

 Excited State   3:      Singlet-A      3.4188 eV  362.65 nm  f=0.0325  <S**2>=0.000
     244 -> 247        0.65895
     246 -> 248       -0.19736

 Excited State   4:      Singlet-A      3.5259 eV  351.64 nm  f=0.5465  <S**2>=0.000
     242 -> 247       -0.29376
     244 -> 247        0.20584
     245 -> 247       -0.25092
     246 -> 248        0.52991

 Excited State   5:      Singlet-A      3.6691 eV  337.91 nm  f=0.3615  <S**2>=0.000
     239 -> 247        0.17758
     240 -> 247        0.10744
     240 -> 249       -0.18021
     241 -> 247        0.11985
     242 -> 247        0.51874
     245 -> 247       -0.19101
     246 -> 248        0.26555

 The electronic state is 1-A.
 Alpha  occ. eigenvalues --  -46.87393 -19.26197 -19.24170 -19.20530 -19.19159
 Alpha  occ. eigenvalues --  -19.18583 -19.18570 -14.42051 -14.41651 -14.39348
 Alpha  occ. eigenvalues --  -14.38430 -10.40620 -10.38008 -10.35337 -10.34582
 Alpha  occ. eigenvalues --  -10.32664 -10.31209 -10.30994 -10.30617 -10.30576
 Alpha  occ. eigenvalues --  -10.30428 -10.30251 -10.30231 -10.28763 -10.28639
 Alpha  occ. eigenvalues --  -10.28621 -10.28470 -10.27906 -10.27850 -10.27669
 Alpha  occ. eigenvalues --  -10.27667 -10.27565 -10.27449 -10.27438 -10.27333
 Alpha  occ. eigenvalues --  -10.26824 -10.26776 -10.26702 -10.26637 -10.26633
 Alpha  occ. eigenvalues --  -10.26566 -10.26523 -10.26317 -10.26132 -10.26104
 Alpha  occ. eigenvalues --  -10.26091 -10.25994 -10.25922 -10.25612 -10.25606
 Alpha  occ. eigenvalues --  -10.25542 -10.25494 -10.25307 -10.25303 -10.25272
 Alpha  occ. eigenvalues --  -10.25238 -10.25163 -10.25159 -10.24905 -10.24896
 Alpha  occ. eigenvalues --  -10.24850 -10.24526 -10.24493 -10.24362 -10.24312
 Alpha  occ. eigenvalues --  -10.24104  -3.16073  -1.90991  -1.90509  -1.90395
 Alpha  occ. eigenvalues --   -1.17970  -1.17187  -1.11583  -1.09808  -1.08847
 Alpha  occ. eigenvalues --   -1.08111  -1.05516  -1.04314  -1.03574  -1.01667
 Alpha  occ. eigenvalues --   -0.92595  -0.90549  -0.90100  -0.89064  -0.88905
 Alpha  occ. eigenvalues --   -0.88255  -0.88176  -0.87684  -0.87255  -0.86604
 Alpha  occ. eigenvalues --   -0.86530  -0.86021  -0.84463  -0.84121  -0.83296
 Alpha  occ. eigenvalues --   -0.82687  -0.82405  -0.81746  -0.81039  -0.80408
 Alpha  occ. eigenvalues --   -0.79999  -0.78498  -0.78250  -0.77335  -0.76327
 Alpha  occ. eigenvalues --   -0.76179  -0.75587  -0.74975  -0.74483  -0.74007
 Alpha  occ. eigenvalues --   -0.73463  -0.72329  -0.71731  -0.70700  -0.69369
 Alpha  occ. eigenvalues --   -0.68739  -0.68047  -0.67233  -0.66887  -0.65850
 Alpha  occ. eigenvalues --   -0.65781  -0.65441  -0.64783  -0.64306  -0.64238
 Alpha  occ. eigenvalues --   -0.63537  -0.62902  -0.62200  -0.61984  -0.60771
 Alpha  occ. eigenvalues --   -0.59935  -0.59691  -0.59398  -0.58496  -0.57873
 Alpha  occ. eigenvalues --   -0.57475  -0.57014  -0.56449  -0.56094  -0.55925
 Alpha  occ. eigenvalues --   -0.55394  -0.55247  -0.55054  -0.54677  -0.54539
 Alpha  occ. eigenvalues --   -0.53898  -0.53753  -0.53406  -0.53238  -0.53013
 Alpha  occ. eigenvalues --   -0.52622  -0.52318  -0.52088  -0.52000  -0.51804
 Alpha  occ. eigenvalues --   -0.51699  -0.51483  -0.51103  -0.50986  -0.50768
 Alpha  occ. eigenvalues --   -0.50398  -0.50322  -0.50118  -0.49767  -0.49681
 Alpha  occ. eigenvalues --   -0.49439  -0.49314  -0.49061  -0.48881  -0.48795
 Alpha  occ. eigenvalues --   -0.48699  -0.48445  -0.48276  -0.48138  -0.48002
 Alpha  occ. eigenvalues --   -0.47682  -0.47300  -0.46983  -0.46904  -0.46621
 Alpha  occ. eigenvalues --   -0.46597  -0.46386  -0.46282  -0.45861  -0.45847
 Alpha  occ. eigenvalues --   -0.45625  -0.45372  -0.45251  -0.45096  -0.44792
 Alpha  occ. eigenvalues --   -0.44479  -0.44350  -0.44024  -0.43858  -0.43838
 Alpha  occ. eigenvalues --   -0.43538  -0.43486  -0.43315  -0.43296  -0.43172
 Alpha  occ. eigenvalues --   -0.42965  -0.42945  -0.42453  -0.42319  -0.42272
 Alpha  occ. eigenvalues --   -0.42155  -0.42019  -0.41789  -0.41604  -0.41190
 Alpha  occ. eigenvalues --   -0.41108  -0.40718  -0.40663  -0.40487  -0.39986
 Alpha  occ. eigenvalues --   -0.39841  -0.39832  -0.39404  -0.39222  -0.38932
 Alpha  occ. eigenvalues --   -0.38624  -0.38071  -0.37893  -0.37639  -0.37454
 Alpha  occ. eigenvalues --   -0.36902  -0.36674  -0.36673  -0.36547  -0.36218
 Alpha  occ. eigenvalues --   -0.36134  -0.35224  -0.34815  -0.34693  -0.34541
 Alpha  occ. eigenvalues --   -0.34295  -0.33550  -0.33190  -0.31203  -0.31066
 Alpha  occ. eigenvalues --   -0.30594  -0.29949  -0.29531  -0.29441  -0.23745
 Alpha  occ. eigenvalues --   -0.20824
 Alpha virt. eigenvalues --   -0.08238  -0.01633   0.00522   0.02538   0.04030
 Alpha virt. eigenvalues --    0.04698   0.05248   0.05560   0.06690   0.07013
 Alpha virt. eigenvalues --    0.07558   0.07850   0.08186   0.08468   0.08977

 Mulliken charges:
               1
     1  Mg   0.837451
     2  C   -0.043449
     3  C   -0.078153
     4  C   -0.062413
     5  C   -0.092505
     6  N   -0.268032
     7  C   -0.034384
     8  C   -0.018426
     9  C   -0.056178
    10  C    0.023888
    11  C    0.098851
    12  C    0.118030
    13  C    0.001306
    14  C    0.164299
    15  O   -0.220675
    16  O   -0.314302
    17  N   -0.398091
    18  C    0.158288
    19  C   -0.138862
    20  C   -0.038875
    21  C    0.150016
    22  C    0.096265
    23  C   -0.002363
    24  O   -0.188817
    25  C    0.060894
    26  N   -0.302108
    27  C   -0.013965
    28  C   -0.005971
    29  C   -0.046415
    30  C    0.032436
    31  C    0.096871
    32  C    0.033059
    33  C    0.006492
    34  N   -0.315096
    35  C    0.143670
    36  C   -0.196298
    37  C    0.015854
    38  C    0.120881
    39  C    0.124319
    40  C    0.071448
    41  O   -0.167498
    42  C   -0.021054
    43  C    0.162208
    44  O   -0.202453
    45  O   -0.312247
    46  C    0.175020
    47  C    0.293032
    48  C   -0.134079
    49  C   -0.204769
    50  C    0.090605
    51  C    0.110411
    52  C   -0.015735
    53  C    0.061458
    54  C   -0.146413
    55  C    0.065319
    56  C    0.038264
    57  C    0.018464
    58  C    0.005549
    59  C   -0.182885
    60  C    0.064958
    61  C    0.086428
    62  C    0.009461
    63  C    0.020721
    64  C   -0.159955
    65  C    0.059972
    66  C    0.042408
    67  H   -0.036662
    68  H    0.002532
    69  H   -0.037647
    70  H   -0.005243
    71  H   -0.005584
    72  H    0.008686
    73  H    0.018260
    74  H    0.024882
    75  H    0.006100
    76  H    0.044650
    77  H    0.021940
    78  H    0.030096
    79  H    0.029667
    80  H    0.017366
    81  H    0.005522
    82  H    0.022360
    83  H    0.028128
    84  H    0.048046
    85  H    0.010459
    86  H    0.023856
    87  H    0.011876
    88  H    0.012608
    89  H    0.017575
    90  H    0.011417
    91  H   -0.007495
    92  H    0.007895
    93  H    0.027331
    94  H    0.025052
    95  H    0.037741
    96  H    0.005428
    97  H    0.037645
    98  H    0.033443
    99  H    0.021236
   100  H    0.050819
   101  H    0.039785
   102  H    0.045103
   103  H    0.026450
   104  H   -0.002185
   105  H    0.030893
   106  H    0.015832
   107  H   -0.002786
   108  H    0.013625
   109  H   -0.010692
   110  H   -0.011417
   111  H    0.002685
   112  H   -0.007339
   113  H   -0.007998
   114  H   -0.007966
   115  H    0.011828
   116  H   -0.002439
   117  H    0.002868
   118  H   -0.010655
   119  H   -0.010122
   120  H    0.014827
   121  H    0.003368
   122  H   -0.012078
   123  H   -0.007028
   124  H    0.002425
   125  H    0.016378
   126  H   -0.008223
   127  H    0.009709
   128  H    0.012359
   129  H   -0.006084
   130  H   -0.007411
   131  H   -0.001576
   132  H   -0.000869
   133  H   -0.002795
   134  H    0.000063
   135  H   -0.002432
   136  H    0.012025
   137  H    0.013746
   138  H    0.005844
   139  H    0.001635
   140  H    0.014534
 Sum of Mulliken charges =  -0.00000

 Dipole moment (field-independent basis, Debye):
    X=             -2.2021    Y=              3.0061    Z=             -3.2575  Tot=              4.9495
 Quadrupole moment (field-independent basis, Debye-Ang):
   XX=           -369.7916   YY=           -417.3562   ZZ=           -405.8156
   XY=              7.5640   XZ=             -1.7647   YZ=             -5.4933

 Normal termination of Gaussian 16 at Thu May  5 07:59:46 2022.
