 Gaussian 16, Revision A.03,
 Gaussian 16:  ES64L-G16RevA.03 25-Dec-2016

 ---------------------------------
 #p PBE1PBE/Def2SVP td=(nstates=5)
 ---------------------------------

 -----------------------------------------------------
 step_751_chromophore_22 TDDFT with PBE1PBE functional
 -----------------------------------------------------
 Symbolic Z-matrix:
 Charge =  0 Multiplicity = 1

                         Standard orientation:
 ---------------------------------------------------------------------
 Center     Atomic      Atomic             Coordinates (Angstroms)
 Number     Number       Type             X           Y           Z
 ---------------------------------------------------------------------
      1         12           0        6.272496    0.432299   -0.226828
      2          6           0        4.166888   -2.337402   -0.609147
      3          6           0        3.904608    2.339915   -1.718144
      4          6           0        8.137365    3.160700    0.671404
      5          6           0        8.780762   -1.711046    0.658833
      6          7           0        4.297117    0.042148   -1.032287
      7          6           0        3.576180   -1.116764   -1.070777
      8          6           0        2.115267   -0.895442   -1.520508
      9          6           0        2.286760    0.441293   -2.240864
     10          6           0        3.543588    1.008268   -1.604186
     11          6           0        2.556956    0.443562   -3.727217
     12          6           0        1.074794   -0.817790   -0.325730
     13          6           0       -0.383589   -0.523763   -0.683992
     14          6           0       -1.653322   -1.036165    0.093213
     15          8           0       -1.696347   -1.439843    1.241121
     16          8           0       -2.718869   -1.088114   -0.752303
     17          7           0        6.036225    2.449960   -0.500237
     18          6           0        4.982454    3.052844   -1.124135
     19          6           0        5.157504    4.505554   -1.001010
     20          6           0        6.404609    4.750571   -0.301122
     21          6           0        6.920178    3.416730   -0.005182
     22          6           0        4.233484    5.569253   -1.536955
     23          6           0        7.174729    6.055104   -0.052712
     24          8           0        8.196234    6.064267    0.577160
     25          6           0        6.768585    7.289867   -0.652782
     26          7           0        8.255593    0.729612    0.471712
     27          6           0        8.800448    1.907940    0.813661
     28          6           0       10.179273    1.663563    1.380272
     29          6           0       10.404802    0.117327    1.328444
     30          6           0        9.043305   -0.329670    0.894675
     31          6           0       11.320167    2.468537    0.768297
     32          6           0       10.935582   -0.661002    2.610971
     33          6           0       12.170197   -1.591738    2.430343
     34          7           0        6.542652   -1.621576   -0.221344
     35          6           0        7.604406   -2.311055    0.228589
     36          6           0        7.224345   -3.675282    0.254121
     37          6           0        5.890127   -3.755274   -0.005525
     38          6           0        5.519261   -2.474219   -0.302344
     39          6           0        8.044645   -4.836792    0.503627
     40          6           0        4.739253   -4.657605   -0.079024
     41          8           0        4.541809   -5.843856    0.158047
     42          6           0        3.537877   -3.758552   -0.498323
     43          6           0        2.586238   -3.838085    0.625496
     44          8           0        2.649102   -3.279116    1.682414
     45          8           0        1.564524   -4.611088    0.240244
     46          6           0        0.428718   -4.844033    1.087715
     47          6           0       -3.948242   -1.562562   -0.183591
     48          6           0       -5.136376   -1.220341   -1.075978
     49          6           0       -6.472187   -1.567321   -1.001516
     50          6           0       -7.069591   -2.532111    0.000370
     51          6           0       -7.361777   -1.249426   -2.179254
     52          6           0       -8.447638   -0.238351   -1.795401
     53          6           0       -9.829540   -0.402075   -2.514240
     54          6           0      -10.949772   -0.791229   -1.507350
     55          6           0      -12.113149   -1.494903   -2.223472
     56          6           0      -11.425151    0.359596   -0.611464
     57          6           0      -11.032655    0.220450    0.905260
     58          6           0      -10.563292    1.595069    1.574813
     59          6           0      -11.776926    2.287718    2.435580
     60          6           0      -11.283564    3.102050    3.678294
     61          6           0      -12.853702    2.952837    1.456461
     62          6           0      -14.298071    2.484798    1.786282
     63          6           0      -15.072339    1.842155    0.554259
     64          6           0      -15.482800    0.319093    0.731429
     65          6           0      -16.393695   -0.050196   -0.463309
     66          6           0      -16.138282    0.046160    2.103782
     67          1           0        3.114389    2.955923   -2.153090
     68          1           0        8.771784    3.936057    1.105511
     69          1           0        9.564963   -2.397089    0.985646
     70          1           0        1.792347   -1.705203   -2.175464
     71          1           0        1.392667    1.025620   -2.021923
     72          1           0        1.701196    0.795023   -4.304421
     73          1           0        2.808604   -0.583488   -3.992493
     74          1           0        3.321272    1.142519   -4.067091
     75          1           0        1.394036    0.086433    0.193490
     76          1           0        1.144285   -1.682677    0.334030
     77          1           0       -0.532790   -0.661592   -1.754803
     78          1           0       -0.642439    0.534294   -0.643811
     79          1           0        4.527206    6.248335   -2.337067
     80          1           0        4.027211    6.268615   -0.727536
     81          1           0        3.315409    5.084432   -1.868447
     82          1           0        6.433673    7.197722   -1.685325
     83          1           0        7.670802    7.884855   -0.788003
     84          1           0        6.022400    7.744269   -0.000271
     85          1           0       10.049089    1.998526    2.409245
     86          1           0       11.000473   -0.225147    0.482576
     87          1           0       10.842718    3.303329    0.256251
     88          1           0       11.846241    1.869338    0.025004
     89          1           0       11.943897    2.938488    1.529081
     90          1           0       10.120863   -1.158543    3.136061
     91          1           0       11.154627    0.131693    3.324960
     92          1           0       12.059416   -1.725684    1.354453
     93          1           0       12.156588   -2.552763    2.945375
     94          1           0       13.117564   -1.091445    2.631986
     95          1           0        7.472837   -5.395101    1.244655
     96          1           0        9.044764   -4.633607    0.887562
     97          1           0        8.038167   -5.372297   -0.445698
     98          1           0        2.929541   -4.137655   -1.319305
     99          1           0       -0.370702   -5.238833    0.460174
    100          1           0        0.077059   -3.896234    1.494504
    101          1           0        0.607054   -5.641158    1.809298
    102          1           0       -4.176654   -1.203409    0.819590
    103          1           0       -3.971049   -2.651007   -0.127563
    104          1           0       -4.928761   -0.549271   -1.909038
    105          1           0       -7.362599   -3.535946   -0.309149
    106          1           0       -7.911392   -1.980859    0.419275
    107          1           0       -6.308952   -2.745354    0.751464
    108          1           0       -7.719308   -2.144692   -2.688485
    109          1           0       -6.752630   -0.717530   -2.909646
    110          1           0       -8.081784    0.755043   -2.055052
    111          1           0       -8.588392   -0.103582   -0.722239
    112          1           0       -9.873664   -1.133551   -3.320320
    113          1           0      -10.022022    0.587914   -2.927789
    114          1           0      -10.439793   -1.485443   -0.840794
    115          1           0      -13.059879   -0.956416   -2.175300
    116          1           0      -12.305361   -2.401607   -1.650174
    117          1           0      -11.840485   -1.848520   -3.217266
    118          1           0      -12.494931    0.523810   -0.735996
    119          1           0      -11.014659    1.268906   -1.050189
    120          1           0      -10.338252   -0.589072    1.131534
    121          1           0      -12.019043    0.056599    1.338277
    122          1           0      -10.312916    2.231871    0.726353
    123          1           0       -9.585352    1.552097    2.054411
    124          1           0      -12.186479    1.428360    2.966661
    125          1           0      -11.603329    4.144155    3.699505
    126          1           0      -10.205050    3.023469    3.541981
    127          1           0      -11.426613    2.536915    4.599182
    128          1           0      -12.522385    2.763423    0.434932
    129          1           0      -12.784398    3.990515    1.781859
    130          1           0      -14.889155    3.329257    2.142257
    131          1           0      -14.260064    1.846440    2.668946
    132          1           0      -14.385219    1.900891   -0.289319
    133          1           0      -15.965082    2.429937    0.340695
    134          1           0      -14.535557   -0.219422    0.720590
    135          1           0      -17.024369   -0.894285   -0.182519
    136          1           0      -15.747062   -0.406735   -1.265209
    137          1           0      -17.068261    0.761716   -0.732417
    138          1           0      -15.407729   -0.392776    2.781750
    139          1           0      -16.925572   -0.706529    2.057487
    140          1           0      -16.521870    0.956590    2.564554
 ---------------------------------------------------------------------

 SCF Done:  E(RPBE1PBE) =  -3005.35665720     A.U. after   15 cycles

 Excitation energies and oscillator strengths:

 Excited State   1:      Singlet-A      1.8700 eV  663.01 nm  f=0.3612  <S**2>=0.000
     245 -> 248        0.18346
     246 -> 247        0.69051
     246 <- 247       -0.10330
 This state for optimization and/or second-order correction.
 Total Energy, E(TD-HF/TD-DFT) =  -3005.28793514
 Copying the excited state density for this state as the 1-particle RhoCI density.

 Excited State   2:      Singlet-A      2.2637 eV  547.71 nm  f=0.0918  <S**2>=0.000
     245 -> 247        0.64189
     246 -> 248       -0.28798

 Excited State   3:      Singlet-A      3.0940 eV  400.72 nm  f=0.0003  <S**2>=0.000
     243 -> 247        0.68752

 Excited State   4:      Singlet-A      3.1954 eV  388.00 nm  f=0.0117  <S**2>=0.000
     240 -> 247        0.41030
     240 -> 249       -0.14148
     242 -> 247        0.48029
     246 -> 248        0.19974

 Excited State   5:      Singlet-A      3.2132 eV  385.86 nm  f=0.0065  <S**2>=0.000
     240 -> 247       -0.12124
     241 -> 247        0.63313
     241 -> 249        0.11956
     241 -> 250        0.11329
     242 -> 247        0.16464

 The electronic state is 1-A.
 Alpha  occ. eigenvalues --  -46.90798 -19.26899 -19.24833 -19.20818 -19.19397
 Alpha  occ. eigenvalues --  -19.18778 -19.18731 -14.41596 -14.41138 -14.39008
 Alpha  occ. eigenvalues --  -14.38098 -10.37677 -10.35012 -10.32512 -10.31617
 Alpha  occ. eigenvalues --  -10.30084 -10.28985 -10.28428 -10.28271 -10.28210
 Alpha  occ. eigenvalues --  -10.28123 -10.27924 -10.27873 -10.26568 -10.26357
 Alpha  occ. eigenvalues --  -10.26286 -10.25991 -10.25621 -10.25589 -10.25553
 Alpha  occ. eigenvalues --  -10.25526 -10.25254 -10.25176 -10.25093 -10.25027
 Alpha  occ. eigenvalues --  -10.24435 -10.24323 -10.24317 -10.24301 -10.24223
 Alpha  occ. eigenvalues --  -10.24207 -10.24103 -10.23954 -10.23879 -10.23662
 Alpha  occ. eigenvalues --  -10.23603 -10.23477 -10.23389 -10.23162 -10.23133
 Alpha  occ. eigenvalues --  -10.23018 -10.22969 -10.22940 -10.22854 -10.22835
 Alpha  occ. eigenvalues --  -10.22807 -10.22745 -10.22593 -10.22490 -10.22461
 Alpha  occ. eigenvalues --  -10.22438 -10.21922 -10.21900 -10.21851 -10.21775
 Alpha  occ. eigenvalues --  -10.21702  -3.13055  -1.85917  -1.85411  -1.85302
 Alpha  occ. eigenvalues --   -1.12825  -1.11982  -1.06268  -1.04558  -1.03735
 Alpha  occ. eigenvalues --   -1.02936  -1.00250  -0.98949  -0.98186  -0.96302
 Alpha  occ. eigenvalues --   -0.86989  -0.84689  -0.84334  -0.83232  -0.83163
 Alpha  occ. eigenvalues --   -0.82579  -0.82286  -0.82004  -0.81587  -0.80715
 Alpha  occ. eigenvalues --   -0.80693  -0.80273  -0.78779  -0.78367  -0.77545
 Alpha  occ. eigenvalues --   -0.76838  -0.76602  -0.76052  -0.75276  -0.74750
 Alpha  occ. eigenvalues --   -0.74140  -0.72790  -0.72587  -0.71643  -0.70573
 Alpha  occ. eigenvalues --   -0.70439  -0.69666  -0.69345  -0.68645  -0.68197
 Alpha  occ. eigenvalues --   -0.67787  -0.66785  -0.66161  -0.65029  -0.63724
 Alpha  occ. eigenvalues --   -0.63210  -0.62270  -0.61598  -0.61195  -0.60279
 Alpha  occ. eigenvalues --   -0.60051  -0.59822  -0.59345  -0.58901  -0.58747
 Alpha  occ. eigenvalues --   -0.57672  -0.57071  -0.56572  -0.56414  -0.55237
 Alpha  occ. eigenvalues --   -0.54443  -0.54164  -0.53968  -0.53173  -0.52385
 Alpha  occ. eigenvalues --   -0.51829  -0.51435  -0.50978  -0.50576  -0.50483
 Alpha  occ. eigenvalues --   -0.49972  -0.49837  -0.49601  -0.49174  -0.48953
 Alpha  occ. eigenvalues --   -0.48478  -0.48130  -0.47952  -0.47792  -0.47529
 Alpha  occ. eigenvalues --   -0.47140  -0.46885  -0.46606  -0.46542  -0.46415
 Alpha  occ. eigenvalues --   -0.46237  -0.46052  -0.45697  -0.45530  -0.45244
 Alpha  occ. eigenvalues --   -0.44963  -0.44891  -0.44692  -0.44330  -0.44288
 Alpha  occ. eigenvalues --   -0.43994  -0.43888  -0.43670  -0.43458  -0.43410
 Alpha  occ. eigenvalues --   -0.43263  -0.43036  -0.42878  -0.42799  -0.42631
 Alpha  occ. eigenvalues --   -0.42323  -0.41995  -0.41611  -0.41603  -0.41349
 Alpha  occ. eigenvalues --   -0.41181  -0.41050  -0.40963  -0.40677  -0.40471
 Alpha  occ. eigenvalues --   -0.40367  -0.40126  -0.40018  -0.39855  -0.39468
 Alpha  occ. eigenvalues --   -0.39205  -0.39154  -0.38877  -0.38682  -0.38513
 Alpha  occ. eigenvalues --   -0.38285  -0.38197  -0.38121  -0.37987  -0.37896
 Alpha  occ. eigenvalues --   -0.37791  -0.37769  -0.37247  -0.37102  -0.37041
 Alpha  occ. eigenvalues --   -0.36927  -0.36896  -0.36651  -0.36440  -0.36020
 Alpha  occ. eigenvalues --   -0.35927  -0.35592  -0.35459  -0.35281  -0.34896
 Alpha  occ. eigenvalues --   -0.34762  -0.34630  -0.34268  -0.34146  -0.33764
 Alpha  occ. eigenvalues --   -0.33389  -0.32967  -0.32750  -0.32451  -0.32447
 Alpha  occ. eigenvalues --   -0.31930  -0.31779  -0.31551  -0.31450  -0.31173
 Alpha  occ. eigenvalues --   -0.31056  -0.30121  -0.29694  -0.29614  -0.29492
 Alpha  occ. eigenvalues --   -0.29436  -0.28918  -0.28152  -0.26498  -0.25893
 Alpha  occ. eigenvalues --   -0.25787  -0.25538  -0.25029  -0.24865  -0.20701
 Alpha  occ. eigenvalues --   -0.18456
 Alpha virt. eigenvalues --   -0.10733  -0.05102  -0.03719  -0.01868   0.00192
 Alpha virt. eigenvalues --    0.00870   0.00982   0.01546   0.02216   0.03235
 Alpha virt. eigenvalues --    0.03582   0.04221   0.04488   0.04865   0.05359

 Mulliken charges:
               1
     1  Mg   0.992561
     2  C   -0.046948
     3  C   -0.068120
     4  C   -0.052794
     5  C   -0.081786
     6  N   -0.371871
     7  C    0.046289
     8  C   -0.087718
     9  C   -0.138188
    10  C    0.053640
    11  C    0.046384
    12  C    0.057370
    13  C   -0.068728
    14  C    0.231115
    15  O   -0.255329
    16  O   -0.347690
    17  N   -0.515828
    18  C    0.183801
    19  C   -0.168503
    20  C   -0.085652
    21  C    0.175849
    22  C    0.040666
    23  C    0.047412
    24  O   -0.226939
    25  C   -0.011663
    26  N   -0.410601
    27  C    0.030607
    28  C   -0.092511
    29  C   -0.124321
    30  C    0.076702
    31  C    0.037677
    32  C   -0.024791
    33  C   -0.067633
    34  N   -0.452028
    35  C    0.169923
    36  C   -0.230801
    37  C   -0.019929
    38  C    0.162830
    39  C    0.072098
    40  C    0.162400
    41  O   -0.214257
    42  C   -0.134439
    43  C    0.264026
    44  O   -0.239424
    45  O   -0.349446
    46  C    0.120472
    47  C    0.255006
    48  C   -0.147470
    49  C   -0.250012
    50  C    0.029635
    51  C    0.045022
    52  C   -0.077685
    53  C    0.007251
    54  C   -0.235723
    55  C    0.002640
    56  C   -0.011943
    57  C   -0.060182
    58  C   -0.046622
    59  C   -0.259490
    60  C    0.003279
    61  C    0.025259
    62  C   -0.049193
    63  C   -0.035244
    64  C   -0.258589
    65  C   -0.003851
    66  C   -0.018537
    67  H   -0.003783
    68  H    0.033986
    69  H   -0.001918
    70  H    0.031844
    71  H    0.032288
    72  H    0.036498
    73  H    0.046501
    74  H    0.052707
    75  H    0.041417
    76  H    0.085784
    77  H    0.053543
    78  H    0.061774
    79  H    0.055340
    80  H    0.046055
    81  H    0.034054
    82  H    0.048640
    83  H    0.055009
    84  H    0.074319
    85  H    0.048926
    86  H    0.061710
    87  H    0.040858
    88  H    0.040104
    89  H    0.045014
    90  H    0.043606
    91  H    0.027097
    92  H    0.034929
    93  H    0.054567
    94  H    0.053037
    95  H    0.065573
    96  H    0.032596
    97  H    0.066231
    98  H    0.069210
    99  H    0.043366
   100  H    0.072782
   101  H    0.061745
   102  H    0.070702
   103  H    0.053521
   104  H    0.028376
   105  H    0.057077
   106  H    0.045553
   107  H    0.025844
   108  H    0.044893
   109  H    0.022403
   110  H    0.021855
   111  H    0.038921
   112  H    0.023941
   113  H    0.025198
   114  H    0.033720
   115  H    0.040786
   116  H    0.026231
   117  H    0.029517
   118  H    0.028236
   119  H    0.020381
   120  H    0.046709
   121  H    0.042598
   122  H    0.021806
   123  H    0.023550
   124  H    0.039878
   125  H    0.042550
   126  H    0.020559
   127  H    0.037070
   128  H    0.044472
   129  H    0.028824
   130  H    0.025262
   131  H    0.030355
   132  H    0.031926
   133  H    0.029371
   134  H    0.042540
   135  H    0.025621
   136  H    0.041860
   137  H    0.040196
   138  H    0.033056
   139  H    0.029500
   140  H    0.042300
 Sum of Mulliken charges =  -0.00000

 Dipole moment (field-independent basis, Debye):
    X=             -2.1612    Y=              2.8765    Z=             -3.2252  Tot=              4.8318
 Quadrupole moment (field-independent basis, Debye-Ang):
   XX=           -363.8620   YY=           -414.9047   ZZ=           -402.9280
   XY=              6.7229   XZ=             -0.8396   YZ=             -5.8184

 Normal termination of Gaussian 16 at Thu May  5 08:21:23 2022.
