 Gaussian 16, Revision A.03,
 Gaussian 16:  ES64L-G16RevA.03 25-Dec-2016

 --------------------------------
 #p wB97XD/Def2SVP td=(nstates=5)
 --------------------------------

 ----------------------------------------------------
 step_751_chromophore_22 TDDFT with wB97XD functional
 ----------------------------------------------------
 Symbolic Z-matrix:
 Charge =  0 Multiplicity = 1

                         Standard orientation:
 ---------------------------------------------------------------------
 Center     Atomic      Atomic             Coordinates (Angstroms)
 Number     Number       Type             X           Y           Z
 ---------------------------------------------------------------------
      1         12           0        6.272496    0.432299   -0.226828
      2          6           0        4.166888   -2.337402   -0.609147
      3          6           0        3.904608    2.339915   -1.718144
      4          6           0        8.137365    3.160700    0.671404
      5          6           0        8.780762   -1.711046    0.658833
      6          7           0        4.297117    0.042148   -1.032287
      7          6           0        3.576180   -1.116764   -1.070777
      8          6           0        2.115267   -0.895442   -1.520508
      9          6           0        2.286760    0.441293   -2.240864
     10          6           0        3.543588    1.008268   -1.604186
     11          6           0        2.556956    0.443562   -3.727217
     12          6           0        1.074794   -0.817790   -0.325730
     13          6           0       -0.383589   -0.523763   -0.683992
     14          6           0       -1.653322   -1.036165    0.093213
     15          8           0       -1.696347   -1.439843    1.241121
     16          8           0       -2.718869   -1.088114   -0.752303
     17          7           0        6.036225    2.449960   -0.500237
     18          6           0        4.982454    3.052844   -1.124135
     19          6           0        5.157504    4.505554   -1.001010
     20          6           0        6.404609    4.750571   -0.301122
     21          6           0        6.920178    3.416730   -0.005182
     22          6           0        4.233484    5.569253   -1.536955
     23          6           0        7.174729    6.055104   -0.052712
     24          8           0        8.196234    6.064267    0.577160
     25          6           0        6.768585    7.289867   -0.652782
     26          7           0        8.255593    0.729612    0.471712
     27          6           0        8.800448    1.907940    0.813661
     28          6           0       10.179273    1.663563    1.380272
     29          6           0       10.404802    0.117327    1.328444
     30          6           0        9.043305   -0.329670    0.894675
     31          6           0       11.320167    2.468537    0.768297
     32          6           0       10.935582   -0.661002    2.610971
     33          6           0       12.170197   -1.591738    2.430343
     34          7           0        6.542652   -1.621576   -0.221344
     35          6           0        7.604406   -2.311055    0.228589
     36          6           0        7.224345   -3.675282    0.254121
     37          6           0        5.890127   -3.755274   -0.005525
     38          6           0        5.519261   -2.474219   -0.302344
     39          6           0        8.044645   -4.836792    0.503627
     40          6           0        4.739253   -4.657605   -0.079024
     41          8           0        4.541809   -5.843856    0.158047
     42          6           0        3.537877   -3.758552   -0.498323
     43          6           0        2.586238   -3.838085    0.625496
     44          8           0        2.649102   -3.279116    1.682414
     45          8           0        1.564524   -4.611088    0.240244
     46          6           0        0.428718   -4.844033    1.087715
     47          6           0       -3.948242   -1.562562   -0.183591
     48          6           0       -5.136376   -1.220341   -1.075978
     49          6           0       -6.472187   -1.567321   -1.001516
     50          6           0       -7.069591   -2.532111    0.000370
     51          6           0       -7.361777   -1.249426   -2.179254
     52          6           0       -8.447638   -0.238351   -1.795401
     53          6           0       -9.829540   -0.402075   -2.514240
     54          6           0      -10.949772   -0.791229   -1.507350
     55          6           0      -12.113149   -1.494903   -2.223472
     56          6           0      -11.425151    0.359596   -0.611464
     57          6           0      -11.032655    0.220450    0.905260
     58          6           0      -10.563292    1.595069    1.574813
     59          6           0      -11.776926    2.287718    2.435580
     60          6           0      -11.283564    3.102050    3.678294
     61          6           0      -12.853702    2.952837    1.456461
     62          6           0      -14.298071    2.484798    1.786282
     63          6           0      -15.072339    1.842155    0.554259
     64          6           0      -15.482800    0.319093    0.731429
     65          6           0      -16.393695   -0.050196   -0.463309
     66          6           0      -16.138282    0.046160    2.103782
     67          1           0        3.114389    2.955923   -2.153090
     68          1           0        8.771784    3.936057    1.105511
     69          1           0        9.564963   -2.397089    0.985646
     70          1           0        1.792347   -1.705203   -2.175464
     71          1           0        1.392667    1.025620   -2.021923
     72          1           0        1.701196    0.795023   -4.304421
     73          1           0        2.808604   -0.583488   -3.992493
     74          1           0        3.321272    1.142519   -4.067091
     75          1           0        1.394036    0.086433    0.193490
     76          1           0        1.144285   -1.682677    0.334030
     77          1           0       -0.532790   -0.661592   -1.754803
     78          1           0       -0.642439    0.534294   -0.643811
     79          1           0        4.527206    6.248335   -2.337067
     80          1           0        4.027211    6.268615   -0.727536
     81          1           0        3.315409    5.084432   -1.868447
     82          1           0        6.433673    7.197722   -1.685325
     83          1           0        7.670802    7.884855   -0.788003
     84          1           0        6.022400    7.744269   -0.000271
     85          1           0       10.049089    1.998526    2.409245
     86          1           0       11.000473   -0.225147    0.482576
     87          1           0       10.842718    3.303329    0.256251
     88          1           0       11.846241    1.869338    0.025004
     89          1           0       11.943897    2.938488    1.529081
     90          1           0       10.120863   -1.158543    3.136061
     91          1           0       11.154627    0.131693    3.324960
     92          1           0       12.059416   -1.725684    1.354453
     93          1           0       12.156588   -2.552763    2.945375
     94          1           0       13.117564   -1.091445    2.631986
     95          1           0        7.472837   -5.395101    1.244655
     96          1           0        9.044764   -4.633607    0.887562
     97          1           0        8.038167   -5.372297   -0.445698
     98          1           0        2.929541   -4.137655   -1.319305
     99          1           0       -0.370702   -5.238833    0.460174
    100          1           0        0.077059   -3.896234    1.494504
    101          1           0        0.607054   -5.641158    1.809298
    102          1           0       -4.176654   -1.203409    0.819590
    103          1           0       -3.971049   -2.651007   -0.127563
    104          1           0       -4.928761   -0.549271   -1.909038
    105          1           0       -7.362599   -3.535946   -0.309149
    106          1           0       -7.911392   -1.980859    0.419275
    107          1           0       -6.308952   -2.745354    0.751464
    108          1           0       -7.719308   -2.144692   -2.688485
    109          1           0       -6.752630   -0.717530   -2.909646
    110          1           0       -8.081784    0.755043   -2.055052
    111          1           0       -8.588392   -0.103582   -0.722239
    112          1           0       -9.873664   -1.133551   -3.320320
    113          1           0      -10.022022    0.587914   -2.927789
    114          1           0      -10.439793   -1.485443   -0.840794
    115          1           0      -13.059879   -0.956416   -2.175300
    116          1           0      -12.305361   -2.401607   -1.650174
    117          1           0      -11.840485   -1.848520   -3.217266
    118          1           0      -12.494931    0.523810   -0.735996
    119          1           0      -11.014659    1.268906   -1.050189
    120          1           0      -10.338252   -0.589072    1.131534
    121          1           0      -12.019043    0.056599    1.338277
    122          1           0      -10.312916    2.231871    0.726353
    123          1           0       -9.585352    1.552097    2.054411
    124          1           0      -12.186479    1.428360    2.966661
    125          1           0      -11.603329    4.144155    3.699505
    126          1           0      -10.205050    3.023469    3.541981
    127          1           0      -11.426613    2.536915    4.599182
    128          1           0      -12.522385    2.763423    0.434932
    129          1           0      -12.784398    3.990515    1.781859
    130          1           0      -14.889155    3.329257    2.142257
    131          1           0      -14.260064    1.846440    2.668946
    132          1           0      -14.385219    1.900891   -0.289319
    133          1           0      -15.965082    2.429937    0.340695
    134          1           0      -14.535557   -0.219422    0.720590
    135          1           0      -17.024369   -0.894285   -0.182519
    136          1           0      -15.747062   -0.406735   -1.265209
    137          1           0      -17.068261    0.761716   -0.732417
    138          1           0      -15.407729   -0.392776    2.781750
    139          1           0      -16.925572   -0.706529    2.057487
    140          1           0      -16.521870    0.956590    2.564554
 ---------------------------------------------------------------------

 SCF Done:  E(RwB97XD) =  -3007.86661857     A.U. after   17 cycles

 Excitation energies and oscillator strengths:

 Excited State   1:      Singlet-A      1.6556 eV  748.86 nm  f=0.3696  <S**2>=0.000
     245 -> 248        0.19562
     246 -> 247        0.68155
     245 <- 248        0.12091
 This state for optimization and/or second-order correction.
 Total Energy, E(TD-HF/TD-DFT) =  -3007.80577480
 Copying the excited state density for this state as the 1-particle RhoCI density.

 Excited State   2:      Singlet-A      2.1993 eV  563.74 nm  f=0.0894  <S**2>=0.000
     245 -> 247        0.62754
     246 -> 248       -0.31561

 Excited State   3:      Singlet-A      3.4364 eV  360.79 nm  f=0.0528  <S**2>=0.000
     242 -> 247        0.11059
     243 -> 247        0.63597
     246 -> 248        0.23132

 Excited State   4:      Singlet-A      3.5387 eV  350.36 nm  f=0.5486  <S**2>=0.000
     242 -> 247        0.28296
     243 -> 247       -0.25040
     245 -> 247        0.24956
     246 -> 248        0.52071

 Excited State   5:      Singlet-A      3.7086 eV  334.31 nm  f=0.3309  <S**2>=0.000
     239 -> 247        0.19244
     239 -> 250        0.10842
     240 -> 249        0.19953
     241 -> 247        0.19598
     242 -> 247        0.48199
     245 -> 247       -0.18180
     246 -> 248       -0.24210

 The electronic state is 1-A.
 Alpha  occ. eigenvalues --  -46.93749 -19.31456 -19.29397 -19.25466 -19.24209
 Alpha  occ. eigenvalues --  -19.23607 -19.23503 -14.46651 -14.46247 -14.43981
 Alpha  occ. eigenvalues --  -14.43019 -10.44443 -10.41838 -10.39363 -10.38522
 Alpha  occ. eigenvalues --  -10.36564 -10.35257 -10.34709 -10.34625 -10.34607
 Alpha  occ. eigenvalues --  -10.34440 -10.34325 -10.34292 -10.32828 -10.32818
 Alpha  occ. eigenvalues --  -10.32600 -10.32407 -10.31886 -10.31882 -10.31797
 Alpha  occ. eigenvalues --  -10.31716 -10.31544 -10.31486 -10.31464 -10.31366
 Alpha  occ. eigenvalues --  -10.30894 -10.30773 -10.30740 -10.30691 -10.30632
 Alpha  occ. eigenvalues --  -10.30586 -10.30495 -10.30401 -10.30125 -10.29988
 Alpha  occ. eigenvalues --  -10.29943 -10.29928 -10.29749 -10.29554 -10.29492
 Alpha  occ. eigenvalues --  -10.29467 -10.29343 -10.29300 -10.29268 -10.29223
 Alpha  occ. eigenvalues --  -10.29192 -10.29107 -10.29009 -10.28854 -10.28840
 Alpha  occ. eigenvalues --  -10.28814 -10.28345 -10.28317 -10.28193 -10.28133
 Alpha  occ. eigenvalues --  -10.28123  -3.19836  -1.93450  -1.92946  -1.92836
 Alpha  occ. eigenvalues --   -1.20179  -1.19366  -1.13800  -1.12041  -1.11055
 Alpha  occ. eigenvalues --   -1.10296  -1.07553  -1.06327  -1.05573  -1.03723
 Alpha  occ. eigenvalues --   -0.94578  -0.92364  -0.91951  -0.90857  -0.90783
 Alpha  occ. eigenvalues --   -0.90150  -0.89964  -0.89597  -0.89174  -0.88475
 Alpha  occ. eigenvalues --   -0.88387  -0.87916  -0.86396  -0.86002  -0.85183
 Alpha  occ. eigenvalues --   -0.84610  -0.84259  -0.83667  -0.82921  -0.82351
 Alpha  occ. eigenvalues --   -0.81821  -0.80406  -0.80207  -0.79281  -0.78201
 Alpha  occ. eigenvalues --   -0.78093  -0.77371  -0.76919  -0.76319  -0.75859
 Alpha  occ. eigenvalues --   -0.75392  -0.74317  -0.73697  -0.72630  -0.71272
 Alpha  occ. eigenvalues --   -0.70742  -0.69918  -0.69187  -0.68824  -0.67766
 Alpha  occ. eigenvalues --   -0.67660  -0.67390  -0.66782  -0.66310  -0.66204
 Alpha  occ. eigenvalues --   -0.65360  -0.64729  -0.64041  -0.63966  -0.62720
 Alpha  occ. eigenvalues --   -0.61932  -0.61637  -0.61392  -0.60493  -0.59824
 Alpha  occ. eigenvalues --   -0.59340  -0.58977  -0.58399  -0.57999  -0.57894
 Alpha  occ. eigenvalues --   -0.57386  -0.57204  -0.56997  -0.56556  -0.56446
 Alpha  occ. eigenvalues --   -0.55840  -0.55691  -0.55328  -0.55182  -0.54923
 Alpha  occ. eigenvalues --   -0.54528  -0.54257  -0.53986  -0.53937  -0.53712
 Alpha  occ. eigenvalues --   -0.53596  -0.53388  -0.52993  -0.52883  -0.52627
 Alpha  occ. eigenvalues --   -0.52348  -0.52217  -0.52028  -0.51695  -0.51610
 Alpha  occ. eigenvalues --   -0.51336  -0.51235  -0.50971  -0.50796  -0.50724
 Alpha  occ. eigenvalues --   -0.50574  -0.50395  -0.50167  -0.50068  -0.49905
 Alpha  occ. eigenvalues --   -0.49586  -0.49200  -0.48857  -0.48849  -0.48552
 Alpha  occ. eigenvalues --   -0.48443  -0.48358  -0.48211  -0.47776  -0.47714
 Alpha  occ. eigenvalues --   -0.47551  -0.47297  -0.47175  -0.47009  -0.46666
 Alpha  occ. eigenvalues --   -0.46359  -0.46290  -0.45969  -0.45845  -0.45703
 Alpha  occ. eigenvalues --   -0.45501  -0.45363  -0.45203  -0.45181  -0.45096
 Alpha  occ. eigenvalues --   -0.44890  -0.44846  -0.44424  -0.44200  -0.44172
 Alpha  occ. eigenvalues --   -0.44040  -0.43989  -0.43704  -0.43518  -0.43043
 Alpha  occ. eigenvalues --   -0.42984  -0.42622  -0.42541  -0.42412  -0.41878
 Alpha  occ. eigenvalues --   -0.41752  -0.41698  -0.41322  -0.41124  -0.40809
 Alpha  occ. eigenvalues --   -0.40460  -0.40032  -0.39780  -0.39499  -0.39379
 Alpha  occ. eigenvalues --   -0.38907  -0.38749  -0.38541  -0.38415  -0.38240
 Alpha  occ. eigenvalues --   -0.37983  -0.37078  -0.36679  -0.36615  -0.36406
 Alpha  occ. eigenvalues --   -0.36296  -0.35657  -0.35262  -0.33238  -0.33035
 Alpha  occ. eigenvalues --   -0.32755  -0.32121  -0.31635  -0.31581  -0.25672
 Alpha  occ. eigenvalues --   -0.22631
 Alpha virt. eigenvalues --   -0.06582   0.00270   0.02583   0.04634   0.06943
 Alpha virt. eigenvalues --    0.07100   0.07710   0.07916   0.09009   0.09578
 Alpha virt. eigenvalues --    0.10227   0.10729   0.11270   0.11502   0.12099

 Mulliken charges:
               1
     1  Mg   0.980463
     2  C   -0.052206
     3  C   -0.088756
     4  C   -0.072456
     5  C   -0.096539
     6  N   -0.339553
     7  C    0.007579
     8  C   -0.063590
     9  C   -0.109518
    10  C    0.047035
    11  C    0.052711
    12  C    0.079434
    13  C   -0.056295
    14  C    0.221797
    15  O   -0.252381
    16  O   -0.346192
    17  N   -0.482739
    18  C    0.176817
    19  C   -0.158842
    20  C   -0.079949
    21  C    0.169670
    22  C    0.052043
    23  C    0.047246
    24  O   -0.221179
    25  C   -0.004181
    26  N   -0.376575
    27  C    0.016886
    28  C   -0.066114
    29  C   -0.094435
    30  C    0.063083
    31  C    0.049093
    32  C   -0.015123
    33  C   -0.048006
    34  N   -0.409674
    35  C    0.159532
    36  C   -0.218072
    37  C   -0.023056
    38  C    0.150503
    39  C    0.080176
    40  C    0.145534
    41  O   -0.204370
    42  C   -0.091716
    43  C    0.232909
    44  O   -0.231589
    45  O   -0.345802
    46  C    0.134973
    47  C    0.267251
    48  C   -0.152758
    49  C   -0.236424
    50  C    0.043798
    51  C    0.062251
    52  C   -0.057177
    53  C    0.021349
    54  C   -0.199780
    55  C    0.017857
    56  C    0.012278
    57  C   -0.031263
    58  C   -0.029160
    59  C   -0.231394
    60  C    0.016625
    61  C    0.045142
    62  C   -0.032975
    63  C   -0.017959
    64  C   -0.223846
    65  C    0.010877
    66  C   -0.007057
    67  H   -0.011306
    68  H    0.029989
    69  H   -0.013689
    70  H    0.022097
    71  H    0.020477
    72  H    0.031781
    73  H    0.040436
    74  H    0.046153
    75  H    0.032045
    76  H    0.069511
    77  H    0.046994
    78  H    0.054789
    79  H    0.051282
    80  H    0.039790
    81  H    0.028960
    82  H    0.043031
    83  H    0.054014
    84  H    0.071310
    85  H    0.038452
    86  H    0.046801
    87  H    0.032843
    88  H    0.035004
    89  H    0.040518
    90  H    0.035934
    91  H    0.018272
    92  H    0.025243
    93  H    0.050050
    94  H    0.047798
    95  H    0.060760
    96  H    0.028222
    97  H    0.061107
    98  H    0.064264
    99  H    0.039425
   100  H    0.069447
   101  H    0.058298
   102  H    0.065950
   103  H    0.047625
   104  H    0.024017
   105  H    0.053052
   106  H    0.036552
   107  H    0.019705
   108  H    0.038243
   109  H    0.014712
   110  H    0.014979
   111  H    0.020368
   112  H    0.015069
   113  H    0.016711
   114  H    0.014268
   115  H    0.033711
   116  H    0.019992
   117  H    0.023902
   118  H    0.003362
   119  H    0.007758
   120  H    0.038552
   121  H    0.023981
   122  H    0.009092
   123  H    0.017007
   124  H    0.024264
   125  H    0.037422
   126  H    0.012387
   127  H    0.032270
   128  H    0.030772
   129  H    0.019656
   130  H    0.018997
   131  H    0.017076
   132  H    0.020593
   133  H    0.021010
   134  H    0.026267
   135  H    0.018991
   136  H    0.035112
   137  H    0.033997
   138  H    0.027134
   139  H    0.023879
   140  H    0.035256
 Sum of Mulliken charges =  -0.00000

 Dipole moment (field-independent basis, Debye):
    X=             -2.2377    Y=              3.0870    Z=             -3.3010  Tot=              5.0432
 Quadrupole moment (field-independent basis, Debye-Ang):
   XX=           -364.6118   YY=           -412.7760   ZZ=           -402.7386
   XY=              8.1757   XZ=             -1.2424   YZ=             -5.8689

 Normal termination of Gaussian 16 at Thu May  5 08:59:16 2022.
