 Gaussian 16, Revision A.03,
 Gaussian 16:  ES64L-G16RevA.03 25-Dec-2016

 --------------------
 #p ZINDO=(nstates=5)
 --------------------

 -----------------------------
 step_751_chromophore_22 ZINDO
 -----------------------------
 Symbolic Z-matrix:
 Charge =  0 Multiplicity = 1

                         Standard orientation:
 ---------------------------------------------------------------------
 Center     Atomic      Atomic             Coordinates (Angstroms)
 Number     Number       Type             X           Y           Z
 ---------------------------------------------------------------------
      1         12           0        6.272496    0.432299   -0.226828
      2          6           0        4.166888   -2.337402   -0.609147
      3          6           0        3.904608    2.339915   -1.718144
      4          6           0        8.137365    3.160700    0.671404
      5          6           0        8.780762   -1.711046    0.658833
      6          7           0        4.297117    0.042148   -1.032287
      7          6           0        3.576180   -1.116764   -1.070777
      8          6           0        2.115267   -0.895442   -1.520508
      9          6           0        2.286760    0.441293   -2.240864
     10          6           0        3.543588    1.008268   -1.604186
     11          6           0        2.556956    0.443562   -3.727217
     12          6           0        1.074794   -0.817790   -0.325730
     13          6           0       -0.383589   -0.523763   -0.683992
     14          6           0       -1.653322   -1.036165    0.093213
     15          8           0       -1.696347   -1.439843    1.241121
     16          8           0       -2.718869   -1.088114   -0.752303
     17          7           0        6.036225    2.449960   -0.500237
     18          6           0        4.982454    3.052844   -1.124135
     19          6           0        5.157504    4.505554   -1.001010
     20          6           0        6.404609    4.750571   -0.301122
     21          6           0        6.920178    3.416730   -0.005182
     22          6           0        4.233484    5.569253   -1.536955
     23          6           0        7.174729    6.055104   -0.052712
     24          8           0        8.196234    6.064267    0.577160
     25          6           0        6.768585    7.289867   -0.652782
     26          7           0        8.255593    0.729612    0.471712
     27          6           0        8.800448    1.907940    0.813661
     28          6           0       10.179273    1.663563    1.380272
     29          6           0       10.404802    0.117327    1.328444
     30          6           0        9.043305   -0.329670    0.894675
     31          6           0       11.320167    2.468537    0.768297
     32          6           0       10.935582   -0.661002    2.610971
     33          6           0       12.170197   -1.591738    2.430343
     34          7           0        6.542652   -1.621576   -0.221344
     35          6           0        7.604406   -2.311055    0.228589
     36          6           0        7.224345   -3.675282    0.254121
     37          6           0        5.890127   -3.755274   -0.005525
     38          6           0        5.519261   -2.474219   -0.302344
     39          6           0        8.044645   -4.836792    0.503627
     40          6           0        4.739253   -4.657605   -0.079024
     41          8           0        4.541809   -5.843856    0.158047
     42          6           0        3.537877   -3.758552   -0.498323
     43          6           0        2.586238   -3.838085    0.625496
     44          8           0        2.649102   -3.279116    1.682414
     45          8           0        1.564524   -4.611088    0.240244
     46          6           0        0.428718   -4.844033    1.087715
     47          6           0       -3.948242   -1.562562   -0.183591
     48          6           0       -5.136376   -1.220341   -1.075978
     49          6           0       -6.472187   -1.567321   -1.001516
     50          6           0       -7.069591   -2.532111    0.000370
     51          6           0       -7.361777   -1.249426   -2.179254
     52          6           0       -8.447638   -0.238351   -1.795401
     53          6           0       -9.829540   -0.402075   -2.514240
     54          6           0      -10.949772   -0.791229   -1.507350
     55          6           0      -12.113149   -1.494903   -2.223472
     56          6           0      -11.425151    0.359596   -0.611464
     57          6           0      -11.032655    0.220450    0.905260
     58          6           0      -10.563292    1.595069    1.574813
     59          6           0      -11.776926    2.287718    2.435580
     60          6           0      -11.283564    3.102050    3.678294
     61          6           0      -12.853702    2.952837    1.456461
     62          6           0      -14.298071    2.484798    1.786282
     63          6           0      -15.072339    1.842155    0.554259
     64          6           0      -15.482800    0.319093    0.731429
     65          6           0      -16.393695   -0.050196   -0.463309
     66          6           0      -16.138282    0.046160    2.103782
     67          1           0        3.114389    2.955923   -2.153090
     68          1           0        8.771784    3.936057    1.105511
     69          1           0        9.564963   -2.397089    0.985646
     70          1           0        1.792347   -1.705203   -2.175464
     71          1           0        1.392667    1.025620   -2.021923
     72          1           0        1.701196    0.795023   -4.304421
     73          1           0        2.808604   -0.583488   -3.992493
     74          1           0        3.321272    1.142519   -4.067091
     75          1           0        1.394036    0.086433    0.193490
     76          1           0        1.144285   -1.682677    0.334030
     77          1           0       -0.532790   -0.661592   -1.754803
     78          1           0       -0.642439    0.534294   -0.643811
     79          1           0        4.527206    6.248335   -2.337067
     80          1           0        4.027211    6.268615   -0.727536
     81          1           0        3.315409    5.084432   -1.868447
     82          1           0        6.433673    7.197722   -1.685325
     83          1           0        7.670802    7.884855   -0.788003
     84          1           0        6.022400    7.744269   -0.000271
     85          1           0       10.049089    1.998526    2.409245
     86          1           0       11.000473   -0.225147    0.482576
     87          1           0       10.842718    3.303329    0.256251
     88          1           0       11.846241    1.869338    0.025004
     89          1           0       11.943897    2.938488    1.529081
     90          1           0       10.120863   -1.158543    3.136061
     91          1           0       11.154627    0.131693    3.324960
     92          1           0       12.059416   -1.725684    1.354453
     93          1           0       12.156588   -2.552763    2.945375
     94          1           0       13.117564   -1.091445    2.631986
     95          1           0        7.472837   -5.395101    1.244655
     96          1           0        9.044764   -4.633607    0.887562
     97          1           0        8.038167   -5.372297   -0.445698
     98          1           0        2.929541   -4.137655   -1.319305
     99          1           0       -0.370702   -5.238833    0.460174
    100          1           0        0.077059   -3.896234    1.494504
    101          1           0        0.607054   -5.641158    1.809298
    102          1           0       -4.176654   -1.203409    0.819590
    103          1           0       -3.971049   -2.651007   -0.127563
    104          1           0       -4.928761   -0.549271   -1.909038
    105          1           0       -7.362599   -3.535946   -0.309149
    106          1           0       -7.911392   -1.980859    0.419275
    107          1           0       -6.308952   -2.745354    0.751464
    108          1           0       -7.719308   -2.144692   -2.688485
    109          1           0       -6.752630   -0.717530   -2.909646
    110          1           0       -8.081784    0.755043   -2.055052
    111          1           0       -8.588392   -0.103582   -0.722239
    112          1           0       -9.873664   -1.133551   -3.320320
    113          1           0      -10.022022    0.587914   -2.927789
    114          1           0      -10.439793   -1.485443   -0.840794
    115          1           0      -13.059879   -0.956416   -2.175300
    116          1           0      -12.305361   -2.401607   -1.650174
    117          1           0      -11.840485   -1.848520   -3.217266
    118          1           0      -12.494931    0.523810   -0.735996
    119          1           0      -11.014659    1.268906   -1.050189
    120          1           0      -10.338252   -0.589072    1.131534
    121          1           0      -12.019043    0.056599    1.338277
    122          1           0      -10.312916    2.231871    0.726353
    123          1           0       -9.585352    1.552097    2.054411
    124          1           0      -12.186479    1.428360    2.966661
    125          1           0      -11.603329    4.144155    3.699505
    126          1           0      -10.205050    3.023469    3.541981
    127          1           0      -11.426613    2.536915    4.599182
    128          1           0      -12.522385    2.763423    0.434932
    129          1           0      -12.784398    3.990515    1.781859
    130          1           0      -14.889155    3.329257    2.142257
    131          1           0      -14.260064    1.846440    2.668946
    132          1           0      -14.385219    1.900891   -0.289319
    133          1           0      -15.965082    2.429937    0.340695
    134          1           0      -14.535557   -0.219422    0.720590
    135          1           0      -17.024369   -0.894285   -0.182519
    136          1           0      -15.747062   -0.406735   -1.265209
    137          1           0      -17.068261    0.761716   -0.732417
    138          1           0      -15.407729   -0.392776    2.781750
    139          1           0      -16.925572   -0.706529    2.057487
    140          1           0      -16.521870    0.956590    2.564554
 ---------------------------------------------------------------------

 SCF Done:  E(RZINDO/S) =  -474.581000012     A.U. after   20 cycles

 Excitation energies and oscillator strengths:

 Excited State   1:      Singlet-A      1.2367 eV 1002.58 nm  f=0.5793  <S**2>=0.000
     175 ->178        -0.19969
     176 ->177         0.66117
 This state for optimization and/or second-order correction.
 Total Energy, E(CIS/TDA) =  -474.535553928
 Copying the excited state density for this state as the 1-particle RhoCI density.

 Excited State   2:      Singlet-A      1.9197 eV  645.85 nm  f=0.0270  <S**2>=0.000
     175 ->177         0.53406
     176 ->178         0.44183

 Excited State   3:      Singlet-A      2.9561 eV  419.42 nm  f=0.0705  <S**2>=0.000
     168 ->177         0.11477
     168 ->179         0.14303
     168 ->180         0.16356
     169 ->177        -0.11639
     169 ->180        -0.14725
     170 ->177         0.24518
     170 ->179         0.25026
     170 ->180         0.31749
     170 ->184        -0.10600
     170 ->186         0.16513
     170 ->187        -0.13327
     176 ->178         0.13429

 Excited State   4:      Singlet-A      3.0022 eV  412.97 nm  f=0.3562  <S**2>=0.000
     168 ->179         0.10020
     168 ->180        -0.10463
     169 ->179         0.18505
     175 ->177        -0.23244
     176 ->178         0.32206
     176 ->179         0.42781

 Excited State   5:      Singlet-A      3.0608 eV  405.07 nm  f=0.1068  <S**2>=0.000
     168 ->177         0.17971
     168 ->179        -0.28556
     168 ->180         0.18752
     168 ->186        -0.13418
     169 ->177         0.18167
     169 ->179        -0.25741
     169 ->180         0.17021
     169 ->186        -0.11904
     175 ->177        -0.11645
     176 ->178         0.15740
     176 ->179         0.25437

 The electronic state is 1-A.
 Alpha  occ. eigenvalues --   -1.88795  -1.82593  -1.80552  -1.75488  -1.73716
 Alpha  occ. eigenvalues --   -1.71854  -1.64519  -1.62629  -1.59017  -1.58993
 Alpha  occ. eigenvalues --   -1.52861  -1.50216  -1.49087  -1.48090  -1.46635
 Alpha  occ. eigenvalues --   -1.45025  -1.42995  -1.40800  -1.38466  -1.37202
 Alpha  occ. eigenvalues --   -1.35916  -1.35599  -1.32825  -1.31680  -1.28572
 Alpha  occ. eigenvalues --   -1.28386  -1.25501  -1.22440  -1.21770  -1.19087
 Alpha  occ. eigenvalues --   -1.17918  -1.16706  -1.16205  -1.15468  -1.12348
 Alpha  occ. eigenvalues --   -1.11354  -1.10493  -1.10108  -1.04898  -1.03008
 Alpha  occ. eigenvalues --   -1.02601  -1.00884  -0.98307  -0.97765  -0.97169
 Alpha  occ. eigenvalues --   -0.96798  -0.94676  -0.93303  -0.92636  -0.91319
 Alpha  occ. eigenvalues --   -0.90931  -0.90616  -0.89206  -0.88661  -0.86097
 Alpha  occ. eigenvalues --   -0.85677  -0.84550  -0.83166  -0.82799  -0.79853
 Alpha  occ. eigenvalues --   -0.79615  -0.79064  -0.78408  -0.76006  -0.75764
 Alpha  occ. eigenvalues --   -0.75039  -0.74358  -0.73076  -0.72601  -0.72440
 Alpha  occ. eigenvalues --   -0.72062  -0.71442  -0.71366  -0.70665  -0.70200
 Alpha  occ. eigenvalues --   -0.70100  -0.69303  -0.68722  -0.68342  -0.67928
 Alpha  occ. eigenvalues --   -0.67853  -0.67465  -0.66983  -0.65999  -0.65500
 Alpha  occ. eigenvalues --   -0.65390  -0.65184  -0.64945  -0.64460  -0.63891
 Alpha  occ. eigenvalues --   -0.63518  -0.63101  -0.62685  -0.62391  -0.61801
 Alpha  occ. eigenvalues --   -0.61506  -0.61432  -0.61228  -0.60818  -0.59838
 Alpha  occ. eigenvalues --   -0.59660  -0.59076  -0.58683  -0.58489  -0.58082
 Alpha  occ. eigenvalues --   -0.57787  -0.57598  -0.57155  -0.56777  -0.56247
 Alpha  occ. eigenvalues --   -0.55960  -0.55617  -0.55275  -0.54586  -0.53837
 Alpha  occ. eigenvalues --   -0.53516  -0.53368  -0.53251  -0.52897  -0.52744
 Alpha  occ. eigenvalues --   -0.52113  -0.52042  -0.51967  -0.51767  -0.51436
 Alpha  occ. eigenvalues --   -0.50912  -0.50745  -0.50554  -0.50369  -0.50312
 Alpha  occ. eigenvalues --   -0.50070  -0.49603  -0.49483  -0.49215  -0.48985
 Alpha  occ. eigenvalues --   -0.48836  -0.48249  -0.47949  -0.47525  -0.47197
 Alpha  occ. eigenvalues --   -0.47030  -0.47000  -0.46748  -0.46532  -0.46331
 Alpha  occ. eigenvalues --   -0.46046  -0.45792  -0.45578  -0.45533  -0.45109
 Alpha  occ. eigenvalues --   -0.44759  -0.44672  -0.44443  -0.44314  -0.43792
 Alpha  occ. eigenvalues --   -0.43353  -0.43253  -0.42625  -0.42550  -0.42264
 Alpha  occ. eigenvalues --   -0.41796  -0.41148  -0.40657  -0.38849  -0.38465
 Alpha  occ. eigenvalues --   -0.37397  -0.36785  -0.35176  -0.34920  -0.34626
 Alpha  occ. eigenvalues --   -0.32856  -0.32342  -0.31747  -0.31482  -0.26267
 Alpha  occ. eigenvalues --   -0.21359
 Alpha virt. eigenvalues --   -0.08072  -0.01878  -0.00141   0.01668   0.02065
 Alpha virt. eigenvalues --    0.03025   0.03590   0.04149   0.04204   0.05221
 Alpha virt. eigenvalues --    0.06353   0.07097   0.07522   0.07777   0.08265

 Mulliken charges:
               1
     1  Mg   0.421985
     2  C   -0.058213
     3  C   -0.094937
     4  C   -0.060800
     5  C   -0.064385
     6  N   -0.284358
     7  C    0.116349
     8  C    0.007926
     9  C    0.012989
    10  C    0.151801
    11  C   -0.044504
    12  C   -0.017233
    13  C    0.000977
    14  C    0.467081
    15  O   -0.511856
    16  O   -0.260707
    17  N   -0.326998
    18  C    0.121631
    19  C   -0.003685
    20  C   -0.058589
    21  C    0.130052
    22  C   -0.045683
    23  C    0.344778
    24  O   -0.521897
    25  C   -0.025552
    26  N   -0.262368
    27  C    0.139127
    28  C    0.017238
    29  C   -0.001793
    30  C    0.101346
    31  C   -0.052974
    32  C   -0.033000
    33  C   -0.061538
    34  N   -0.322428
    35  C    0.095572
    36  C    0.053444
    37  C   -0.058579
    38  C    0.130526
    39  C   -0.043430
    40  C    0.339739
    41  O   -0.520329
    42  C    0.044425
    43  C    0.502877
    44  O   -0.529964
    45  O   -0.273611
    46  C    0.076805
    47  C    0.114253
    48  C   -0.091565
    49  C   -0.021888
    50  C   -0.047246
    51  C   -0.015492
    52  C   -0.034881
    53  C   -0.038848
    54  C   -0.013287
    55  C   -0.061481
    56  C   -0.035600
    57  C   -0.044821
    58  C   -0.053031
    59  C   -0.029754
    60  C   -0.064605
    61  C   -0.035579
    62  C   -0.043086
    63  C   -0.041039
    64  C   -0.012561
    65  C   -0.056273
    66  C   -0.055703
    67  H    0.015142
    68  H    0.053236
    69  H    0.024273
    70  H    0.023125
    71  H    0.022577
    72  H    0.013734
    73  H    0.023631
    74  H    0.027850
    75  H    0.025312
    76  H    0.050952
    77  H    0.028784
    78  H    0.036498
    79  H    0.033721
    80  H    0.023912
    81  H    0.018647
    82  H    0.026048
    83  H    0.035184
    84  H    0.050340
    85  H    0.032593
    86  H    0.039167
    87  H    0.021129
    88  H    0.026493
    89  H    0.026260
    90  H    0.026047
    91  H    0.009172
    92  H    0.019195
    93  H    0.029809
    94  H    0.023984
    95  H    0.037811
    96  H    0.021797
    97  H    0.039071
    98  H    0.060155
    99  H    0.021525
   100  H    0.052403
   101  H    0.048349
   102  H    0.058043
   103  H    0.045996
   104  H    0.027466
   105  H    0.033984
   106  H    0.030338
   107  H    0.013896
   108  H    0.031562
   109  H    0.013087
   110  H    0.009348
   111  H    0.025470
   112  H    0.023632
   113  H    0.015532
   114  H    0.017390
   115  H    0.025293
   116  H    0.007467
   117  H    0.022270
   118  H    0.020457
   119  H    0.013853
   120  H    0.032607
   121  H    0.019198
   122  H    0.009405
   123  H    0.025306
   124  H    0.015048
   125  H    0.030239
   126  H    0.014447
   127  H    0.024138
   128  H    0.037425
   129  H    0.021858
   130  H    0.012593
   131  H    0.025341
   132  H    0.017597
   133  H    0.022268
   134  H    0.023053
   135  H    0.011892
   136  H    0.019763
   137  H    0.027779
   138  H    0.013602
   139  H    0.016213
   140  H    0.022447
 Sum of Mulliken charges =  -0.00000

 Dipole moment (field-independent basis, Debye):
    X=             -2.8243    Y=              4.8185    Z=             -6.0219  Tot=              8.2133
 N-N= 4.214524667308D+03 E-N= 0.000000000000D+00  KE=-9.104154290150D+03
 Leave Link  601 at Thu May  5 09:16:50 2022, MaxMem=  6710886400 cpu:               1.5 elap:               0.1
 (Enter /sw/apps/gaussian-16.0/g16/l9999.exe)
 1\1\GINC-BP1-COMPUTE179\SP\RZINDO CIS\STO-3G\C55H74Mg1N4O6\OF15641\05-
 May-2022\0\\#p ZINDO=(nstates=5)\\step_751_chromophore_22 ZINDO\\0,1\M
 g,0,8.749,47.441,24.733\C,0,6.486,47.885,27.366\C,0,11.217,48.548,26.7
 71\C,0,10.964,46.468,22.309\C,0,6.087,46.968,22.645\N,0,8.828,48.105,2
 6.796\C,0,7.838,48.184,27.733\C,0,8.379,48.485,29.148\C,0,9.726,49.096
 ,28.764\C,0,9.974,48.522,27.38\C,0,9.831,50.594,28.599\C,0,8.529,47.20
 3,30.07\C,0,9.131,47.407,31.462\C,0,8.792,46.572,32.753\O,0,8.287,45.4

 Normal termination of Gaussian 16 at Thu May  5 09:16:50 2022.
