 Gaussian 16, Revision A.03,
 Gaussian 16:  ES64L-G16RevA.03 25-Dec-2016

 ------------------------------
 #p blyp/Def2SVP td=(nstates=5)
 ------------------------------

 --------------------------------------------------
 step_1351_chromophore_4 TDDFT with blyp functional
 --------------------------------------------------
 Symbolic Z-matrix:
 Charge =  0 Multiplicity = 1

                         Standard orientation:
 ---------------------------------------------------------------------
 Center     Atomic      Atomic             Coordinates (Angstroms)
 Number     Number       Type             X           Y           Z
 ---------------------------------------------------------------------
      1         12           0        5.809326    0.466545    0.147856
      2          6           0        3.499180   -2.174723   -0.119528
      3          6           0        3.232373    2.747711   -0.437608
      4          6           0        8.145102    2.887396   -0.169566
      5          6           0        8.351478   -2.002512    0.271944
      6          7           0        3.675761    0.280016   -0.478676
      7          6           0        2.947866   -0.911665   -0.317580
      8          6           0        1.429637   -0.623585   -0.418427
      9          6           0        1.430568    0.939961   -0.848996
     10          6           0        2.921155    1.419656   -0.505862
     11          6           0        0.972047    1.282143   -2.305998
     12          6           0        0.636598   -0.963400    0.814910
     13          6           0       -0.835747   -0.431448    0.888508
     14          6           0       -1.841823   -1.530541    1.249971
     15          8           0       -1.904346   -2.177049    2.299974
     16          8           0       -2.736080   -1.818793    0.301859
     17          7           0        5.710552    2.569012   -0.255098
     18          6           0        4.560554    3.259923   -0.403598
     19          6           0        4.974565    4.664803   -0.450671
     20          6           0        6.348967    4.792448   -0.187869
     21          6           0        6.781758    3.410432   -0.199087
     22          6           0        4.032769    5.761461   -0.785384
     23          6           0        7.333465    6.013287   -0.170219
     24          8           0        8.528730    5.911402   -0.109416
     25          6           0        6.668492    7.452688   -0.194111
     26          7           0        7.949276    0.447444   -0.003871
     27          6           0        8.696886    1.612790   -0.056298
     28          6           0       10.214273    1.265506    0.020314
     29          6           0       10.201583   -0.241513    0.292525
     30          6           0        8.757113   -0.613399    0.221677
     31          6           0       11.033406    1.759652   -1.323563
     32          6           0       10.919856   -0.634406    1.628688
     33          6           0       12.373062   -0.168986    1.865756
     34          7           0        5.921221   -1.670154    0.115005
     35          6           0        7.017374   -2.472585    0.222018
     36          6           0        6.656131   -3.803467    0.544639
     37          6           0        5.286168   -3.790968    0.366977
     38          6           0        4.875996   -2.458086    0.143189
     39          6           0        7.487818   -4.990361    0.824925
     40          6           0        4.065650   -4.579838    0.367933
     41          8           0        3.899363   -5.769797    0.602568
     42          6           0        2.807099   -3.609551    0.010287
     43          6           0        2.202144   -3.881209   -1.295588
     44          8           0        2.644729   -3.583999   -2.392693
     45          8           0        1.122673   -4.560248   -1.022662
     46          6           0        0.109525   -4.762564   -2.036285
     47          6           0       -3.710706   -2.884611    0.456981
     48          6           0       -5.133494   -2.357454    0.570818
     49          6           0       -6.281401   -3.008147    0.598693
     50          6           0       -6.245523   -4.460752    0.289929
     51          6           0       -7.530897   -2.217276    0.851893
     52          6           0       -8.260864   -1.566634   -0.284330
     53          6           0       -7.808612   -0.116235   -0.615673
     54          6           0       -9.144438    0.781442   -0.474570
     55          6           0       -9.942749    0.815841   -1.820044
     56          6           0       -8.749758    2.288020   -0.114264
     57          6           0       -9.298404    2.599819    1.303181
     58          6           0      -10.824441    3.073989    1.180447
     59          6           0      -11.754807    2.322962    2.147491
     60          6           0      -11.669967    3.046572    3.513732
     61          6           0      -13.207163    2.263326    1.654445
     62          6           0      -13.495186    1.106028    0.759470
     63          6           0      -14.587721    1.381277   -0.312850
     64          6           0      -14.545834    0.365741   -1.527024
     65          6           0      -14.714878    1.012903   -2.841479
     66          6           0      -15.578163   -0.733508   -1.401495
     67          1           0        2.461166    3.517742   -0.513568
     68          1           0        8.982909    3.575735   -0.291756
     69          1           0        9.018351   -2.777953    0.654133
     70          1           0        1.061490   -1.176582   -1.282330
     71          1           0        0.735640    1.438090   -0.172825
     72          1           0        0.412038    2.217091   -2.285046
     73          1           0        0.171492    0.572652   -2.514543
     74          1           0        1.734611    1.274135   -3.084198
     75          1           0        1.257087   -0.591702    1.629421
     76          1           0        0.733662   -2.040702    0.954005
     77          1           0       -1.117616   -0.092502   -0.108489
     78          1           0       -0.848650    0.448650    1.531007
     79          1           0        4.016702    6.425063    0.078532
     80          1           0        3.054184    5.309177   -0.950915
     81          1           0        4.349834    6.331664   -1.659391
     82          1           0        5.923911    7.659398    0.574437
     83          1           0        6.166312    7.688099   -1.132923
     84          1           0        7.482898    8.159016   -0.028498
     85          1           0       10.620947    1.783104    0.890007
     86          1           0       10.755062   -0.643083   -0.556397
     87          1           0       10.430700    2.114438   -2.159488
     88          1           0       11.739971    0.975840   -1.597057
     89          1           0       11.593491    2.648884   -1.033963
     90          1           0       11.021707   -1.717829    1.558793
     91          1           0       10.236586   -0.382572    2.440105
     92          1           0       12.491805    0.280324    2.850793
     93          1           0       12.720760    0.541189    1.115191
     94          1           0       13.072687   -0.998457    1.759463
     95          1           0        8.322304   -4.919219    1.522310
     96          1           0        8.017174   -5.331908   -0.064199
     97          1           0        6.788893   -5.747049    1.181434
     98          1           0        2.005136   -3.673307    0.746100
     99          1           0        0.097796   -5.834265   -2.234691
    100          1           0        0.345195   -4.335315   -3.011434
    101          1           0       -0.806619   -4.282589   -1.692537
    102          1           0       -3.638294   -3.620141    1.258278
    103          1           0       -3.688968   -3.458276   -0.469753
    104          1           0       -5.134123   -1.279948    0.732898
    105          1           0       -5.537241   -4.692518   -0.505814
    106          1           0       -7.255900   -4.677481   -0.058433
    107          1           0       -6.080228   -5.229934    1.044475
    108          1           0       -7.211971   -1.495490    1.603954
    109          1           0       -8.187992   -2.894418    1.397906
    110          1           0       -9.339277   -1.647049   -0.147960
    111          1           0       -8.165079   -2.210918   -1.158680
    112          1           0       -7.401450   -0.124887   -1.627743
    113          1           0       -7.107556    0.140263    0.177763
    114          1           0       -9.835711    0.371612    0.261842
    115          1           0      -11.012340    0.644029   -1.700486
    116          1           0       -9.523768   -0.001058   -2.408631
    117          1           0       -9.721082    1.678759   -2.447547
    118          1           0       -9.099690    3.059725   -0.800965
    119          1           0       -7.671609    2.450399   -0.115464
    120          1           0       -8.765499    3.399802    1.818483
    121          1           0       -9.299531    1.748203    1.984091
    122          1           0      -11.218238    2.896657    0.179178
    123          1           0      -10.916209    4.126891    1.445002
    124          1           0      -11.448580    1.285596    2.282317
    125          1           0      -10.641214    3.110688    3.867899
    126          1           0      -12.216959    2.448285    4.242374
    127          1           0      -12.100193    4.045501    3.445176
    128          1           0      -13.469371    3.201659    1.166151
    129          1           0      -13.792521    2.016922    2.539839
    130          1           0      -13.664282    0.170800    1.293333
    131          1           0      -12.574035    0.976107    0.191349
    132          1           0      -14.606544    2.428506   -0.614462
    133          1           0      -15.526141    1.243878    0.224229
    134          1           0      -13.538325   -0.037977   -1.631504
    135          1           0      -15.152519    0.414205   -3.640675
    136          1           0      -13.758371    1.247796   -3.308373
    137          1           0      -15.261279    1.945279   -2.983444
    138          1           0      -15.952485   -0.795391   -0.380296
    139          1           0      -14.987832   -1.627143   -1.606336
    140          1           0      -16.345832   -0.699189   -2.174514
 ---------------------------------------------------------------------

 SCF Done:  E(RB-LYP) =  -3007.36780028     A.U. after   21 cycles

 Excitation energies and oscillator strengths:

 Excited State   1:      Singlet-A      1.7940 eV  691.12 nm  f=0.3224  <S**2>=0.000
     245 -> 248        0.16139
     246 -> 247        0.69680
     246 <- 247       -0.16274
 This state for optimization and/or second-order correction.
 Total Energy, E(TD-HF/TD-DFT) =  -3007.30187341
 Copying the excited state density for this state as the 1-particle RhoCI density.

 Excited State   2:      Singlet-A      1.9385 eV  639.59 nm  f=0.0079  <S**2>=0.000
     244 -> 247        0.67349
     245 -> 247        0.20556

 Excited State   3:      Singlet-A      2.0275 eV  611.50 nm  f=0.0823  <S**2>=0.000
     244 -> 247       -0.21304
     245 -> 247        0.62299
     246 -> 248       -0.21010
     246 -> 249        0.10316

 Excited State   4:      Singlet-A      2.2318 eV  555.54 nm  f=0.0004  <S**2>=0.000
     243 -> 247        0.70371

 Excited State   5:      Singlet-A      2.3302 eV  532.07 nm  f=0.0000  <S**2>=0.000
     242 -> 247        0.70703

 The electronic state is 1-A.
 Alpha  occ. eigenvalues --  -46.27960 -18.82859 -18.82340 -18.77037 -18.75800
 Alpha  occ. eigenvalues --  -18.75650 -18.75542 -14.03240 -14.03215 -14.01107
 Alpha  occ. eigenvalues --  -14.00347 -10.04422 -10.02948 -10.01282  -9.99856
 Alpha  occ. eigenvalues --   -9.98549  -9.97978  -9.96893  -9.96673  -9.96562
 Alpha  occ. eigenvalues --   -9.96246  -9.95974  -9.95469  -9.94880  -9.94750
 Alpha  occ. eigenvalues --   -9.94114  -9.94042  -9.94015  -9.93815  -9.93726
 Alpha  occ. eigenvalues --   -9.93578  -9.93525  -9.93429  -9.93268  -9.93182
 Alpha  occ. eigenvalues --   -9.93077  -9.93075  -9.92898  -9.92825  -9.92692
 Alpha  occ. eigenvalues --   -9.92664  -9.92520  -9.92433  -9.92319  -9.92265
 Alpha  occ. eigenvalues --   -9.92261  -9.92254  -9.92214  -9.92114  -9.92079
 Alpha  occ. eigenvalues --   -9.91836  -9.91764  -9.91501  -9.91331  -9.91325
 Alpha  occ. eigenvalues --   -9.91238  -9.91203  -9.91157  -9.91042  -9.90926
 Alpha  occ. eigenvalues --   -9.90882  -9.90854  -9.90629  -9.90568  -9.90485
 Alpha  occ. eigenvalues --   -9.90185  -2.92378  -1.72794  -1.72233  -1.72118
 Alpha  occ. eigenvalues --   -0.99734  -0.99246  -0.93540  -0.91098  -0.89792
 Alpha  occ. eigenvalues --   -0.88656  -0.87396  -0.86077  -0.85450  -0.83972
 Alpha  occ. eigenvalues --   -0.74459  -0.74292  -0.73379  -0.72813  -0.72138
 Alpha  occ. eigenvalues --   -0.71989  -0.71386  -0.71239  -0.70870  -0.70302
 Alpha  occ. eigenvalues --   -0.70077  -0.69122  -0.68373  -0.67977  -0.67077
 Alpha  occ. eigenvalues --   -0.66589  -0.66015  -0.65326  -0.65220  -0.64206
 Alpha  occ. eigenvalues --   -0.64059  -0.62809  -0.62691  -0.61830  -0.60935
 Alpha  occ. eigenvalues --   -0.60592  -0.60294  -0.59907  -0.59338  -0.58984
 Alpha  occ. eigenvalues --   -0.58507  -0.57852  -0.56577  -0.55974  -0.54906
 Alpha  occ. eigenvalues --   -0.53920  -0.53724  -0.52564  -0.52224  -0.51218
 Alpha  occ. eigenvalues --   -0.50966  -0.50839  -0.50606  -0.50318  -0.50169
 Alpha  occ. eigenvalues --   -0.49877  -0.49725  -0.48921  -0.48461  -0.46858
 Alpha  occ. eigenvalues --   -0.46393  -0.46152  -0.45679  -0.45486  -0.44850
 Alpha  occ. eigenvalues --   -0.44391  -0.43537  -0.43449  -0.43269  -0.42726
 Alpha  occ. eigenvalues --   -0.42326  -0.41922  -0.41866  -0.41499  -0.41133
 Alpha  occ. eigenvalues --   -0.41020  -0.40599  -0.40342  -0.40311  -0.40154
 Alpha  occ. eigenvalues --   -0.39858  -0.39523  -0.39405  -0.39365  -0.39302
 Alpha  occ. eigenvalues --   -0.39251  -0.38851  -0.38410  -0.38248  -0.37939
 Alpha  occ. eigenvalues --   -0.37746  -0.37570  -0.37398  -0.37214  -0.37075
 Alpha  occ. eigenvalues --   -0.36977  -0.36769  -0.36660  -0.36553  -0.36233
 Alpha  occ. eigenvalues --   -0.36196  -0.36088  -0.36027  -0.35870  -0.35857
 Alpha  occ. eigenvalues --   -0.35655  -0.35260  -0.35178  -0.34902  -0.34879
 Alpha  occ. eigenvalues --   -0.34711  -0.34516  -0.34261  -0.34067  -0.33972
 Alpha  occ. eigenvalues --   -0.33771  -0.33721  -0.33572  -0.33175  -0.33085
 Alpha  occ. eigenvalues --   -0.32911  -0.32682  -0.32560  -0.32335  -0.32195
 Alpha  occ. eigenvalues --   -0.32120  -0.32005  -0.31854  -0.31700  -0.31666
 Alpha  occ. eigenvalues --   -0.31602  -0.31371  -0.31086  -0.31002  -0.30643
 Alpha  occ. eigenvalues --   -0.30448  -0.30389  -0.30152  -0.30061  -0.29783
 Alpha  occ. eigenvalues --   -0.29533  -0.29476  -0.29398  -0.29297  -0.29133
 Alpha  occ. eigenvalues --   -0.28932  -0.28576  -0.28402  -0.27749  -0.27561
 Alpha  occ. eigenvalues --   -0.27522  -0.27283  -0.27086  -0.26984  -0.26442
 Alpha  occ. eigenvalues --   -0.26254  -0.26067  -0.25797  -0.25270  -0.25019
 Alpha  occ. eigenvalues --   -0.24942  -0.24755  -0.24379  -0.23778  -0.23592
 Alpha  occ. eigenvalues --   -0.22797  -0.21986  -0.21327  -0.20981  -0.20933
 Alpha  occ. eigenvalues --   -0.20563  -0.20228  -0.19774  -0.18714  -0.17293
 Alpha  occ. eigenvalues --   -0.15761
 Alpha virt. eigenvalues --   -0.11665  -0.06681  -0.05843  -0.04682  -0.03411
 Alpha virt. eigenvalues --   -0.02991  -0.01632  -0.01350  -0.01233   0.00078
 Alpha virt. eigenvalues --    0.01338   0.01840   0.01900   0.02173   0.02689

 Mulliken charges:
               1
     1  Mg   0.675780
     2  C    0.068583
     3  C   -0.055455
     4  C    0.002763
     5  C   -0.075738
     6  N   -0.235356
     7  C   -0.073701
     8  C   -0.011444
     9  C   -0.042110
    10  C    0.078429
    11  C    0.144519
    12  C    0.121260
    13  C    0.150095
    14  C    0.062360
    15  O   -0.212974
    16  O   -0.234450
    17  N   -0.247943
    18  C    0.108047
    19  C   -0.175411
    20  C    0.029544
    21  C    0.073971
    22  C    0.186409
    23  C   -0.031591
    24  O   -0.124647
    25  C    0.076036
    26  N   -0.224585
    27  C   -0.043608
    28  C    0.014939
    29  C    0.063218
    30  C    0.038432
    31  C    0.098446
    32  C    0.064086
    33  C    0.076509
    34  N   -0.194423
    35  C    0.076792
    36  C   -0.173191
    37  C    0.130408
    38  C   -0.007590
    39  C    0.162373
    40  C   -0.029826
    41  O   -0.129675
    42  C    0.007500
    43  C    0.085962
    44  O   -0.180154
    45  O   -0.219637
    46  C    0.202244
    47  C    0.342656
    48  C   -0.152584
    49  C   -0.140956
    50  C    0.132469
    51  C    0.149266
    52  C    0.096857
    53  C    0.133927
    54  C   -0.110656
    55  C    0.095868
    56  C    0.129740
    57  C    0.058740
    58  C    0.093699
    59  C   -0.103779
    60  C    0.104469
    61  C    0.144811
    62  C    0.044185
    63  C    0.100317
    64  C   -0.057620
    65  C    0.079382
    66  C    0.132171
    67  H   -0.057640
    68  H   -0.051841
    69  H   -0.056432
    70  H   -0.024016
    71  H   -0.040967
    72  H   -0.019063
    73  H   -0.018365
    74  H    0.015746
    75  H   -0.030091
    76  H   -0.004380
    77  H   -0.011289
    78  H    0.017817
    79  H   -0.001356
    80  H   -0.024325
    81  H    0.006976
    82  H    0.005641
    83  H    0.007459
    84  H   -0.006906
    85  H   -0.014956
    86  H   -0.034865
    87  H    0.010879
    88  H   -0.002299
    89  H   -0.001976
    90  H   -0.016151
    91  H   -0.015795
    92  H    0.000809
    93  H   -0.012254
    94  H   -0.011226
    95  H   -0.011313
    96  H    0.000731
    97  H    0.014651
    98  H    0.009125
    99  H    0.024213
   100  H    0.012179
   101  H    0.023307
   102  H    0.020750
   103  H   -0.012727
   104  H   -0.044467
   105  H   -0.014474
   106  H   -0.024510
   107  H    0.005428
   108  H   -0.028285
   109  H   -0.049970
   110  H   -0.035553
   111  H   -0.049360
   112  H   -0.016093
   113  H   -0.019355
   114  H   -0.008096
   115  H    0.006834
   116  H   -0.037424
   117  H   -0.014300
   118  H   -0.029179
   119  H   -0.044904
   120  H   -0.036996
   121  H   -0.022885
   122  H   -0.030853
   123  H   -0.033936
   124  H   -0.042653
   125  H   -0.021807
   126  H   -0.023412
   127  H   -0.014403
   128  H   -0.036848
   129  H   -0.048054
   130  H   -0.027742
   131  H   -0.044554
   132  H   -0.034690
   133  H   -0.039821
   134  H   -0.025303
   135  H   -0.036768
   136  H   -0.035655
   137  H   -0.023901
   138  H   -0.017114
   139  H   -0.027620
   140  H   -0.009483
 Sum of Mulliken charges =  -0.00000

 Dipole moment (field-independent basis, Debye):
    X=             -1.8386    Y=              2.8400    Z=             -0.4031  Tot=              3.4071
 Quadrupole moment (field-independent basis, Debye-Ang):
   XX=           -373.9700   YY=           -420.3868   ZZ=           -414.5678
   XY=              4.0381   XZ=             18.3454   YZ=              4.2418

 Normal termination of Gaussian 16 at Thu Apr 28 01:20:11 2022.
