 Gaussian 16, Revision A.03,
 Gaussian 16:  ES64L-G16RevA.03 25-Dec-2016

 -----------------------------------
 #p cam-b3lyp/Def2SVP td=(nstates=5)
 -----------------------------------

 -------------------------------------------------------
 step_1351_chromophore_4 TDDFT with cam-b3lyp functional
 -------------------------------------------------------
 Symbolic Z-matrix:
 Charge =  0 Multiplicity = 1

                         Standard orientation:
 ---------------------------------------------------------------------
 Center     Atomic      Atomic             Coordinates (Angstroms)
 Number     Number       Type             X           Y           Z
 ---------------------------------------------------------------------
      1         12           0        5.809326    0.466545    0.147856
      2          6           0        3.499180   -2.174723   -0.119528
      3          6           0        3.232373    2.747711   -0.437608
      4          6           0        8.145102    2.887396   -0.169566
      5          6           0        8.351478   -2.002512    0.271944
      6          7           0        3.675761    0.280016   -0.478676
      7          6           0        2.947866   -0.911665   -0.317580
      8          6           0        1.429637   -0.623585   -0.418427
      9          6           0        1.430568    0.939961   -0.848996
     10          6           0        2.921155    1.419656   -0.505862
     11          6           0        0.972047    1.282143   -2.305998
     12          6           0        0.636598   -0.963400    0.814910
     13          6           0       -0.835747   -0.431448    0.888508
     14          6           0       -1.841823   -1.530541    1.249971
     15          8           0       -1.904346   -2.177049    2.299974
     16          8           0       -2.736080   -1.818793    0.301859
     17          7           0        5.710552    2.569012   -0.255098
     18          6           0        4.560554    3.259923   -0.403598
     19          6           0        4.974565    4.664803   -0.450671
     20          6           0        6.348967    4.792448   -0.187869
     21          6           0        6.781758    3.410432   -0.199087
     22          6           0        4.032769    5.761461   -0.785384
     23          6           0        7.333465    6.013287   -0.170219
     24          8           0        8.528730    5.911402   -0.109416
     25          6           0        6.668492    7.452688   -0.194111
     26          7           0        7.949276    0.447444   -0.003871
     27          6           0        8.696886    1.612790   -0.056298
     28          6           0       10.214273    1.265506    0.020314
     29          6           0       10.201583   -0.241513    0.292525
     30          6           0        8.757113   -0.613399    0.221677
     31          6           0       11.033406    1.759652   -1.323563
     32          6           0       10.919856   -0.634406    1.628688
     33          6           0       12.373062   -0.168986    1.865756
     34          7           0        5.921221   -1.670154    0.115005
     35          6           0        7.017374   -2.472585    0.222018
     36          6           0        6.656131   -3.803467    0.544639
     37          6           0        5.286168   -3.790968    0.366977
     38          6           0        4.875996   -2.458086    0.143189
     39          6           0        7.487818   -4.990361    0.824925
     40          6           0        4.065650   -4.579838    0.367933
     41          8           0        3.899363   -5.769797    0.602568
     42          6           0        2.807099   -3.609551    0.010287
     43          6           0        2.202144   -3.881209   -1.295588
     44          8           0        2.644729   -3.583999   -2.392693
     45          8           0        1.122673   -4.560248   -1.022662
     46          6           0        0.109525   -4.762564   -2.036285
     47          6           0       -3.710706   -2.884611    0.456981
     48          6           0       -5.133494   -2.357454    0.570818
     49          6           0       -6.281401   -3.008147    0.598693
     50          6           0       -6.245523   -4.460752    0.289929
     51          6           0       -7.530897   -2.217276    0.851893
     52          6           0       -8.260864   -1.566634   -0.284330
     53          6           0       -7.808612   -0.116235   -0.615673
     54          6           0       -9.144438    0.781442   -0.474570
     55          6           0       -9.942749    0.815841   -1.820044
     56          6           0       -8.749758    2.288020   -0.114264
     57          6           0       -9.298404    2.599819    1.303181
     58          6           0      -10.824441    3.073989    1.180447
     59          6           0      -11.754807    2.322962    2.147491
     60          6           0      -11.669967    3.046572    3.513732
     61          6           0      -13.207163    2.263326    1.654445
     62          6           0      -13.495186    1.106028    0.759470
     63          6           0      -14.587721    1.381277   -0.312850
     64          6           0      -14.545834    0.365741   -1.527024
     65          6           0      -14.714878    1.012903   -2.841479
     66          6           0      -15.578163   -0.733508   -1.401495
     67          1           0        2.461166    3.517742   -0.513568
     68          1           0        8.982909    3.575735   -0.291756
     69          1           0        9.018351   -2.777953    0.654133
     70          1           0        1.061490   -1.176582   -1.282330
     71          1           0        0.735640    1.438090   -0.172825
     72          1           0        0.412038    2.217091   -2.285046
     73          1           0        0.171492    0.572652   -2.514543
     74          1           0        1.734611    1.274135   -3.084198
     75          1           0        1.257087   -0.591702    1.629421
     76          1           0        0.733662   -2.040702    0.954005
     77          1           0       -1.117616   -0.092502   -0.108489
     78          1           0       -0.848650    0.448650    1.531007
     79          1           0        4.016702    6.425063    0.078532
     80          1           0        3.054184    5.309177   -0.950915
     81          1           0        4.349834    6.331664   -1.659391
     82          1           0        5.923911    7.659398    0.574437
     83          1           0        6.166312    7.688099   -1.132923
     84          1           0        7.482898    8.159016   -0.028498
     85          1           0       10.620947    1.783104    0.890007
     86          1           0       10.755062   -0.643083   -0.556397
     87          1           0       10.430700    2.114438   -2.159488
     88          1           0       11.739971    0.975840   -1.597057
     89          1           0       11.593491    2.648884   -1.033963
     90          1           0       11.021707   -1.717829    1.558793
     91          1           0       10.236586   -0.382572    2.440105
     92          1           0       12.491805    0.280324    2.850793
     93          1           0       12.720760    0.541189    1.115191
     94          1           0       13.072687   -0.998457    1.759463
     95          1           0        8.322304   -4.919219    1.522310
     96          1           0        8.017174   -5.331908   -0.064199
     97          1           0        6.788893   -5.747049    1.181434
     98          1           0        2.005136   -3.673307    0.746100
     99          1           0        0.097796   -5.834265   -2.234691
    100          1           0        0.345195   -4.335315   -3.011434
    101          1           0       -0.806619   -4.282589   -1.692537
    102          1           0       -3.638294   -3.620141    1.258278
    103          1           0       -3.688968   -3.458276   -0.469753
    104          1           0       -5.134123   -1.279948    0.732898
    105          1           0       -5.537241   -4.692518   -0.505814
    106          1           0       -7.255900   -4.677481   -0.058433
    107          1           0       -6.080228   -5.229934    1.044475
    108          1           0       -7.211971   -1.495490    1.603954
    109          1           0       -8.187992   -2.894418    1.397906
    110          1           0       -9.339277   -1.647049   -0.147960
    111          1           0       -8.165079   -2.210918   -1.158680
    112          1           0       -7.401450   -0.124887   -1.627743
    113          1           0       -7.107556    0.140263    0.177763
    114          1           0       -9.835711    0.371612    0.261842
    115          1           0      -11.012340    0.644029   -1.700486
    116          1           0       -9.523768   -0.001058   -2.408631
    117          1           0       -9.721082    1.678759   -2.447547
    118          1           0       -9.099690    3.059725   -0.800965
    119          1           0       -7.671609    2.450399   -0.115464
    120          1           0       -8.765499    3.399802    1.818483
    121          1           0       -9.299531    1.748203    1.984091
    122          1           0      -11.218238    2.896657    0.179178
    123          1           0      -10.916209    4.126891    1.445002
    124          1           0      -11.448580    1.285596    2.282317
    125          1           0      -10.641214    3.110688    3.867899
    126          1           0      -12.216959    2.448285    4.242374
    127          1           0      -12.100193    4.045501    3.445176
    128          1           0      -13.469371    3.201659    1.166151
    129          1           0      -13.792521    2.016922    2.539839
    130          1           0      -13.664282    0.170800    1.293333
    131          1           0      -12.574035    0.976107    0.191349
    132          1           0      -14.606544    2.428506   -0.614462
    133          1           0      -15.526141    1.243878    0.224229
    134          1           0      -13.538325   -0.037977   -1.631504
    135          1           0      -15.152519    0.414205   -3.640675
    136          1           0      -13.758371    1.247796   -3.308373
    137          1           0      -15.261279    1.945279   -2.983444
    138          1           0      -15.952485   -0.795391   -0.380296
    139          1           0      -14.987832   -1.627143   -1.606336
    140          1           0      -16.345832   -0.699189   -2.174514
 ---------------------------------------------------------------------

 SCF Done:  E(RCAM-B3LYP) =  -3007.16366445     A.U. after   19 cycles

 Excitation energies and oscillator strengths:

 Excited State   1:      Singlet-A      1.6631 eV  745.52 nm  f=0.3993  <S**2>=0.000
     245 -> 248        0.16413
     246 -> 247        0.68881
     245 <- 248        0.10530
 This state for optimization and/or second-order correction.
 Total Energy, E(TD-HF/TD-DFT) =  -3007.10254797
 Copying the excited state density for this state as the 1-particle RhoCI density.

 Excited State   2:      Singlet-A      2.2110 eV  560.75 nm  f=0.1343  <S**2>=0.000
     245 -> 247        0.64748
     246 -> 248       -0.26898

 Excited State   3:      Singlet-A      3.3916 eV  365.57 nm  f=0.0024  <S**2>=0.000
     242 -> 247       -0.20773
     244 -> 247        0.65965

 Excited State   4:      Singlet-A      3.4745 eV  356.84 nm  f=0.0258  <S**2>=0.000
     241 -> 247        0.55793
     241 -> 249        0.25915
     241 -> 250       -0.10577
     241 -> 251       -0.16680
     242 -> 247        0.11774
     244 -> 247        0.10691
     246 -> 248        0.16371

 Excited State   5:      Singlet-A      3.4965 eV  354.60 nm  f=0.0815  <S**2>=0.000
     241 -> 247       -0.18285
     241 -> 249       -0.10077
     242 -> 247        0.51878
     244 -> 247        0.17011
     246 -> 248        0.35983

 The electronic state is 1-A.
 Alpha  occ. eigenvalues --  -46.89585 -19.25754 -19.25396 -19.20239 -19.19034
 Alpha  occ. eigenvalues --  -19.18645 -19.18644 -14.42246 -14.41888 -14.39502
 Alpha  occ. eigenvalues --  -14.38758 -10.39709 -10.38329 -10.36525 -10.35341
 Alpha  occ. eigenvalues --  -10.32569 -10.32053 -10.31492 -10.31163 -10.30948
 Alpha  occ. eigenvalues --  -10.30583 -10.30197 -10.29622 -10.29027 -10.28958
 Alpha  occ. eigenvalues --  -10.28504 -10.28138 -10.28011 -10.27963 -10.27919
 Alpha  occ. eigenvalues --  -10.27905 -10.27754 -10.27653 -10.27545 -10.27173
 Alpha  occ. eigenvalues --  -10.27139 -10.27086 -10.26823 -10.26722 -10.26678
 Alpha  occ. eigenvalues --  -10.26466 -10.26419 -10.26391 -10.26378 -10.26195
 Alpha  occ. eigenvalues --  -10.26100 -10.26027 -10.25898 -10.25892 -10.25825
 Alpha  occ. eigenvalues --  -10.25489 -10.25422 -10.25126 -10.25122 -10.25035
 Alpha  occ. eigenvalues --  -10.25020 -10.25001 -10.24921 -10.24894 -10.24662
 Alpha  occ. eigenvalues --  -10.24573 -10.24555 -10.24239 -10.24111 -10.24100
 Alpha  occ. eigenvalues --  -10.23747  -3.17893  -1.92788  -1.92317  -1.92211
 Alpha  occ. eigenvalues --   -1.18423  -1.17733  -1.11978  -1.09552  -1.07877
 Alpha  occ. eigenvalues --   -1.06539  -1.05166  -1.03648  -1.03044  -1.01434
 Alpha  occ. eigenvalues --   -0.91427  -0.91346  -0.90218  -0.89635  -0.88810
 Alpha  occ. eigenvalues --   -0.88671  -0.88043  -0.87827  -0.87497  -0.86819
 Alpha  occ. eigenvalues --   -0.86605  -0.85374  -0.84577  -0.84166  -0.83182
 Alpha  occ. eigenvalues --   -0.82659  -0.81959  -0.81186  -0.81125  -0.80257
 Alpha  occ. eigenvalues --   -0.79866  -0.78523  -0.78345  -0.77363  -0.76316
 Alpha  occ. eigenvalues --   -0.76041  -0.75659  -0.75190  -0.74620  -0.74182
 Alpha  occ. eigenvalues --   -0.73579  -0.72880  -0.71442  -0.70796  -0.69509
 Alpha  occ. eigenvalues --   -0.68484  -0.68279  -0.66885  -0.66625  -0.65393
 Alpha  occ. eigenvalues --   -0.64969  -0.64842  -0.64665  -0.64297  -0.64202
 Alpha  occ. eigenvalues --   -0.63881  -0.63556  -0.62731  -0.62337  -0.60391
 Alpha  occ. eigenvalues --   -0.60078  -0.59838  -0.59204  -0.58972  -0.58407
 Alpha  occ. eigenvalues --   -0.57738  -0.57253  -0.56845  -0.56333  -0.55841
 Alpha  occ. eigenvalues --   -0.55435  -0.54782  -0.54718  -0.54654  -0.54443
 Alpha  occ. eigenvalues --   -0.53987  -0.53592  -0.53373  -0.53066  -0.52857
 Alpha  occ. eigenvalues --   -0.52363  -0.52134  -0.52015  -0.51920  -0.51783
 Alpha  occ. eigenvalues --   -0.51739  -0.51243  -0.51078  -0.50775  -0.50340
 Alpha  occ. eigenvalues --   -0.50280  -0.50178  -0.49813  -0.49622  -0.49365
 Alpha  occ. eigenvalues --   -0.49274  -0.49047  -0.49004  -0.48898  -0.48742
 Alpha  occ. eigenvalues --   -0.48586  -0.48436  -0.48270  -0.48086  -0.47842
 Alpha  occ. eigenvalues --   -0.47628  -0.47296  -0.47097  -0.46918  -0.46841
 Alpha  occ. eigenvalues --   -0.46648  -0.46370  -0.46066  -0.45987  -0.45949
 Alpha  occ. eigenvalues --   -0.45453  -0.45304  -0.45267  -0.45081  -0.44829
 Alpha  occ. eigenvalues --   -0.44724  -0.44332  -0.44213  -0.44114  -0.44020
 Alpha  occ. eigenvalues --   -0.43752  -0.43724  -0.43464  -0.43437  -0.43285
 Alpha  occ. eigenvalues --   -0.43063  -0.42749  -0.42588  -0.42459  -0.42274
 Alpha  occ. eigenvalues --   -0.42020  -0.41668  -0.41380  -0.41213  -0.41187
 Alpha  occ. eigenvalues --   -0.41070  -0.40780  -0.40559  -0.40478  -0.40227
 Alpha  occ. eigenvalues --   -0.40159  -0.39586  -0.39471  -0.38672  -0.38452
 Alpha  occ. eigenvalues --   -0.38364  -0.38151  -0.38009  -0.37832  -0.37348
 Alpha  occ. eigenvalues --   -0.37184  -0.36745  -0.36687  -0.36404  -0.36303
 Alpha  occ. eigenvalues --   -0.35968  -0.35483  -0.34823  -0.34130  -0.33884
 Alpha  occ. eigenvalues --   -0.33748  -0.33281  -0.32842  -0.31833  -0.31155
 Alpha  occ. eigenvalues --   -0.30629  -0.30212  -0.29914  -0.29871  -0.24062
 Alpha  occ. eigenvalues --   -0.21001
 Alpha virt. eigenvalues --   -0.08887  -0.01249   0.00628   0.01579   0.02395
 Alpha virt. eigenvalues --    0.04665   0.05883   0.06058   0.06122   0.07207
 Alpha virt. eigenvalues --    0.07975   0.08059   0.08432   0.08565   0.09287

 Mulliken charges:
               1
     1  Mg   0.805094
     2  C    0.036297
     3  C   -0.070661
     4  C   -0.015468
     5  C   -0.071535
     6  N   -0.307774
     7  C   -0.023643
     8  C   -0.062341
     9  C   -0.091199
    10  C    0.095265
    11  C    0.088564
    12  C    0.071745
    13  C    0.076044
    14  C    0.145427
    15  O   -0.254230
    16  O   -0.300525
    17  N   -0.334280
    18  C    0.117949
    19  C   -0.184429
    20  C   -0.031196
    21  C    0.094322
    22  C    0.126136
    23  C    0.044671
    24  O   -0.165496
    25  C    0.001135
    26  N   -0.293899
    27  C   -0.022919
    28  C   -0.037583
    29  C    0.002184
    30  C    0.054560
    31  C    0.043228
    32  C    0.009271
    33  C    0.014359
    34  N   -0.284917
    35  C    0.082970
    36  C   -0.165124
    37  C    0.048355
    38  C    0.029523
    39  C    0.105476
    40  C    0.066956
    41  O   -0.168324
    42  C   -0.067871
    43  C    0.179722
    44  O   -0.218567
    45  O   -0.282636
    46  C    0.166092
    47  C    0.308576
    48  C   -0.165846
    49  C   -0.163551
    50  C    0.066999
    51  C    0.086348
    52  C    0.042985
    53  C    0.078944
    54  C   -0.162588
    55  C    0.046405
    56  C    0.074332
    57  C    0.007206
    58  C    0.040819
    59  C   -0.159727
    60  C    0.048751
    61  C    0.086814
    62  C    0.000109
    63  C    0.046594
    64  C   -0.118193
    65  C    0.019739
    66  C    0.069884
    67  H   -0.023220
    68  H   -0.012823
    69  H   -0.021349
    70  H    0.008819
    71  H   -0.007734
    72  H    0.005374
    73  H    0.003651
    74  H    0.041375
    75  H    0.003174
    76  H    0.020785
    77  H    0.022969
    78  H    0.050110
    79  H    0.022830
    80  H    0.002077
    81  H    0.031651
    82  H    0.032669
    83  H    0.033695
    84  H    0.026685
    85  H    0.019376
    86  H    0.001287
    87  H    0.036046
    88  H    0.019311
    89  H    0.020914
    90  H    0.010897
    91  H    0.012745
    92  H    0.025060
    93  H    0.009631
    94  H    0.013402
    95  H    0.014914
    96  H    0.028878
    97  H    0.042569
    98  H    0.052525
    99  H    0.047207
   100  H    0.039645
   101  H    0.042097
   102  H    0.052668
   103  H    0.012784
   104  H   -0.012092
   105  H    0.009811
   106  H    0.000585
   107  H    0.031270
   108  H    0.002674
   109  H   -0.016920
   110  H   -0.006136
   111  H   -0.020009
   112  H    0.013082
   113  H    0.005724
   114  H    0.017823
   115  H    0.021855
   116  H   -0.013219
   117  H    0.010138
   118  H   -0.000763
   119  H   -0.014370
   120  H   -0.007289
   121  H    0.003004
   122  H   -0.005094
   123  H   -0.005109
   124  H   -0.012050
   125  H    0.002726
   126  H    0.001591
   127  H    0.009025
   128  H   -0.008000
   129  H   -0.016971
   130  H   -0.000718
   131  H   -0.025659
   132  H   -0.005661
   133  H   -0.010888
   134  H    0.004116
   135  H   -0.010126
   136  H   -0.011109
   137  H    0.001342
   138  H    0.006649
   139  H   -0.002553
   140  H    0.015299
 Sum of Mulliken charges =  -0.00000

 Dipole moment (field-independent basis, Debye):
    X=             -1.8901    Y=              3.0744    Z=             -0.4099  Tot=              3.6321
 Quadrupole moment (field-independent basis, Debye-Ang):
   XX=           -371.6967   YY=           -415.8721   ZZ=           -414.8872
   XY=              4.7928   XZ=             20.0200   YZ=              4.3600

 Normal termination of Gaussian 16 at Thu Apr 28 00:17:52 2022.
