 Gaussian 16, Revision A.03,
 Gaussian 16:  ES64L-G16RevA.03 25-Dec-2016

 ---------------------------------
 #p PBE1PBE/Def2SVP td=(nstates=5)
 ---------------------------------

 -----------------------------------------------------
 step_1351_chromophore_4 TDDFT with PBE1PBE functional
 -----------------------------------------------------
 Symbolic Z-matrix:
 Charge =  0 Multiplicity = 1

                         Standard orientation:
 ---------------------------------------------------------------------
 Center     Atomic      Atomic             Coordinates (Angstroms)
 Number     Number       Type             X           Y           Z
 ---------------------------------------------------------------------
      1         12           0        5.809326    0.466545    0.147856
      2          6           0        3.499180   -2.174723   -0.119528
      3          6           0        3.232373    2.747711   -0.437608
      4          6           0        8.145102    2.887396   -0.169566
      5          6           0        8.351478   -2.002512    0.271944
      6          7           0        3.675761    0.280016   -0.478676
      7          6           0        2.947866   -0.911665   -0.317580
      8          6           0        1.429637   -0.623585   -0.418427
      9          6           0        1.430568    0.939961   -0.848996
     10          6           0        2.921155    1.419656   -0.505862
     11          6           0        0.972047    1.282143   -2.305998
     12          6           0        0.636598   -0.963400    0.814910
     13          6           0       -0.835747   -0.431448    0.888508
     14          6           0       -1.841823   -1.530541    1.249971
     15          8           0       -1.904346   -2.177049    2.299974
     16          8           0       -2.736080   -1.818793    0.301859
     17          7           0        5.710552    2.569012   -0.255098
     18          6           0        4.560554    3.259923   -0.403598
     19          6           0        4.974565    4.664803   -0.450671
     20          6           0        6.348967    4.792448   -0.187869
     21          6           0        6.781758    3.410432   -0.199087
     22          6           0        4.032769    5.761461   -0.785384
     23          6           0        7.333465    6.013287   -0.170219
     24          8           0        8.528730    5.911402   -0.109416
     25          6           0        6.668492    7.452688   -0.194111
     26          7           0        7.949276    0.447444   -0.003871
     27          6           0        8.696886    1.612790   -0.056298
     28          6           0       10.214273    1.265506    0.020314
     29          6           0       10.201583   -0.241513    0.292525
     30          6           0        8.757113   -0.613399    0.221677
     31          6           0       11.033406    1.759652   -1.323563
     32          6           0       10.919856   -0.634406    1.628688
     33          6           0       12.373062   -0.168986    1.865756
     34          7           0        5.921221   -1.670154    0.115005
     35          6           0        7.017374   -2.472585    0.222018
     36          6           0        6.656131   -3.803467    0.544639
     37          6           0        5.286168   -3.790968    0.366977
     38          6           0        4.875996   -2.458086    0.143189
     39          6           0        7.487818   -4.990361    0.824925
     40          6           0        4.065650   -4.579838    0.367933
     41          8           0        3.899363   -5.769797    0.602568
     42          6           0        2.807099   -3.609551    0.010287
     43          6           0        2.202144   -3.881209   -1.295588
     44          8           0        2.644729   -3.583999   -2.392693
     45          8           0        1.122673   -4.560248   -1.022662
     46          6           0        0.109525   -4.762564   -2.036285
     47          6           0       -3.710706   -2.884611    0.456981
     48          6           0       -5.133494   -2.357454    0.570818
     49          6           0       -6.281401   -3.008147    0.598693
     50          6           0       -6.245523   -4.460752    0.289929
     51          6           0       -7.530897   -2.217276    0.851893
     52          6           0       -8.260864   -1.566634   -0.284330
     53          6           0       -7.808612   -0.116235   -0.615673
     54          6           0       -9.144438    0.781442   -0.474570
     55          6           0       -9.942749    0.815841   -1.820044
     56          6           0       -8.749758    2.288020   -0.114264
     57          6           0       -9.298404    2.599819    1.303181
     58          6           0      -10.824441    3.073989    1.180447
     59          6           0      -11.754807    2.322962    2.147491
     60          6           0      -11.669967    3.046572    3.513732
     61          6           0      -13.207163    2.263326    1.654445
     62          6           0      -13.495186    1.106028    0.759470
     63          6           0      -14.587721    1.381277   -0.312850
     64          6           0      -14.545834    0.365741   -1.527024
     65          6           0      -14.714878    1.012903   -2.841479
     66          6           0      -15.578163   -0.733508   -1.401495
     67          1           0        2.461166    3.517742   -0.513568
     68          1           0        8.982909    3.575735   -0.291756
     69          1           0        9.018351   -2.777953    0.654133
     70          1           0        1.061490   -1.176582   -1.282330
     71          1           0        0.735640    1.438090   -0.172825
     72          1           0        0.412038    2.217091   -2.285046
     73          1           0        0.171492    0.572652   -2.514543
     74          1           0        1.734611    1.274135   -3.084198
     75          1           0        1.257087   -0.591702    1.629421
     76          1           0        0.733662   -2.040702    0.954005
     77          1           0       -1.117616   -0.092502   -0.108489
     78          1           0       -0.848650    0.448650    1.531007
     79          1           0        4.016702    6.425063    0.078532
     80          1           0        3.054184    5.309177   -0.950915
     81          1           0        4.349834    6.331664   -1.659391
     82          1           0        5.923911    7.659398    0.574437
     83          1           0        6.166312    7.688099   -1.132923
     84          1           0        7.482898    8.159016   -0.028498
     85          1           0       10.620947    1.783104    0.890007
     86          1           0       10.755062   -0.643083   -0.556397
     87          1           0       10.430700    2.114438   -2.159488
     88          1           0       11.739971    0.975840   -1.597057
     89          1           0       11.593491    2.648884   -1.033963
     90          1           0       11.021707   -1.717829    1.558793
     91          1           0       10.236586   -0.382572    2.440105
     92          1           0       12.491805    0.280324    2.850793
     93          1           0       12.720760    0.541189    1.115191
     94          1           0       13.072687   -0.998457    1.759463
     95          1           0        8.322304   -4.919219    1.522310
     96          1           0        8.017174   -5.331908   -0.064199
     97          1           0        6.788893   -5.747049    1.181434
     98          1           0        2.005136   -3.673307    0.746100
     99          1           0        0.097796   -5.834265   -2.234691
    100          1           0        0.345195   -4.335315   -3.011434
    101          1           0       -0.806619   -4.282589   -1.692537
    102          1           0       -3.638294   -3.620141    1.258278
    103          1           0       -3.688968   -3.458276   -0.469753
    104          1           0       -5.134123   -1.279948    0.732898
    105          1           0       -5.537241   -4.692518   -0.505814
    106          1           0       -7.255900   -4.677481   -0.058433
    107          1           0       -6.080228   -5.229934    1.044475
    108          1           0       -7.211971   -1.495490    1.603954
    109          1           0       -8.187992   -2.894418    1.397906
    110          1           0       -9.339277   -1.647049   -0.147960
    111          1           0       -8.165079   -2.210918   -1.158680
    112          1           0       -7.401450   -0.124887   -1.627743
    113          1           0       -7.107556    0.140263    0.177763
    114          1           0       -9.835711    0.371612    0.261842
    115          1           0      -11.012340    0.644029   -1.700486
    116          1           0       -9.523768   -0.001058   -2.408631
    117          1           0       -9.721082    1.678759   -2.447547
    118          1           0       -9.099690    3.059725   -0.800965
    119          1           0       -7.671609    2.450399   -0.115464
    120          1           0       -8.765499    3.399802    1.818483
    121          1           0       -9.299531    1.748203    1.984091
    122          1           0      -11.218238    2.896657    0.179178
    123          1           0      -10.916209    4.126891    1.445002
    124          1           0      -11.448580    1.285596    2.282317
    125          1           0      -10.641214    3.110688    3.867899
    126          1           0      -12.216959    2.448285    4.242374
    127          1           0      -12.100193    4.045501    3.445176
    128          1           0      -13.469371    3.201659    1.166151
    129          1           0      -13.792521    2.016922    2.539839
    130          1           0      -13.664282    0.170800    1.293333
    131          1           0      -12.574035    0.976107    0.191349
    132          1           0      -14.606544    2.428506   -0.614462
    133          1           0      -15.526141    1.243878    0.224229
    134          1           0      -13.538325   -0.037977   -1.631504
    135          1           0      -15.152519    0.414205   -3.640675
    136          1           0      -13.758371    1.247796   -3.308373
    137          1           0      -15.261279    1.945279   -2.983444
    138          1           0      -15.952485   -0.795391   -0.380296
    139          1           0      -14.987832   -1.627143   -1.606336
    140          1           0      -16.345832   -0.699189   -2.174514
 ---------------------------------------------------------------------

 SCF Done:  E(RPBE1PBE) =  -3005.35246602     A.U. after   15 cycles

 Excitation energies and oscillator strengths:

 Excited State   1:      Singlet-A      1.8287 eV  677.98 nm  f=0.3853  <S**2>=0.000
     245 -> 248        0.15552
     246 -> 247        0.69716
     246 <- 247       -0.11972
 This state for optimization and/or second-order correction.
 Total Energy, E(TD-HF/TD-DFT) =  -3005.28526132
 Copying the excited state density for this state as the 1-particle RhoCI density.

 Excited State   2:      Singlet-A      2.2244 eV  557.39 nm  f=0.1278  <S**2>=0.000
     245 -> 247        0.65679
     246 -> 248       -0.24413

 Excited State   3:      Singlet-A      2.9675 eV  417.80 nm  f=0.0004  <S**2>=0.000
     242 -> 247        0.51406
     242 -> 249       -0.12000
     243 -> 247        0.44547

 Excited State   4:      Singlet-A      3.0681 eV  404.10 nm  f=0.0012  <S**2>=0.000
     242 -> 247       -0.45870
     243 -> 247        0.53125

 Excited State   5:      Singlet-A      3.1741 eV  390.62 nm  f=0.0003  <S**2>=0.000
     241 -> 247        0.66320
     246 -> 248        0.21851

 The electronic state is 1-A.
 Alpha  occ. eigenvalues --  -46.92969 -19.26437 -19.25989 -19.20472 -19.19220
 Alpha  occ. eigenvalues --  -19.18934 -19.18838 -14.41673 -14.41544 -14.39188
 Alpha  occ. eigenvalues --  -14.38344 -10.36748 -10.35242 -10.33731 -10.32455
 Alpha  occ. eigenvalues --  -10.30004 -10.29226 -10.29217 -10.28857 -10.28731
 Alpha  occ. eigenvalues --  -10.28400 -10.28026 -10.27418 -10.26661 -10.26453
 Alpha  occ. eigenvalues --  -10.26090 -10.25989 -10.25845 -10.25825 -10.25693
 Alpha  occ. eigenvalues --  -10.25650 -10.25564 -10.25180 -10.25122 -10.24937
 Alpha  occ. eigenvalues --  -10.24831 -10.24695 -10.24491 -10.24482 -10.24455
 Alpha  occ. eigenvalues --  -10.24109 -10.23945 -10.23918 -10.23732 -10.23718
 Alpha  occ. eigenvalues --  -10.23677 -10.23428 -10.23384 -10.23330 -10.23272
 Alpha  occ. eigenvalues --  -10.23073 -10.23028 -10.22724 -10.22679 -10.22670
 Alpha  occ. eigenvalues --  -10.22655 -10.22586 -10.22521 -10.22466 -10.22145
 Alpha  occ. eigenvalues --  -10.22074 -10.22071 -10.21635 -10.21633 -10.21490
 Alpha  occ. eigenvalues --  -10.21121  -3.14863  -1.87698  -1.87206  -1.87102
 Alpha  occ. eigenvalues --   -1.13191  -1.12584  -1.06773  -1.04257  -1.02627
 Alpha  occ. eigenvalues --   -1.01393  -0.99830  -0.98361  -0.97683  -0.96066
 Alpha  occ. eigenvalues --   -0.85704  -0.85526  -0.84300  -0.83823  -0.83085
 Alpha  occ. eigenvalues --   -0.82773  -0.82368  -0.81951  -0.81819  -0.81198
 Alpha  occ. eigenvalues --   -0.80932  -0.79588  -0.78848  -0.78384  -0.77400
 Alpha  occ. eigenvalues --   -0.76896  -0.76215  -0.75541  -0.75405  -0.74423
 Alpha  occ. eigenvalues --   -0.74022  -0.72806  -0.72650  -0.71663  -0.70540
 Alpha  occ. eigenvalues --   -0.70311  -0.69755  -0.69539  -0.68770  -0.68352
 Alpha  occ. eigenvalues --   -0.67883  -0.67311  -0.65837  -0.65139  -0.63873
 Alpha  occ. eigenvalues --   -0.62924  -0.62585  -0.61294  -0.61007  -0.59663
 Alpha  occ. eigenvalues --   -0.59462  -0.59420  -0.59020  -0.58776  -0.58348
 Alpha  occ. eigenvalues --   -0.58073  -0.57954  -0.57287  -0.56523  -0.54737
 Alpha  occ. eigenvalues --   -0.54588  -0.54374  -0.53747  -0.53565  -0.52988
 Alpha  occ. eigenvalues --   -0.52226  -0.51579  -0.51284  -0.50928  -0.50361
 Alpha  occ. eigenvalues --   -0.49968  -0.49340  -0.49240  -0.49039  -0.49016
 Alpha  occ. eigenvalues --   -0.48520  -0.48044  -0.48001  -0.47634  -0.47414
 Alpha  occ. eigenvalues --   -0.46896  -0.46715  -0.46480  -0.46389  -0.46314
 Alpha  occ. eigenvalues --   -0.46208  -0.45769  -0.45545  -0.45338  -0.44888
 Alpha  occ. eigenvalues --   -0.44871  -0.44837  -0.44392  -0.44213  -0.43956
 Alpha  occ. eigenvalues --   -0.43852  -0.43684  -0.43620  -0.43484  -0.43370
 Alpha  occ. eigenvalues --   -0.43195  -0.43058  -0.42904  -0.42693  -0.42424
 Alpha  occ. eigenvalues --   -0.42296  -0.41928  -0.41756  -0.41650  -0.41485
 Alpha  occ. eigenvalues --   -0.41307  -0.41067  -0.40748  -0.40664  -0.40618
 Alpha  occ. eigenvalues --   -0.40122  -0.40079  -0.39912  -0.39755  -0.39606
 Alpha  occ. eigenvalues --   -0.39486  -0.39032  -0.38906  -0.38835  -0.38747
 Alpha  occ. eigenvalues --   -0.38557  -0.38461  -0.38268  -0.38113  -0.38093
 Alpha  occ. eigenvalues --   -0.37795  -0.37458  -0.37406  -0.37314  -0.37178
 Alpha  occ. eigenvalues --   -0.36865  -0.36626  -0.36105  -0.36046  -0.35946
 Alpha  occ. eigenvalues --   -0.35914  -0.35576  -0.35360  -0.35270  -0.35135
 Alpha  occ. eigenvalues --   -0.34899  -0.34532  -0.34254  -0.33477  -0.33325
 Alpha  occ. eigenvalues --   -0.33220  -0.32981  -0.32922  -0.32625  -0.32373
 Alpha  occ. eigenvalues --   -0.32014  -0.31693  -0.31566  -0.31469  -0.31328
 Alpha  occ. eigenvalues --   -0.30949  -0.30441  -0.29746  -0.29093  -0.28999
 Alpha  occ. eigenvalues --   -0.28612  -0.28396  -0.28084  -0.26996  -0.26591
 Alpha  occ. eigenvalues --   -0.25819  -0.25519  -0.25500  -0.25182  -0.20987
 Alpha  occ. eigenvalues --   -0.18669
 Alpha virt. eigenvalues --   -0.11300  -0.04854  -0.03563  -0.02074  -0.01163
 Alpha virt. eigenvalues --    0.00156   0.01361   0.01610   0.01705   0.03111
 Alpha virt. eigenvalues --    0.04415   0.04679   0.04733   0.05028   0.05692

 Mulliken charges:
               1
     1  Mg   0.943443
     2  C    0.028652
     3  C   -0.060987
     4  C   -0.018555
     5  C   -0.052319
     6  N   -0.406108
     7  C    0.043521
     8  C   -0.133069
     9  C   -0.162210
    10  C    0.125955
    11  C    0.029221
    12  C    0.018150
    13  C   -0.005595
    14  C    0.217864
    15  O   -0.287590
    16  O   -0.336159
    17  N   -0.450976
    18  C    0.155429
    19  C   -0.228724
    20  C   -0.062220
    21  C    0.125812
    22  C    0.062620
    23  C    0.094683
    24  O   -0.202383
    25  C   -0.071182
    26  N   -0.398284
    27  C    0.017664
    28  C   -0.108171
    29  C   -0.078825
    30  C    0.095463
    31  C   -0.015912
    32  C   -0.056329
    33  C   -0.055621
    34  N   -0.414398
    35  C    0.098978
    36  C   -0.179049
    37  C   -0.005671
    38  C    0.085949
    39  C    0.051279
    40  C    0.160441
    41  O   -0.213911
    42  C   -0.178776
    43  C    0.281525
    44  O   -0.255130
    45  O   -0.319770
    46  C    0.112170
    47  C    0.265941
    48  C   -0.170103
    49  C   -0.206795
    50  C    0.004432
    51  C    0.013965
    52  C   -0.014222
    53  C    0.019182
    54  C   -0.247702
    55  C   -0.017971
    56  C    0.020083
    57  C   -0.057679
    58  C   -0.010562
    59  C   -0.250618
    60  C   -0.011559
    61  C    0.034789
    62  C   -0.076600
    63  C   -0.002115
    64  C   -0.221921
    65  C   -0.034350
    66  C    0.008557
    67  H    0.008865
    68  H    0.020204
    69  H    0.009318
    70  H    0.048754
    71  H    0.031372
    72  H    0.033069
    73  H    0.032102
    74  H    0.067760
    75  H    0.036944
    76  H    0.059176
    77  H    0.057013
    78  H    0.080208
    79  H    0.052286
    80  H    0.031517
    81  H    0.060373
    82  H    0.058744
    83  H    0.059997
    84  H    0.054476
    85  H    0.057098
    86  H    0.039586
    87  H    0.062724
    88  H    0.046013
    89  H    0.047801
    90  H    0.045415
    91  H    0.045184
    92  H    0.052536
    93  H    0.037886
    94  H    0.040989
    95  H    0.040872
    96  H    0.056694
    97  H    0.069757
    98  H    0.087898
    99  H    0.068659
   100  H    0.059848
   101  H    0.063704
   102  H    0.078846
   103  H    0.040668
   104  H    0.019620
   105  H    0.036806
   106  H    0.029113
   107  H    0.058082
   108  H    0.035486
   109  H    0.017704
   110  H    0.024747
   111  H    0.013678
   112  H    0.044744
   113  H    0.039032
   114  H    0.055151
   115  H    0.054806
   116  H    0.015593
   117  H    0.037051
   118  H    0.030664
   119  H    0.018024
   120  H    0.025497
   121  H    0.035473
   122  H    0.029017
   123  H    0.027898
   124  H    0.025825
   125  H    0.031659
   126  H    0.030097
   127  H    0.036563
   128  H    0.023234
   129  H    0.017762
   130  H    0.031237
   131  H    0.018058
   132  H    0.025001
   133  H    0.022911
   134  H    0.044616
   135  H    0.017577
   136  H    0.017220
   137  H    0.028241
   138  H    0.033883
   139  H    0.025894
   140  H    0.042031
 Sum of Mulliken charges =  -0.00000

 Dipole moment (field-independent basis, Debye):
    X=             -1.8423    Y=              3.2292    Z=             -0.4605  Tot=              3.7462
 Quadrupole moment (field-independent basis, Debye-Ang):
   XX=           -365.6358   YY=           -412.8162   ZZ=           -412.5387
   XY=              5.3030   XZ=             20.3333   YZ=              4.0878

 Normal termination of Gaussian 16 at Thu Apr 28 00:39:36 2022.
