 Gaussian 16, Revision A.03,
 Gaussian 16:  ES64L-G16RevA.03 25-Dec-2016

 --------------------------------
 #p wB97XD/Def2SVP td=(nstates=5)
 --------------------------------

 ----------------------------------------------------
 step_1351_chromophore_4 TDDFT with wB97XD functional
 ----------------------------------------------------
 Symbolic Z-matrix:
 Charge =  0 Multiplicity = 1

                         Standard orientation:
 ---------------------------------------------------------------------
 Center     Atomic      Atomic             Coordinates (Angstroms)
 Number     Number       Type             X           Y           Z
 ---------------------------------------------------------------------
      1         12           0        5.809326    0.466545    0.147856
      2          6           0        3.499180   -2.174723   -0.119528
      3          6           0        3.232373    2.747711   -0.437608
      4          6           0        8.145102    2.887396   -0.169566
      5          6           0        8.351478   -2.002512    0.271944
      6          7           0        3.675761    0.280016   -0.478676
      7          6           0        2.947866   -0.911665   -0.317580
      8          6           0        1.429637   -0.623585   -0.418427
      9          6           0        1.430568    0.939961   -0.848996
     10          6           0        2.921155    1.419656   -0.505862
     11          6           0        0.972047    1.282143   -2.305998
     12          6           0        0.636598   -0.963400    0.814910
     13          6           0       -0.835747   -0.431448    0.888508
     14          6           0       -1.841823   -1.530541    1.249971
     15          8           0       -1.904346   -2.177049    2.299974
     16          8           0       -2.736080   -1.818793    0.301859
     17          7           0        5.710552    2.569012   -0.255098
     18          6           0        4.560554    3.259923   -0.403598
     19          6           0        4.974565    4.664803   -0.450671
     20          6           0        6.348967    4.792448   -0.187869
     21          6           0        6.781758    3.410432   -0.199087
     22          6           0        4.032769    5.761461   -0.785384
     23          6           0        7.333465    6.013287   -0.170219
     24          8           0        8.528730    5.911402   -0.109416
     25          6           0        6.668492    7.452688   -0.194111
     26          7           0        7.949276    0.447444   -0.003871
     27          6           0        8.696886    1.612790   -0.056298
     28          6           0       10.214273    1.265506    0.020314
     29          6           0       10.201583   -0.241513    0.292525
     30          6           0        8.757113   -0.613399    0.221677
     31          6           0       11.033406    1.759652   -1.323563
     32          6           0       10.919856   -0.634406    1.628688
     33          6           0       12.373062   -0.168986    1.865756
     34          7           0        5.921221   -1.670154    0.115005
     35          6           0        7.017374   -2.472585    0.222018
     36          6           0        6.656131   -3.803467    0.544639
     37          6           0        5.286168   -3.790968    0.366977
     38          6           0        4.875996   -2.458086    0.143189
     39          6           0        7.487818   -4.990361    0.824925
     40          6           0        4.065650   -4.579838    0.367933
     41          8           0        3.899363   -5.769797    0.602568
     42          6           0        2.807099   -3.609551    0.010287
     43          6           0        2.202144   -3.881209   -1.295588
     44          8           0        2.644729   -3.583999   -2.392693
     45          8           0        1.122673   -4.560248   -1.022662
     46          6           0        0.109525   -4.762564   -2.036285
     47          6           0       -3.710706   -2.884611    0.456981
     48          6           0       -5.133494   -2.357454    0.570818
     49          6           0       -6.281401   -3.008147    0.598693
     50          6           0       -6.245523   -4.460752    0.289929
     51          6           0       -7.530897   -2.217276    0.851893
     52          6           0       -8.260864   -1.566634   -0.284330
     53          6           0       -7.808612   -0.116235   -0.615673
     54          6           0       -9.144438    0.781442   -0.474570
     55          6           0       -9.942749    0.815841   -1.820044
     56          6           0       -8.749758    2.288020   -0.114264
     57          6           0       -9.298404    2.599819    1.303181
     58          6           0      -10.824441    3.073989    1.180447
     59          6           0      -11.754807    2.322962    2.147491
     60          6           0      -11.669967    3.046572    3.513732
     61          6           0      -13.207163    2.263326    1.654445
     62          6           0      -13.495186    1.106028    0.759470
     63          6           0      -14.587721    1.381277   -0.312850
     64          6           0      -14.545834    0.365741   -1.527024
     65          6           0      -14.714878    1.012903   -2.841479
     66          6           0      -15.578163   -0.733508   -1.401495
     67          1           0        2.461166    3.517742   -0.513568
     68          1           0        8.982909    3.575735   -0.291756
     69          1           0        9.018351   -2.777953    0.654133
     70          1           0        1.061490   -1.176582   -1.282330
     71          1           0        0.735640    1.438090   -0.172825
     72          1           0        0.412038    2.217091   -2.285046
     73          1           0        0.171492    0.572652   -2.514543
     74          1           0        1.734611    1.274135   -3.084198
     75          1           0        1.257087   -0.591702    1.629421
     76          1           0        0.733662   -2.040702    0.954005
     77          1           0       -1.117616   -0.092502   -0.108489
     78          1           0       -0.848650    0.448650    1.531007
     79          1           0        4.016702    6.425063    0.078532
     80          1           0        3.054184    5.309177   -0.950915
     81          1           0        4.349834    6.331664   -1.659391
     82          1           0        5.923911    7.659398    0.574437
     83          1           0        6.166312    7.688099   -1.132923
     84          1           0        7.482898    8.159016   -0.028498
     85          1           0       10.620947    1.783104    0.890007
     86          1           0       10.755062   -0.643083   -0.556397
     87          1           0       10.430700    2.114438   -2.159488
     88          1           0       11.739971    0.975840   -1.597057
     89          1           0       11.593491    2.648884   -1.033963
     90          1           0       11.021707   -1.717829    1.558793
     91          1           0       10.236586   -0.382572    2.440105
     92          1           0       12.491805    0.280324    2.850793
     93          1           0       12.720760    0.541189    1.115191
     94          1           0       13.072687   -0.998457    1.759463
     95          1           0        8.322304   -4.919219    1.522310
     96          1           0        8.017174   -5.331908   -0.064199
     97          1           0        6.788893   -5.747049    1.181434
     98          1           0        2.005136   -3.673307    0.746100
     99          1           0        0.097796   -5.834265   -2.234691
    100          1           0        0.345195   -4.335315   -3.011434
    101          1           0       -0.806619   -4.282589   -1.692537
    102          1           0       -3.638294   -3.620141    1.258278
    103          1           0       -3.688968   -3.458276   -0.469753
    104          1           0       -5.134123   -1.279948    0.732898
    105          1           0       -5.537241   -4.692518   -0.505814
    106          1           0       -7.255900   -4.677481   -0.058433
    107          1           0       -6.080228   -5.229934    1.044475
    108          1           0       -7.211971   -1.495490    1.603954
    109          1           0       -8.187992   -2.894418    1.397906
    110          1           0       -9.339277   -1.647049   -0.147960
    111          1           0       -8.165079   -2.210918   -1.158680
    112          1           0       -7.401450   -0.124887   -1.627743
    113          1           0       -7.107556    0.140263    0.177763
    114          1           0       -9.835711    0.371612    0.261842
    115          1           0      -11.012340    0.644029   -1.700486
    116          1           0       -9.523768   -0.001058   -2.408631
    117          1           0       -9.721082    1.678759   -2.447547
    118          1           0       -9.099690    3.059725   -0.800965
    119          1           0       -7.671609    2.450399   -0.115464
    120          1           0       -8.765499    3.399802    1.818483
    121          1           0       -9.299531    1.748203    1.984091
    122          1           0      -11.218238    2.896657    0.179178
    123          1           0      -10.916209    4.126891    1.445002
    124          1           0      -11.448580    1.285596    2.282317
    125          1           0      -10.641214    3.110688    3.867899
    126          1           0      -12.216959    2.448285    4.242374
    127          1           0      -12.100193    4.045501    3.445176
    128          1           0      -13.469371    3.201659    1.166151
    129          1           0      -13.792521    2.016922    2.539839
    130          1           0      -13.664282    0.170800    1.293333
    131          1           0      -12.574035    0.976107    0.191349
    132          1           0      -14.606544    2.428506   -0.614462
    133          1           0      -15.526141    1.243878    0.224229
    134          1           0      -13.538325   -0.037977   -1.631504
    135          1           0      -15.152519    0.414205   -3.640675
    136          1           0      -13.758371    1.247796   -3.308373
    137          1           0      -15.261279    1.945279   -2.983444
    138          1           0      -15.952485   -0.795391   -0.380296
    139          1           0      -14.987832   -1.627143   -1.606336
    140          1           0      -16.345832   -0.699189   -2.174514
 ---------------------------------------------------------------------

 SCF Done:  E(RwB97XD) =  -3007.86330449     A.U. after   19 cycles

 Excitation energies and oscillator strengths:

 Excited State   1:      Singlet-A      1.6029 eV  773.48 nm  f=0.3981  <S**2>=0.000
     245 -> 248        0.17051
     246 -> 247        0.68623
     245 <- 248        0.11476
 This state for optimization and/or second-order correction.
 Total Energy, E(TD-HF/TD-DFT) =  -3007.80439783
 Copying the excited state density for this state as the 1-particle RhoCI density.

 Excited State   2:      Singlet-A      2.1535 eV  575.72 nm  f=0.1310  <S**2>=0.000
     245 -> 247        0.64570
     246 -> 248       -0.27219

 Excited State   3:      Singlet-A      3.4121 eV  363.37 nm  f=0.0060  <S**2>=0.000
     242 -> 247       -0.30440
     243 -> 247        0.60756

 Excited State   4:      Singlet-A      3.5073 eV  353.50 nm  f=0.0749  <S**2>=0.000
     241 -> 247        0.45218
     241 -> 249        0.23578
     241 -> 250       -0.15184
     242 -> 247        0.22141
     243 -> 247        0.23166
     246 -> 248        0.28048

 Excited State   5:      Singlet-A      3.5264 eV  351.59 nm  f=0.0725  <S**2>=0.000
     241 -> 247       -0.34948
     241 -> 249       -0.20643
     241 -> 250        0.13315
     242 -> 247        0.39921
     243 -> 247        0.19023
     246 -> 248        0.31276

 The electronic state is 1-A.
 Alpha  occ. eigenvalues --  -46.95936 -19.31011 -19.30611 -19.25231 -19.24118
 Alpha  occ. eigenvalues --  -19.23633 -19.23596 -14.46870 -14.46476 -14.44080
 Alpha  occ. eigenvalues --  -14.43347 -10.43546 -10.42140 -10.40503 -10.39401
 Alpha  occ. eigenvalues --  -10.36483 -10.35769 -10.35567 -10.35183 -10.34974
 Alpha  occ. eigenvalues --  -10.34616 -10.34226 -10.33634 -10.33061 -10.32901
 Alpha  occ. eigenvalues --  -10.32520 -10.32199 -10.32087 -10.32056 -10.32023
 Alpha  occ. eigenvalues --  -10.31959 -10.31851 -10.31810 -10.31523 -10.31276
 Alpha  occ. eigenvalues --  -10.31171 -10.31103 -10.30777 -10.30763 -10.30746
 Alpha  occ. eigenvalues --  -10.30554 -10.30325 -10.30274 -10.30251 -10.30070
 Alpha  occ. eigenvalues --  -10.30041 -10.29942 -10.29780 -10.29730 -10.29727
 Alpha  occ. eigenvalues --  -10.29411 -10.29357 -10.29075 -10.29045 -10.29043
 Alpha  occ. eigenvalues --  -10.28999 -10.28942 -10.28863 -10.28825 -10.28502
 Alpha  occ. eigenvalues --  -10.28500 -10.28459 -10.28073 -10.28010 -10.27914
 Alpha  occ. eigenvalues --  -10.27548  -3.21710  -1.95289  -1.94797  -1.94692
 Alpha  occ. eigenvalues --   -1.20624  -1.19962  -1.14183  -1.11821  -1.10050
 Alpha  occ. eigenvalues --   -1.08758  -1.07236  -1.05667  -1.05066  -1.03429
 Alpha  occ. eigenvalues --   -0.93372  -0.93185  -0.91964  -0.91491  -0.90685
 Alpha  occ. eigenvalues --   -0.90433  -0.89993  -0.89608  -0.89439  -0.88764
 Alpha  occ. eigenvalues --   -0.88544  -0.87232  -0.86498  -0.86032  -0.85033
 Alpha  occ. eigenvalues --   -0.84526  -0.83854  -0.83143  -0.83048  -0.82157
 Alpha  occ. eigenvalues --   -0.81692  -0.80467  -0.80264  -0.79274  -0.78194
 Alpha  occ. eigenvalues --   -0.77966  -0.77435  -0.77130  -0.76441  -0.76018
 Alpha  occ. eigenvalues --   -0.75486  -0.74870  -0.73385  -0.72731  -0.71438
 Alpha  occ. eigenvalues --   -0.70468  -0.70197  -0.68831  -0.68576  -0.67269
 Alpha  occ. eigenvalues --   -0.66950  -0.66847  -0.66580  -0.66249  -0.66012
 Alpha  occ. eigenvalues --   -0.65693  -0.65493  -0.64712  -0.64162  -0.62273
 Alpha  occ. eigenvalues --   -0.62050  -0.61835  -0.61170  -0.60962  -0.60406
 Alpha  occ. eigenvalues --   -0.59668  -0.59187  -0.58753  -0.58298  -0.57781
 Alpha  occ. eigenvalues --   -0.57379  -0.56748  -0.56648  -0.56523  -0.56393
 Alpha  occ. eigenvalues --   -0.55935  -0.55469  -0.55348  -0.54995  -0.54775
 Alpha  occ. eigenvalues --   -0.54242  -0.54050  -0.53918  -0.53810  -0.53683
 Alpha  occ. eigenvalues --   -0.53594  -0.53153  -0.53030  -0.52683  -0.52227
 Alpha  occ. eigenvalues --   -0.52206  -0.52117  -0.51729  -0.51555  -0.51316
 Alpha  occ. eigenvalues --   -0.51185  -0.50951  -0.50933  -0.50807  -0.50658
 Alpha  occ. eigenvalues --   -0.50485  -0.50343  -0.50199  -0.49974  -0.49715
 Alpha  occ. eigenvalues --   -0.49536  -0.49217  -0.48985  -0.48857  -0.48740
 Alpha  occ. eigenvalues --   -0.48553  -0.48296  -0.47979  -0.47902  -0.47874
 Alpha  occ. eigenvalues --   -0.47300  -0.47228  -0.47147  -0.47032  -0.46770
 Alpha  occ. eigenvalues --   -0.46676  -0.46252  -0.46115  -0.46009  -0.45895
 Alpha  occ. eigenvalues --   -0.45733  -0.45646  -0.45405  -0.45298  -0.45270
 Alpha  occ. eigenvalues --   -0.44930  -0.44608  -0.44516  -0.44369  -0.44226
 Alpha  occ. eigenvalues --   -0.43932  -0.43664  -0.43231  -0.43130  -0.43056
 Alpha  occ. eigenvalues --   -0.42967  -0.42651  -0.42401  -0.42400  -0.42101
 Alpha  occ. eigenvalues --   -0.41987  -0.41489  -0.41315  -0.40551  -0.40292
 Alpha  occ. eigenvalues --   -0.40258  -0.39979  -0.39909  -0.39661  -0.39301
 Alpha  occ. eigenvalues --   -0.39035  -0.38754  -0.38585  -0.38449  -0.38303
 Alpha  occ. eigenvalues --   -0.37963  -0.37312  -0.36665  -0.35971  -0.35838
 Alpha  occ. eigenvalues --   -0.35702  -0.35285  -0.35043  -0.33827  -0.33350
 Alpha  occ. eigenvalues --   -0.32642  -0.32393  -0.32049  -0.31949  -0.25980
 Alpha  occ. eigenvalues --   -0.22807
 Alpha virt. eigenvalues --   -0.07254   0.00663   0.02717   0.04425   0.04761
 Alpha virt. eigenvalues --    0.06989   0.08062   0.08341   0.08457   0.09804
 Alpha virt. eigenvalues --    0.11011   0.11340   0.11438   0.11770   0.12554

 Mulliken charges:
               1
     1  Mg   0.937600
     2  C    0.022976
     3  C   -0.080299
     4  C   -0.028847
     5  C   -0.069291
     6  N   -0.376470
     7  C    0.016358
     8  C   -0.106302
     9  C   -0.136552
    10  C    0.112978
    11  C    0.039899
    12  C    0.032829
    13  C    0.011922
    14  C    0.205778
    15  O   -0.284248
    16  O   -0.333528
    17  N   -0.416765
    18  C    0.141192
    19  C   -0.211278
    20  C   -0.063165
    21  C    0.115043
    22  C    0.076832
    23  C    0.091222
    24  O   -0.197832
    25  C   -0.059169
    26  N   -0.364503
    27  C    0.001856
    28  C   -0.087443
    29  C   -0.049690
    30  C    0.078159
    31  C   -0.003144
    32  C   -0.039845
    33  C   -0.040993
    34  N   -0.374663
    35  C    0.093322
    36  C   -0.173518
    37  C   -0.001778
    38  C    0.069254
    39  C    0.058984
    40  C    0.142327
    41  O   -0.203977
    42  C   -0.140085
    43  C    0.254054
    44  O   -0.248987
    45  O   -0.316767
    46  C    0.126545
    47  C    0.281016
    48  C   -0.178968
    49  C   -0.195689
    50  C    0.017606
    51  C    0.038703
    52  C   -0.002277
    53  C    0.036579
    54  C   -0.213583
    55  C   -0.000153
    56  C    0.034644
    57  C   -0.038087
    58  C    0.003365
    59  C   -0.214578
    60  C    0.000889
    61  C    0.045556
    62  C   -0.040971
    63  C    0.008551
    64  C   -0.184991
    65  C   -0.025755
    66  C    0.020276
    67  H    0.002655
    68  H    0.014878
    69  H    0.002675
    70  H    0.035447
    71  H    0.018336
    72  H    0.027503
    73  H    0.024178
    74  H    0.063944
    75  H    0.029354
    76  H    0.043660
    77  H    0.048833
    78  H    0.076653
    79  H    0.044632
    80  H    0.025856
    81  H    0.054043
    82  H    0.053743
    83  H    0.054634
    84  H    0.052505
    85  H    0.045775
    86  H    0.028179
    87  H    0.057671
    88  H    0.039538
    89  H    0.041928
    90  H    0.035531
    91  H    0.037736
    92  H    0.047577
    93  H    0.029821
    94  H    0.035904
    95  H    0.037040
    96  H    0.052687
    97  H    0.066579
    98  H    0.082460
    99  H    0.065129
   100  H    0.056236
   101  H    0.061429
   102  H    0.074690
   103  H    0.033655
   104  H    0.013386
   105  H    0.030147
   106  H    0.022589
   107  H    0.053982
   108  H    0.026102
   109  H    0.010839
   110  H    0.016986
   111  H    0.004811
   112  H    0.038120
   113  H    0.025211
   114  H    0.035907
   115  H    0.043905
   116  H    0.007841
   117  H    0.031182
   118  H    0.021620
   119  H    0.011009
   120  H    0.018997
   121  H    0.023573
   122  H    0.014296
   123  H    0.018966
   124  H    0.011551
   125  H    0.025386
   126  H    0.023833
   127  H    0.029683
   128  H    0.014367
   129  H    0.008691
   130  H    0.024560
   131  H   -0.011686
   132  H    0.017018
   133  H    0.013130
   134  H    0.030112
   135  H    0.010966
   136  H    0.011082
   137  H    0.022557
   138  H    0.027645
   139  H    0.020000
   140  H    0.036418
 Sum of Mulliken charges =  -0.00000

 Dipole moment (field-independent basis, Debye):
    X=             -1.8855    Y=              3.0877    Z=             -0.4129  Tot=              3.6413
 Quadrupole moment (field-independent basis, Debye-Ang):
   XX=           -366.0035   YY=           -411.2756   ZZ=           -412.2048
   XY=              4.7080   XZ=             20.7496   YZ=              4.2112

 Normal termination of Gaussian 16 at Thu Apr 28 01:06:16 2022.
