 Gaussian 16, Revision A.03,
 Gaussian 16:  ES64L-G16RevA.03 25-Dec-2016

 --------------------
 #p ZINDO=(nstates=5)
 --------------------

 -----------------------------
 step_1351_chromophore_4 ZINDO
 -----------------------------
 Symbolic Z-matrix:
 Charge =  0 Multiplicity = 1

                         Standard orientation:
 ---------------------------------------------------------------------
 Center     Atomic      Atomic             Coordinates (Angstroms)
 Number     Number       Type             X           Y           Z
 ---------------------------------------------------------------------
      1         12           0        5.809326    0.466545    0.147856
      2          6           0        3.499180   -2.174723   -0.119528
      3          6           0        3.232373    2.747711   -0.437608
      4          6           0        8.145102    2.887396   -0.169566
      5          6           0        8.351478   -2.002512    0.271944
      6          7           0        3.675761    0.280016   -0.478676
      7          6           0        2.947866   -0.911665   -0.317580
      8          6           0        1.429637   -0.623585   -0.418427
      9          6           0        1.430568    0.939961   -0.848996
     10          6           0        2.921155    1.419656   -0.505862
     11          6           0        0.972047    1.282143   -2.305998
     12          6           0        0.636598   -0.963400    0.814910
     13          6           0       -0.835747   -0.431448    0.888508
     14          6           0       -1.841823   -1.530541    1.249971
     15          8           0       -1.904346   -2.177049    2.299974
     16          8           0       -2.736080   -1.818793    0.301859
     17          7           0        5.710552    2.569012   -0.255098
     18          6           0        4.560554    3.259923   -0.403598
     19          6           0        4.974565    4.664803   -0.450671
     20          6           0        6.348967    4.792448   -0.187869
     21          6           0        6.781758    3.410432   -0.199087
     22          6           0        4.032769    5.761461   -0.785384
     23          6           0        7.333465    6.013287   -0.170219
     24          8           0        8.528730    5.911402   -0.109416
     25          6           0        6.668492    7.452688   -0.194111
     26          7           0        7.949276    0.447444   -0.003871
     27          6           0        8.696886    1.612790   -0.056298
     28          6           0       10.214273    1.265506    0.020314
     29          6           0       10.201583   -0.241513    0.292525
     30          6           0        8.757113   -0.613399    0.221677
     31          6           0       11.033406    1.759652   -1.323563
     32          6           0       10.919856   -0.634406    1.628688
     33          6           0       12.373062   -0.168986    1.865756
     34          7           0        5.921221   -1.670154    0.115005
     35          6           0        7.017374   -2.472585    0.222018
     36          6           0        6.656131   -3.803467    0.544639
     37          6           0        5.286168   -3.790968    0.366977
     38          6           0        4.875996   -2.458086    0.143189
     39          6           0        7.487818   -4.990361    0.824925
     40          6           0        4.065650   -4.579838    0.367933
     41          8           0        3.899363   -5.769797    0.602568
     42          6           0        2.807099   -3.609551    0.010287
     43          6           0        2.202144   -3.881209   -1.295588
     44          8           0        2.644729   -3.583999   -2.392693
     45          8           0        1.122673   -4.560248   -1.022662
     46          6           0        0.109525   -4.762564   -2.036285
     47          6           0       -3.710706   -2.884611    0.456981
     48          6           0       -5.133494   -2.357454    0.570818
     49          6           0       -6.281401   -3.008147    0.598693
     50          6           0       -6.245523   -4.460752    0.289929
     51          6           0       -7.530897   -2.217276    0.851893
     52          6           0       -8.260864   -1.566634   -0.284330
     53          6           0       -7.808612   -0.116235   -0.615673
     54          6           0       -9.144438    0.781442   -0.474570
     55          6           0       -9.942749    0.815841   -1.820044
     56          6           0       -8.749758    2.288020   -0.114264
     57          6           0       -9.298404    2.599819    1.303181
     58          6           0      -10.824441    3.073989    1.180447
     59          6           0      -11.754807    2.322962    2.147491
     60          6           0      -11.669967    3.046572    3.513732
     61          6           0      -13.207163    2.263326    1.654445
     62          6           0      -13.495186    1.106028    0.759470
     63          6           0      -14.587721    1.381277   -0.312850
     64          6           0      -14.545834    0.365741   -1.527024
     65          6           0      -14.714878    1.012903   -2.841479
     66          6           0      -15.578163   -0.733508   -1.401495
     67          1           0        2.461166    3.517742   -0.513568
     68          1           0        8.982909    3.575735   -0.291756
     69          1           0        9.018351   -2.777953    0.654133
     70          1           0        1.061490   -1.176582   -1.282330
     71          1           0        0.735640    1.438090   -0.172825
     72          1           0        0.412038    2.217091   -2.285046
     73          1           0        0.171492    0.572652   -2.514543
     74          1           0        1.734611    1.274135   -3.084198
     75          1           0        1.257087   -0.591702    1.629421
     76          1           0        0.733662   -2.040702    0.954005
     77          1           0       -1.117616   -0.092502   -0.108489
     78          1           0       -0.848650    0.448650    1.531007
     79          1           0        4.016702    6.425063    0.078532
     80          1           0        3.054184    5.309177   -0.950915
     81          1           0        4.349834    6.331664   -1.659391
     82          1           0        5.923911    7.659398    0.574437
     83          1           0        6.166312    7.688099   -1.132923
     84          1           0        7.482898    8.159016   -0.028498
     85          1           0       10.620947    1.783104    0.890007
     86          1           0       10.755062   -0.643083   -0.556397
     87          1           0       10.430700    2.114438   -2.159488
     88          1           0       11.739971    0.975840   -1.597057
     89          1           0       11.593491    2.648884   -1.033963
     90          1           0       11.021707   -1.717829    1.558793
     91          1           0       10.236586   -0.382572    2.440105
     92          1           0       12.491805    0.280324    2.850793
     93          1           0       12.720760    0.541189    1.115191
     94          1           0       13.072687   -0.998457    1.759463
     95          1           0        8.322304   -4.919219    1.522310
     96          1           0        8.017174   -5.331908   -0.064199
     97          1           0        6.788893   -5.747049    1.181434
     98          1           0        2.005136   -3.673307    0.746100
     99          1           0        0.097796   -5.834265   -2.234691
    100          1           0        0.345195   -4.335315   -3.011434
    101          1           0       -0.806619   -4.282589   -1.692537
    102          1           0       -3.638294   -3.620141    1.258278
    103          1           0       -3.688968   -3.458276   -0.469753
    104          1           0       -5.134123   -1.279948    0.732898
    105          1           0       -5.537241   -4.692518   -0.505814
    106          1           0       -7.255900   -4.677481   -0.058433
    107          1           0       -6.080228   -5.229934    1.044475
    108          1           0       -7.211971   -1.495490    1.603954
    109          1           0       -8.187992   -2.894418    1.397906
    110          1           0       -9.339277   -1.647049   -0.147960
    111          1           0       -8.165079   -2.210918   -1.158680
    112          1           0       -7.401450   -0.124887   -1.627743
    113          1           0       -7.107556    0.140263    0.177763
    114          1           0       -9.835711    0.371612    0.261842
    115          1           0      -11.012340    0.644029   -1.700486
    116          1           0       -9.523768   -0.001058   -2.408631
    117          1           0       -9.721082    1.678759   -2.447547
    118          1           0       -9.099690    3.059725   -0.800965
    119          1           0       -7.671609    2.450399   -0.115464
    120          1           0       -8.765499    3.399802    1.818483
    121          1           0       -9.299531    1.748203    1.984091
    122          1           0      -11.218238    2.896657    0.179178
    123          1           0      -10.916209    4.126891    1.445002
    124          1           0      -11.448580    1.285596    2.282317
    125          1           0      -10.641214    3.110688    3.867899
    126          1           0      -12.216959    2.448285    4.242374
    127          1           0      -12.100193    4.045501    3.445176
    128          1           0      -13.469371    3.201659    1.166151
    129          1           0      -13.792521    2.016922    2.539839
    130          1           0      -13.664282    0.170800    1.293333
    131          1           0      -12.574035    0.976107    0.191349
    132          1           0      -14.606544    2.428506   -0.614462
    133          1           0      -15.526141    1.243878    0.224229
    134          1           0      -13.538325   -0.037977   -1.631504
    135          1           0      -15.152519    0.414205   -3.640675
    136          1           0      -13.758371    1.247796   -3.308373
    137          1           0      -15.261279    1.945279   -2.983444
    138          1           0      -15.952485   -0.795391   -0.380296
    139          1           0      -14.987832   -1.627143   -1.606336
    140          1           0      -16.345832   -0.699189   -2.174514
 ---------------------------------------------------------------------

 SCF Done:  E(RZINDO/S) =  -474.371136819     A.U. after   19 cycles

 Excitation energies and oscillator strengths:

 Excited State   1:      Singlet-A      1.2138 eV 1021.46 nm  f=0.6466  <S**2>=0.000
     175 ->178        -0.18443
     176 ->177         0.66447
 This state for optimization and/or second-order correction.
 Total Energy, E(CIS/TDA) =  -474.326530901
 Copying the excited state density for this state as the 1-particle RhoCI density.

 Excited State   2:      Singlet-A      1.9226 eV  644.87 nm  f=0.0746  <S**2>=0.000
     175 ->177         0.57186
     176 ->178         0.38863

 Excited State   3:      Singlet-A      3.0047 eV  412.64 nm  f=0.0933  <S**2>=0.000
     168 ->179        -0.10888
     169 ->177         0.31848
     169 ->179        -0.36022
     169 ->181         0.19439
     169 ->185        -0.17784
     170 ->177         0.10549
     176 ->178        -0.14661
     176 ->179         0.12273

 Excited State   4:      Singlet-A      3.0314 eV  409.01 nm  f=0.0023  <S**2>=0.000
     176 ->179         0.45961
     176 ->180         0.49005

 Excited State   5:      Singlet-A      3.0384 eV  408.06 nm  f=0.9706  <S**2>=0.000
     171 ->177        -0.16418
     175 ->177        -0.33728
     176 ->178         0.52798

 The electronic state is 1-A.
 Alpha  occ. eigenvalues --   -1.86109  -1.80459  -1.78674  -1.75699  -1.74376
 Alpha  occ. eigenvalues --   -1.70188  -1.66469  -1.61212  -1.58202  -1.57360
 Alpha  occ. eigenvalues --   -1.56836  -1.51979  -1.49384  -1.48230  -1.46320
 Alpha  occ. eigenvalues --   -1.43191  -1.42876  -1.40173  -1.39832  -1.36934
 Alpha  occ. eigenvalues --   -1.35187  -1.34732  -1.33955  -1.31307  -1.27551
 Alpha  occ. eigenvalues --   -1.26959  -1.25127  -1.21846  -1.20647  -1.18992
 Alpha  occ. eigenvalues --   -1.18067  -1.16093  -1.15789  -1.14067  -1.13881
 Alpha  occ. eigenvalues --   -1.12497  -1.11676  -1.10779  -1.05320  -1.03792
 Alpha  occ. eigenvalues --   -1.03016  -1.01198  -0.99391  -0.97929  -0.96840
 Alpha  occ. eigenvalues --   -0.95562  -0.94523  -0.93077  -0.91923  -0.91530
 Alpha  occ. eigenvalues --   -0.91365  -0.90889  -0.89988  -0.87445  -0.85991
 Alpha  occ. eigenvalues --   -0.85828  -0.84167  -0.82988  -0.82499  -0.81378
 Alpha  occ. eigenvalues --   -0.80155  -0.79582  -0.77325  -0.77155  -0.76977
 Alpha  occ. eigenvalues --   -0.75840  -0.75699  -0.74514  -0.74117  -0.73923
 Alpha  occ. eigenvalues --   -0.73128  -0.73021  -0.71989  -0.71531  -0.70620
 Alpha  occ. eigenvalues --   -0.70028  -0.69822  -0.68905  -0.68535  -0.67847
 Alpha  occ. eigenvalues --   -0.67612  -0.67287  -0.66423  -0.65725  -0.65492
 Alpha  occ. eigenvalues --   -0.65118  -0.64907  -0.64363  -0.63963  -0.63502
 Alpha  occ. eigenvalues --   -0.63047  -0.62710  -0.62354  -0.62025  -0.61879
 Alpha  occ. eigenvalues --   -0.61000  -0.60814  -0.60401  -0.60283  -0.59949
 Alpha  occ. eigenvalues --   -0.59653  -0.58701  -0.58477  -0.58374  -0.58333
 Alpha  occ. eigenvalues --   -0.58096  -0.57714  -0.57287  -0.56641  -0.56412
 Alpha  occ. eigenvalues --   -0.56356  -0.56005  -0.55783  -0.55502  -0.55221
 Alpha  occ. eigenvalues --   -0.54354  -0.54242  -0.53627  -0.53428  -0.52974
 Alpha  occ. eigenvalues --   -0.52748  -0.52325  -0.51935  -0.51930  -0.51048
 Alpha  occ. eigenvalues --   -0.50902  -0.50807  -0.50313  -0.50130  -0.49788
 Alpha  occ. eigenvalues --   -0.49640  -0.49524  -0.49217  -0.49105  -0.48983
 Alpha  occ. eigenvalues --   -0.48883  -0.48679  -0.48245  -0.48078  -0.47817
 Alpha  occ. eigenvalues --   -0.47385  -0.47052  -0.46772  -0.46685  -0.46465
 Alpha  occ. eigenvalues --   -0.46238  -0.45895  -0.45717  -0.45594  -0.45033
 Alpha  occ. eigenvalues --   -0.45019  -0.44740  -0.44600  -0.44512  -0.44270
 Alpha  occ. eigenvalues --   -0.43683  -0.43509  -0.42702  -0.42536  -0.41948
 Alpha  occ. eigenvalues --   -0.41629  -0.41204  -0.41055  -0.38553  -0.38417
 Alpha  occ. eigenvalues --   -0.38176  -0.36638  -0.35862  -0.35179  -0.34566
 Alpha  occ. eigenvalues --   -0.33267  -0.32747  -0.32394  -0.32173  -0.26687
 Alpha  occ. eigenvalues --   -0.21642
 Alpha virt. eigenvalues --   -0.08778  -0.01549  -0.00234   0.01270   0.01472
 Alpha virt. eigenvalues --    0.01904   0.03031   0.03088   0.04841   0.05388
 Alpha virt. eigenvalues --    0.06233   0.06855   0.07172   0.07968   0.08106

 Mulliken charges:
               1
     1  Mg   0.429103
     2  C   -0.056037
     3  C   -0.076254
     4  C   -0.057390
     5  C   -0.084637
     6  N   -0.300093
     7  C    0.135261
     8  C    0.001177
     9  C   -0.015381
    10  C    0.127399
    11  C   -0.048118
    12  C   -0.015693
    13  C    0.013260
    14  C    0.471746
    15  O   -0.537799
    16  O   -0.260454
    17  N   -0.307938
    18  C    0.096881
    19  C    0.005417
    20  C   -0.058490
    21  C    0.123635
    22  C   -0.048450
    23  C    0.331083
    24  O   -0.490561
    25  C   -0.039656
    26  N   -0.259858
    27  C    0.107308
    28  C   -0.002884
    29  C    0.008127
    30  C    0.141549
    31  C   -0.058337
    32  C   -0.027820
    33  C   -0.055359
    34  N   -0.315024
    35  C    0.103770
    36  C    0.052110
    37  C   -0.048874
    38  C    0.135379
    39  C   -0.036743
    40  C    0.332191
    41  O   -0.513856
    42  C    0.041123
    43  C    0.503219
    44  O   -0.542293
    45  O   -0.251020
    46  C    0.070866
    47  C    0.108656
    48  C   -0.083557
    49  C   -0.005953
    50  C   -0.043418
    51  C   -0.008684
    52  C   -0.029054
    53  C   -0.035612
    54  C   -0.017148
    55  C   -0.064813
    56  C   -0.037532
    57  C   -0.042662
    58  C   -0.041475
    59  C   -0.016482
    60  C   -0.058017
    61  C   -0.032638
    62  C   -0.036117
    63  C   -0.039215
    64  C   -0.000090
    65  C   -0.054897
    66  C   -0.054801
    67  H    0.034152
    68  H    0.038474
    69  H    0.034582
    70  H    0.032058
    71  H    0.014922
    72  H    0.016482
    73  H    0.013795
    74  H    0.040531
    75  H    0.023385
    76  H    0.029625
    77  H    0.029471
    78  H    0.051885
    79  H    0.028119
    80  H    0.022785
    81  H    0.032062
    82  H    0.033550
    83  H    0.036902
    84  H    0.030649
    85  H    0.032985
    86  H    0.031803
    87  H    0.035589
    88  H    0.024003
    89  H    0.018634
    90  H    0.012425
    91  H    0.028596
    92  H    0.023402
    93  H    0.019310
    94  H    0.018351
    95  H    0.027516
    96  H    0.033944
    97  H    0.034052
    98  H    0.060307
    99  H    0.043998
   100  H    0.042955
   101  H    0.039313
   102  H    0.066737
   103  H    0.032709
   104  H    0.019379
   105  H    0.023039
   106  H    0.010090
   107  H    0.036439
   108  H    0.020411
   109  H    0.011215
   110  H    0.017954
   111  H    0.009907
   112  H    0.034920
   113  H    0.029288
   114  H    0.035732
   115  H    0.025706
   116  H    0.008072
   117  H    0.022921
   118  H    0.023264
   119  H    0.011201
   120  H    0.014173
   121  H    0.023517
   122  H    0.018167
   123  H    0.021685
   124  H    0.019319
   125  H    0.015490
   126  H    0.010085
   127  H    0.022182
   128  H    0.026949
   129  H    0.013720
   130  H    0.024602
   131  H    0.007403
   132  H    0.024023
   133  H    0.011985
   134  H    0.023347
   135  H    0.008207
   136  H    0.000267
   137  H    0.016607
   138  H    0.021731
   139  H    0.010618
   140  H    0.028253
 Sum of Mulliken charges =  -0.00000

 Dipole moment (field-independent basis, Debye):
    X=             -3.4735    Y=              4.4768    Z=              0.0411  Tot=              5.6665
 N-N= 4.263569832638D+03 E-N= 0.000000000000D+00  KE=-9.201528217282D+03
 Leave Link  601 at Thu Apr 28 01:20:18 2022, MaxMem=  6710886400 cpu:               1.4 elap:               0.1
 (Enter /sw/apps/gaussian-16.0/g16/l9999.exe)
 1\1\GINC-BP1-COMPUTE142\SP\RZINDO CIS\STO-3G\C55H74Mg1N4O6\OF15641\28-
 Apr-2022\0\\#p ZINDO=(nstates=5)\\step_1351_chromophore_4 ZINDO\\0,1\M
 g,0,9.121,2.994,27.664\C,0,10.061,1.39,30.652\C,0,7.707,5.585,29.528\C
 ,0,7.743,4.173,24.813\C,0,10.197,0.074,25.964\N,0,8.696,3.301,29.833\C
 ,0,9.366,2.582,30.838\C,0,9.199,3.296,32.202\C,0,8.15,4.472,31.819\C,0
 ,8.214,4.521,30.218\C,0,6.699,4.353,32.394\C,0,10.484,3.747,32.843\C,0
 ,10.371,4.723,34.064\C,0,11.192,4.254,35.271\O,0,12.418,4.127,35.343\O

 Normal termination of Gaussian 16 at Thu Apr 28 01:20:18 2022.
