 Gaussian 16, Revision A.03,
 Gaussian 16:  ES64L-G16RevA.03 25-Dec-2016

 ------------------------------
 #p blyp/Def2SVP td=(nstates=5)
 ------------------------------

 --------------------------------------------------
 step_501_chromophore_22 TDDFT with blyp functional
 --------------------------------------------------
 Symbolic Z-matrix:
 Charge =  0 Multiplicity = 1

                         Standard orientation:
 ---------------------------------------------------------------------
 Center     Atomic      Atomic             Coordinates (Angstroms)
 Number     Number       Type             X           Y           Z
 ---------------------------------------------------------------------
      1         12           0        5.981297    0.581964   -0.014047
      2          6           0        3.543120   -2.018893   -0.645879
      3          6           0        3.875202    2.600544   -1.402241
      4          6           0        8.435627    2.742610    0.398770
      5          6           0        8.475863   -1.949720    0.745799
      6          7           0        3.848467    0.298562   -0.819346
      7          6           0        3.036422   -0.801354   -1.002696
      8          6           0        1.764981   -0.401019   -1.659996
      9          6           0        2.109648    0.960218   -2.317159
     10          6           0        3.380096    1.315406   -1.509200
     11          6           0        2.423377    0.878088   -3.827166
     12          6           0        0.661202   -0.183609   -0.580490
     13          6           0       -0.763460   -0.780628   -0.902226
     14          6           0       -1.795570   -1.037491    0.266874
     15          8           0       -1.650560   -0.750845    1.484858
     16          8           0       -2.775080   -1.828479   -0.240050
     17          7           0        6.082651    2.526548   -0.436318
     18          6           0        5.090150    3.235797   -0.903861
     19          6           0        5.498267    4.627834   -0.922657
     20          6           0        6.759923    4.631295   -0.282425
     21          6           0        7.143321    3.256499   -0.108653
     22          6           0        4.531839    5.729726   -1.393673
     23          6           0        7.572502    5.843186    0.079571
     24          8           0        8.644051    5.716993    0.592622
     25          6           0        6.982185    7.201648   -0.115340
     26          7           0        8.284718    0.331488    0.243317
     27          6           0        8.937353    1.455984    0.530039
     28          6           0       10.268657    1.191819    1.126650
     29          6           0       10.322113   -0.366174    1.036065
     30          6           0        8.921390   -0.748199    0.636371
     31          6           0       11.505900    1.957158    0.533576
     32          6           0       10.806605   -0.999570    2.398406
     33          6           0       12.242327   -1.584384    2.508563
     34          7           0        6.083961   -1.450677    0.056847
     35          6           0        7.090413   -2.363744    0.443387
     36          6           0        6.547100   -3.737269    0.407406
     37          6           0        5.219692   -3.611425    0.020128
     38          6           0        4.972411   -2.271562   -0.226286
     39          6           0        7.375114   -5.029839    0.606761
     40          6           0        3.993925   -4.430839   -0.246378
     41          8           0        3.735532   -5.607369   -0.150605
     42          6           0        2.888839   -3.435328   -0.863212
     43          6           0        1.607899   -3.656786   -0.299689
     44          8           0        1.206518   -3.027043    0.688926
     45          8           0        0.829281   -4.651190   -0.883568
     46          6           0       -0.598582   -4.792870   -0.463332
     47          6           0       -3.692031   -2.445455    0.713788
     48          6           0       -5.047341   -2.453831   -0.062348
     49          6           0       -6.252408   -2.996631    0.219864
     50          6           0       -6.421682   -3.958084    1.408864
     51          6           0       -7.454071   -2.789093   -0.602740
     52          6           0       -8.398057   -1.712638   -0.063154
     53          6           0       -8.294138   -0.318752   -0.753719
     54          6           0       -9.631272    0.425093   -0.645529
     55          6           0      -10.501572    0.258419   -1.958575
     56          6           0       -9.458260    1.975703   -0.281090
     57          6           0       -9.654470    2.146867    1.280985
     58          6           0      -10.825377    3.181072    1.547875
     59          6           0      -12.072270    2.556148    2.191776
     60          6           0      -12.140841    2.980191    3.670152
     61          6           0      -13.508459    2.979664    1.624153
     62          6           0      -14.365057    1.719269    1.374965
     63          6           0      -14.062288    1.104809    0.052938
     64          6           0      -15.313830    0.320816   -0.525732
     65          6           0      -14.828170   -0.987806   -0.996193
     66          6           0      -16.063906    1.141006   -1.588722
     67          1           0        3.242310    3.392800   -1.805958
     68          1           0        9.230117    3.464846    0.597319
     69          1           0        9.210481   -2.721457    0.980780
     70          1           0        1.534053   -1.090566   -2.472389
     71          1           0        1.354088    1.741973   -2.241595
     72          1           0        1.720367    1.486506   -4.396894
     73          1           0        2.329006   -0.169120   -4.112972
     74          1           0        3.438360    1.170588   -4.097622
     75          1           0        0.568279    0.899294   -0.496082
     76          1           0        1.076969   -0.570507    0.349637
     77          1           0       -0.613650   -1.702028   -1.464316
     78          1           0       -1.179279   -0.027277   -1.572356
     79          1           0        4.293747    6.365528   -0.539943
     80          1           0        3.622471    5.388454   -1.887137
     81          1           0        5.051178    6.428217   -2.049172
     82          1           0        6.090005    7.359339    0.490104
     83          1           0        6.582414    7.426495   -1.104080
     84          1           0        7.700437    7.946731    0.227721
     85          1           0       10.215521    1.465482    2.180407
     86          1           0       10.938310   -0.655511    0.184505
     87          1           0       11.105192    2.670208   -0.186156
     88          1           0       12.323195    1.355351    0.134575
     89          1           0       11.996213    2.494963    1.345208
     90          1           0       10.153717   -1.835929    2.649575
     91          1           0       10.493315   -0.284068    3.158664
     92          1           0       12.711079   -1.242590    3.431212
     93          1           0       12.824670   -1.283353    1.637558
     94          1           0       12.211105   -2.673581    2.555633
     95          1           0        8.171219   -4.806036    1.316297
     96          1           0        7.883542   -5.274316   -0.326177
     97          1           0        6.762914   -5.858529    0.963304
     98          1           0        2.842648   -3.613658   -1.937131
     99          1           0       -1.170974   -3.897614   -0.710279
    100          1           0       -0.680783   -5.198943    0.544144
    101          1           0       -1.059632   -5.482724   -1.170067
    102          1           0       -3.867600   -1.929875    1.658461
    103          1           0       -3.471371   -3.508173    0.811264
    104          1           0       -5.056463   -1.846770   -0.967716
    105          1           0       -6.677154   -4.946011    1.024925
    106          1           0       -7.158471   -3.696171    2.168210
    107          1           0       -5.453025   -4.060524    1.898041
    108          1           0       -8.000425   -3.718721   -0.760727
    109          1           0       -7.089408   -2.424927   -1.563577
    110          1           0       -8.182397   -1.434281    0.967999
    111          1           0       -9.384297   -2.105902   -0.312644
    112          1           0       -8.056649   -0.447911   -1.810277
    113          1           0       -7.480953    0.212346   -0.260190
    114          1           0      -10.146444   -0.058777    0.184526
    115          1           0      -10.130152    0.806921   -2.823389
    116          1           0      -11.475502    0.648670   -1.661643
    117          1           0      -10.540070   -0.792497   -2.246725
    118          1           0      -10.179687    2.623789   -0.780439
    119          1           0       -8.456147    2.217101   -0.635433
    120          1           0       -8.728952    2.664622    1.533322
    121          1           0       -9.642807    1.203938    1.827187
    122          1           0      -11.072617    3.703326    0.623365
    123          1           0      -10.262335    3.905725    2.134915
    124          1           0      -11.871398    1.485484    2.197446
    125          1           0      -11.362447    2.392961    4.157652
    126          1           0      -13.163851    2.852029    4.024286
    127          1           0      -11.935427    4.049487    3.624097
    128          1           0      -13.227349    3.516678    0.718681
    129          1           0      -14.079125    3.670206    2.246688
    130          1           0      -15.398364    2.037128    1.516527
    131          1           0      -14.128233    1.029580    2.185479
    132          1           0      -13.305226    0.361402    0.301979
    133          1           0      -13.715322    1.731414   -0.768335
    134          1           0      -16.036984    0.081429    0.253520
    135          1           0      -14.307503   -1.517183   -0.198210
    136          1           0      -14.333742   -0.851876   -1.957208
    137          1           0      -15.713569   -1.601168   -1.164877
    138          1           0      -15.407103    1.260423   -2.450482
    139          1           0      -16.310039    2.092461   -1.116363
    140          1           0      -16.998176    0.659861   -1.877241
 ---------------------------------------------------------------------

 SCF Done:  E(RB-LYP) =  -3007.34320036     A.U. after   22 cycles

 Excitation energies and oscillator strengths:

 Excited State   1:      Singlet-A      1.8376 eV  674.72 nm  f=0.2947  <S**2>=0.000
     245 -> 248        0.16893
     246 -> 247        0.69244
     246 <- 247       -0.15107
 This state for optimization and/or second-order correction.
 Total Energy, E(TD-HF/TD-DFT) =  -3007.27567081
 Copying the excited state density for this state as the 1-particle RhoCI density.

 Excited State   2:      Singlet-A      2.0057 eV  618.15 nm  f=0.1034  <S**2>=0.000
     243 -> 247       -0.19274
     244 -> 247        0.35242
     245 -> 247        0.55757
     246 -> 248       -0.13627

 Excited State   3:      Singlet-A      2.0279 eV  611.40 nm  f=0.0410  <S**2>=0.000
     243 -> 247        0.12977
     244 -> 247        0.61031
     245 -> 247       -0.31398

 Excited State   4:      Singlet-A      2.1356 eV  580.57 nm  f=0.0150  <S**2>=0.000
     243 -> 247        0.66465
     245 -> 247        0.21573

 Excited State   5:      Singlet-A      2.2964 eV  539.91 nm  f=0.0000  <S**2>=0.000
     242 -> 247        0.70709

 The electronic state is 1-A.
 Alpha  occ. eigenvalues --  -46.27811 -18.83269 -18.81176 -18.76729 -18.76726
 Alpha  occ. eigenvalues --  -18.75648 -18.75534 -14.02774 -14.01562 -14.01487
 Alpha  occ. eigenvalues --  -14.01106 -10.04727 -10.03120 -10.00812  -9.99658
 Alpha  occ. eigenvalues --   -9.98925  -9.97742  -9.96293  -9.96213  -9.95964
 Alpha  occ. eigenvalues --   -9.95838  -9.95753  -9.95396  -9.95352  -9.94391
 Alpha  occ. eigenvalues --   -9.94148  -9.94106  -9.94089  -9.94078  -9.94007
 Alpha  occ. eigenvalues --   -9.93997  -9.93762  -9.93406  -9.92894  -9.92755
 Alpha  occ. eigenvalues --   -9.92747  -9.92577  -9.92529  -9.92327  -9.92309
 Alpha  occ. eigenvalues --   -9.92292  -9.92237  -9.92118  -9.92059  -9.91987
 Alpha  occ. eigenvalues --   -9.91954  -9.91953  -9.91778  -9.91696  -9.91666
 Alpha  occ. eigenvalues --   -9.91657  -9.91563  -9.91508  -9.91383  -9.91320
 Alpha  occ. eigenvalues --   -9.91210  -9.91050  -9.91044  -9.91034  -9.91001
 Alpha  occ. eigenvalues --   -9.90992  -9.90941  -9.90890  -9.90656  -9.90383
 Alpha  occ. eigenvalues --   -9.90203  -2.92429  -1.72841  -1.72352  -1.72118
 Alpha  occ. eigenvalues --   -0.98176  -0.95812  -0.93304  -0.92676  -0.88506
 Alpha  occ. eigenvalues --   -0.88286  -0.87907  -0.87226  -0.87059  -0.83846
 Alpha  occ. eigenvalues --   -0.74340  -0.73772  -0.73161  -0.72747  -0.72166
 Alpha  occ. eigenvalues --   -0.71856  -0.71400  -0.70985  -0.70923  -0.70616
 Alpha  occ. eigenvalues --   -0.69144  -0.68949  -0.68067  -0.67505  -0.66945
 Alpha  occ. eigenvalues --   -0.66419  -0.65701  -0.65457  -0.65096  -0.64539
 Alpha  occ. eigenvalues --   -0.63942  -0.62799  -0.62252  -0.61645  -0.61152
 Alpha  occ. eigenvalues --   -0.60501  -0.60438  -0.60075  -0.58920  -0.58474
 Alpha  occ. eigenvalues --   -0.58238  -0.57819  -0.56257  -0.55195  -0.54395
 Alpha  occ. eigenvalues --   -0.53911  -0.53334  -0.53251  -0.51990  -0.51737
 Alpha  occ. eigenvalues --   -0.51557  -0.51030  -0.50656  -0.50162  -0.50029
 Alpha  occ. eigenvalues --   -0.49794  -0.48842  -0.48511  -0.47738  -0.47320
 Alpha  occ. eigenvalues --   -0.46687  -0.45968  -0.45545  -0.44592  -0.44296
 Alpha  occ. eigenvalues --   -0.43841  -0.43712  -0.43103  -0.42722  -0.42574
 Alpha  occ. eigenvalues --   -0.42326  -0.41694  -0.41451  -0.41232  -0.41146
 Alpha  occ. eigenvalues --   -0.40735  -0.40686  -0.40346  -0.40144  -0.39884
 Alpha  occ. eigenvalues --   -0.39786  -0.39654  -0.39295  -0.39044  -0.38907
 Alpha  occ. eigenvalues --   -0.38815  -0.38487  -0.38380  -0.37943  -0.37890
 Alpha  occ. eigenvalues --   -0.37678  -0.37503  -0.37416  -0.37258  -0.37131
 Alpha  occ. eigenvalues --   -0.37106  -0.37033  -0.36800  -0.36687  -0.36497
 Alpha  occ. eigenvalues --   -0.36379  -0.36055  -0.35761  -0.35615  -0.35599
 Alpha  occ. eigenvalues --   -0.35519  -0.35459  -0.35338  -0.35226  -0.34590
 Alpha  occ. eigenvalues --   -0.34448  -0.34293  -0.34058  -0.33975  -0.33903
 Alpha  occ. eigenvalues --   -0.33892  -0.33659  -0.33411  -0.33168  -0.33055
 Alpha  occ. eigenvalues --   -0.32853  -0.32807  -0.32784  -0.32436  -0.32368
 Alpha  occ. eigenvalues --   -0.32209  -0.32058  -0.31819  -0.31721  -0.31464
 Alpha  occ. eigenvalues --   -0.31373  -0.31313  -0.31192  -0.30852  -0.30812
 Alpha  occ. eigenvalues --   -0.30569  -0.30278  -0.30050  -0.29709  -0.29667
 Alpha  occ. eigenvalues --   -0.29351  -0.29288  -0.28983  -0.28934  -0.28897
 Alpha  occ. eigenvalues --   -0.28602  -0.28382  -0.28292  -0.28023  -0.27730
 Alpha  occ. eigenvalues --   -0.27466  -0.27081  -0.26960  -0.26783  -0.26611
 Alpha  occ. eigenvalues --   -0.26178  -0.25871  -0.25839  -0.25378  -0.25211
 Alpha  occ. eigenvalues --   -0.25086  -0.24250  -0.23490  -0.23301  -0.22689
 Alpha  occ. eigenvalues --   -0.22578  -0.22242  -0.21590  -0.21282  -0.20722
 Alpha  occ. eigenvalues --   -0.20609  -0.20124  -0.19380  -0.19035  -0.16876
 Alpha  occ. eigenvalues --   -0.16020
 Alpha virt. eigenvalues --   -0.11686  -0.05851  -0.05774  -0.04329  -0.03492
 Alpha virt. eigenvalues --   -0.02881  -0.02599  -0.01326  -0.00878   0.00276
 Alpha virt. eigenvalues --    0.01296   0.01635   0.02337   0.02750   0.02976

 Mulliken charges:
               1
     1  Mg   0.706306
     2  C   -0.008486
     3  C   -0.028393
     4  C   -0.023930
     5  C   -0.095196
     6  N   -0.175407
     7  C   -0.062490
     8  C    0.026427
     9  C   -0.037032
    10  C    0.037051
    11  C    0.139131
    12  C    0.148106
    13  C    0.079885
    14  C    0.144528
    15  O   -0.206363
    16  O   -0.266732
    17  N   -0.270028
    18  C    0.046562
    19  C   -0.124226
    20  C    0.040048
    21  C    0.072458
    22  C    0.168012
    23  C   -0.079039
    24  O   -0.128336
    25  C    0.124832
    26  N   -0.124307
    27  C   -0.040861
    28  C    0.013828
    29  C    0.073204
    30  C    0.002025
    31  C    0.128454
    32  C    0.073648
    33  C    0.085552
    34  N   -0.312811
    35  C    0.105434
    36  C   -0.207498
    37  C    0.080059
    38  C    0.092347
    39  C    0.165263
    40  C   -0.017041
    41  O   -0.098112
    42  C    0.073675
    43  C    0.105938
    44  O   -0.207618
    45  O   -0.292707
    46  C    0.218855
    47  C    0.334260
    48  C   -0.148489
    49  C   -0.164639
    50  C    0.123654
    51  C    0.191907
    52  C    0.050539
    53  C    0.100060
    54  C   -0.101893
    55  C    0.088557
    56  C    0.092586
    57  C    0.043679
    58  C    0.107231
    59  C   -0.091190
    60  C    0.112786
    61  C    0.107097
    62  C    0.084714
    63  C    0.089146
    64  C   -0.095496
    65  C    0.119514
    66  C    0.105369
    67  H   -0.083881
    68  H   -0.042924
    69  H   -0.059385
    70  H   -0.038071
    71  H   -0.026668
    72  H   -0.005222
    73  H   -0.019087
    74  H   -0.003728
    75  H   -0.024741
    76  H    0.021375
    77  H    0.006268
    78  H   -0.006576
    79  H   -0.000684
    80  H    0.000049
    81  H   -0.007528
    82  H   -0.000324
    83  H   -0.006056
    84  H   -0.007725
    85  H   -0.014314
    86  H   -0.029912
    87  H    0.005356
    88  H   -0.009810
    89  H   -0.015808
    90  H   -0.033593
    91  H   -0.038578
    92  H   -0.005647
    93  H   -0.006282
    94  H   -0.006255
    95  H   -0.012120
    96  H    0.005972
    97  H    0.014013
    98  H    0.008731
    99  H    0.010646
   100  H    0.033907
   101  H    0.000029
   102  H    0.036418
   103  H    0.013288
   104  H   -0.037986
   105  H   -0.005447
   106  H    0.000585
   107  H   -0.027529
   108  H   -0.036756
   109  H   -0.041345
   110  H   -0.012924
   111  H   -0.021953
   112  H   -0.043110
   113  H   -0.033657
   114  H   -0.026409
   115  H   -0.012841
   116  H   -0.005985
   117  H   -0.022020
   118  H   -0.035225
   119  H   -0.030549
   120  H   -0.041338
   121  H   -0.013890
   122  H   -0.035530
   123  H   -0.034465
   124  H   -0.029701
   125  H   -0.018447
   126  H   -0.016017
   127  H   -0.016314
   128  H   -0.048904
   129  H   -0.034306
   130  H   -0.036110
   131  H   -0.028729
   132  H   -0.026526
   133  H   -0.012420
   134  H   -0.045515
   135  H   -0.016727
   136  H   -0.014899
   137  H   -0.039837
   138  H   -0.012173
   139  H   -0.015610
   140  H   -0.014932
 Sum of Mulliken charges =  -0.00000

 Dipole moment (field-independent basis, Debye):
    X=             -2.1352    Y=              2.0715    Z=             -2.8780  Tot=              4.1392
 Quadrupole moment (field-independent basis, Debye-Ang):
   XX=           -373.8678   YY=           -413.1731   ZZ=           -405.0843
   XY=              1.5810   XZ=              1.1563   YZ=             -7.7539

 Normal termination of Gaussian 16 at Fri Apr 29 23:10:37 2022.
