 Gaussian 16, Revision A.03,
 Gaussian 16:  ES64L-G16RevA.03 25-Dec-2016

 -----------------------------------
 #p cam-b3lyp/Def2SVP td=(nstates=5)
 -----------------------------------

 -------------------------------------------------------
 step_501_chromophore_22 TDDFT with cam-b3lyp functional
 -------------------------------------------------------
 Symbolic Z-matrix:
 Charge =  0 Multiplicity = 1

                         Standard orientation:
 ---------------------------------------------------------------------
 Center     Atomic      Atomic             Coordinates (Angstroms)
 Number     Number       Type             X           Y           Z
 ---------------------------------------------------------------------
      1         12           0        5.981297    0.581964   -0.014047
      2          6           0        3.543120   -2.018893   -0.645879
      3          6           0        3.875202    2.600544   -1.402241
      4          6           0        8.435627    2.742610    0.398770
      5          6           0        8.475863   -1.949720    0.745799
      6          7           0        3.848467    0.298562   -0.819346
      7          6           0        3.036422   -0.801354   -1.002696
      8          6           0        1.764981   -0.401019   -1.659996
      9          6           0        2.109648    0.960218   -2.317159
     10          6           0        3.380096    1.315406   -1.509200
     11          6           0        2.423377    0.878088   -3.827166
     12          6           0        0.661202   -0.183609   -0.580490
     13          6           0       -0.763460   -0.780628   -0.902226
     14          6           0       -1.795570   -1.037491    0.266874
     15          8           0       -1.650560   -0.750845    1.484858
     16          8           0       -2.775080   -1.828479   -0.240050
     17          7           0        6.082651    2.526548   -0.436318
     18          6           0        5.090150    3.235797   -0.903861
     19          6           0        5.498267    4.627834   -0.922657
     20          6           0        6.759923    4.631295   -0.282425
     21          6           0        7.143321    3.256499   -0.108653
     22          6           0        4.531839    5.729726   -1.393673
     23          6           0        7.572502    5.843186    0.079571
     24          8           0        8.644051    5.716993    0.592622
     25          6           0        6.982185    7.201648   -0.115340
     26          7           0        8.284718    0.331488    0.243317
     27          6           0        8.937353    1.455984    0.530039
     28          6           0       10.268657    1.191819    1.126650
     29          6           0       10.322113   -0.366174    1.036065
     30          6           0        8.921390   -0.748199    0.636371
     31          6           0       11.505900    1.957158    0.533576
     32          6           0       10.806605   -0.999570    2.398406
     33          6           0       12.242327   -1.584384    2.508563
     34          7           0        6.083961   -1.450677    0.056847
     35          6           0        7.090413   -2.363744    0.443387
     36          6           0        6.547100   -3.737269    0.407406
     37          6           0        5.219692   -3.611425    0.020128
     38          6           0        4.972411   -2.271562   -0.226286
     39          6           0        7.375114   -5.029839    0.606761
     40          6           0        3.993925   -4.430839   -0.246378
     41          8           0        3.735532   -5.607369   -0.150605
     42          6           0        2.888839   -3.435328   -0.863212
     43          6           0        1.607899   -3.656786   -0.299689
     44          8           0        1.206518   -3.027043    0.688926
     45          8           0        0.829281   -4.651190   -0.883568
     46          6           0       -0.598582   -4.792870   -0.463332
     47          6           0       -3.692031   -2.445455    0.713788
     48          6           0       -5.047341   -2.453831   -0.062348
     49          6           0       -6.252408   -2.996631    0.219864
     50          6           0       -6.421682   -3.958084    1.408864
     51          6           0       -7.454071   -2.789093   -0.602740
     52          6           0       -8.398057   -1.712638   -0.063154
     53          6           0       -8.294138   -0.318752   -0.753719
     54          6           0       -9.631272    0.425093   -0.645529
     55          6           0      -10.501572    0.258419   -1.958575
     56          6           0       -9.458260    1.975703   -0.281090
     57          6           0       -9.654470    2.146867    1.280985
     58          6           0      -10.825377    3.181072    1.547875
     59          6           0      -12.072270    2.556148    2.191776
     60          6           0      -12.140841    2.980191    3.670152
     61          6           0      -13.508459    2.979664    1.624153
     62          6           0      -14.365057    1.719269    1.374965
     63          6           0      -14.062288    1.104809    0.052938
     64          6           0      -15.313830    0.320816   -0.525732
     65          6           0      -14.828170   -0.987806   -0.996193
     66          6           0      -16.063906    1.141006   -1.588722
     67          1           0        3.242310    3.392800   -1.805958
     68          1           0        9.230117    3.464846    0.597319
     69          1           0        9.210481   -2.721457    0.980780
     70          1           0        1.534053   -1.090566   -2.472389
     71          1           0        1.354088    1.741973   -2.241595
     72          1           0        1.720367    1.486506   -4.396894
     73          1           0        2.329006   -0.169120   -4.112972
     74          1           0        3.438360    1.170588   -4.097622
     75          1           0        0.568279    0.899294   -0.496082
     76          1           0        1.076969   -0.570507    0.349637
     77          1           0       -0.613650   -1.702028   -1.464316
     78          1           0       -1.179279   -0.027277   -1.572356
     79          1           0        4.293747    6.365528   -0.539943
     80          1           0        3.622471    5.388454   -1.887137
     81          1           0        5.051178    6.428217   -2.049172
     82          1           0        6.090005    7.359339    0.490104
     83          1           0        6.582414    7.426495   -1.104080
     84          1           0        7.700437    7.946731    0.227721
     85          1           0       10.215521    1.465482    2.180407
     86          1           0       10.938310   -0.655511    0.184505
     87          1           0       11.105192    2.670208   -0.186156
     88          1           0       12.323195    1.355351    0.134575
     89          1           0       11.996213    2.494963    1.345208
     90          1           0       10.153717   -1.835929    2.649575
     91          1           0       10.493315   -0.284068    3.158664
     92          1           0       12.711079   -1.242590    3.431212
     93          1           0       12.824670   -1.283353    1.637558
     94          1           0       12.211105   -2.673581    2.555633
     95          1           0        8.171219   -4.806036    1.316297
     96          1           0        7.883542   -5.274316   -0.326177
     97          1           0        6.762914   -5.858529    0.963304
     98          1           0        2.842648   -3.613658   -1.937131
     99          1           0       -1.170974   -3.897614   -0.710279
    100          1           0       -0.680783   -5.198943    0.544144
    101          1           0       -1.059632   -5.482724   -1.170067
    102          1           0       -3.867600   -1.929875    1.658461
    103          1           0       -3.471371   -3.508173    0.811264
    104          1           0       -5.056463   -1.846770   -0.967716
    105          1           0       -6.677154   -4.946011    1.024925
    106          1           0       -7.158471   -3.696171    2.168210
    107          1           0       -5.453025   -4.060524    1.898041
    108          1           0       -8.000425   -3.718721   -0.760727
    109          1           0       -7.089408   -2.424927   -1.563577
    110          1           0       -8.182397   -1.434281    0.967999
    111          1           0       -9.384297   -2.105902   -0.312644
    112          1           0       -8.056649   -0.447911   -1.810277
    113          1           0       -7.480953    0.212346   -0.260190
    114          1           0      -10.146444   -0.058777    0.184526
    115          1           0      -10.130152    0.806921   -2.823389
    116          1           0      -11.475502    0.648670   -1.661643
    117          1           0      -10.540070   -0.792497   -2.246725
    118          1           0      -10.179687    2.623789   -0.780439
    119          1           0       -8.456147    2.217101   -0.635433
    120          1           0       -8.728952    2.664622    1.533322
    121          1           0       -9.642807    1.203938    1.827187
    122          1           0      -11.072617    3.703326    0.623365
    123          1           0      -10.262335    3.905725    2.134915
    124          1           0      -11.871398    1.485484    2.197446
    125          1           0      -11.362447    2.392961    4.157652
    126          1           0      -13.163851    2.852029    4.024286
    127          1           0      -11.935427    4.049487    3.624097
    128          1           0      -13.227349    3.516678    0.718681
    129          1           0      -14.079125    3.670206    2.246688
    130          1           0      -15.398364    2.037128    1.516527
    131          1           0      -14.128233    1.029580    2.185479
    132          1           0      -13.305226    0.361402    0.301979
    133          1           0      -13.715322    1.731414   -0.768335
    134          1           0      -16.036984    0.081429    0.253520
    135          1           0      -14.307503   -1.517183   -0.198210
    136          1           0      -14.333742   -0.851876   -1.957208
    137          1           0      -15.713569   -1.601168   -1.164877
    138          1           0      -15.407103    1.260423   -2.450482
    139          1           0      -16.310039    2.092461   -1.116363
    140          1           0      -16.998176    0.659861   -1.877241
 ---------------------------------------------------------------------

 SCF Done:  E(RCAM-B3LYP) =  -3007.14117984     A.U. after   18 cycles

 Excitation energies and oscillator strengths:

 Excited State   1:      Singlet-A      1.7396 eV  712.71 nm  f=0.3743  <S**2>=0.000
     245 -> 248        0.16407
     246 -> 247        0.68885
     245 <- 248        0.10281
 This state for optimization and/or second-order correction.
 Total Energy, E(TD-HF/TD-DFT) =  -3007.07725040
 Copying the excited state density for this state as the 1-particle RhoCI density.

 Excited State   2:      Singlet-A      2.1716 eV  570.95 nm  f=0.2390  <S**2>=0.000
     245 -> 247        0.67444
     246 -> 248       -0.20195

 Excited State   3:      Singlet-A      3.4074 eV  363.87 nm  f=0.0064  <S**2>=0.000
     241 -> 247       -0.11876
     242 -> 247       -0.17266
     244 -> 247        0.66029

 Excited State   4:      Singlet-A      3.5681 eV  347.48 nm  f=0.0024  <S**2>=0.000
     240 -> 247       -0.11046
     241 -> 247        0.53049
     242 -> 247        0.35522
     244 -> 247        0.18017
     246 -> 248        0.13504

 Excited State   5:      Singlet-A      3.7419 eV  331.34 nm  f=0.0026  <S**2>=0.000
     239 -> 247        0.42240
     239 -> 249       -0.17389
     239 -> 251        0.13701
     240 -> 247        0.36821
     240 -> 249       -0.16994
     242 -> 247        0.18621

 The electronic state is 1-A.
 Alpha  occ. eigenvalues --  -46.89396 -19.26164 -19.24085 -19.19633 -19.19623
 Alpha  occ. eigenvalues --  -19.19214 -19.18634 -14.41732 -14.40132 -14.39783
 Alpha  occ. eigenvalues --  -14.39729 -10.40092 -10.38591 -10.35954 -10.35086
 Alpha  occ. eigenvalues --  -10.33012 -10.31735 -10.31103 -10.31005 -10.30563
 Alpha  occ. eigenvalues --  -10.30022 -10.29988 -10.29797 -10.29338 -10.29277
 Alpha  occ. eigenvalues --  -10.28702 -10.28271 -10.28217 -10.28076 -10.28058
 Alpha  occ. eigenvalues --  -10.27974 -10.27962 -10.27225 -10.27130 -10.27101
 Alpha  occ. eigenvalues --  -10.26764 -10.26701 -10.26483 -10.26325 -10.26306
 Alpha  occ. eigenvalues --  -10.26245 -10.26187 -10.25876 -10.25797 -10.25696
 Alpha  occ. eigenvalues --  -10.25693 -10.25673 -10.25587 -10.25494 -10.25401
 Alpha  occ. eigenvalues --  -10.25327 -10.25238 -10.25237 -10.25071 -10.25021
 Alpha  occ. eigenvalues --  -10.24865 -10.24801 -10.24730 -10.24645 -10.24635
 Alpha  occ. eigenvalues --  -10.24621 -10.24605 -10.24576 -10.24306 -10.23957
 Alpha  occ. eigenvalues --  -10.23744  -3.17918  -1.92804  -1.92381  -1.92217
 Alpha  occ. eigenvalues --   -1.16545  -1.14293  -1.12123  -1.10845  -1.06370
 Alpha  occ. eigenvalues --   -1.06308  -1.05755  -1.04927  -1.04858  -1.00947
 Alpha  occ. eigenvalues --   -0.91255  -0.90679  -0.89971  -0.89521  -0.88840
 Alpha  occ. eigenvalues --   -0.88562  -0.87952  -0.87757  -0.87623  -0.87528
 Alpha  occ. eigenvalues --   -0.85505  -0.85086  -0.84350  -0.83694  -0.83005
 Alpha  occ. eigenvalues --   -0.82524  -0.81999  -0.81455  -0.80927  -0.80432
 Alpha  occ. eigenvalues --   -0.79721  -0.78754  -0.77797  -0.77041  -0.76518
 Alpha  occ. eigenvalues --   -0.75873  -0.75819  -0.75405  -0.74168  -0.73656
 Alpha  occ. eigenvalues --   -0.73292  -0.72708  -0.71116  -0.69998  -0.68934
 Alpha  occ. eigenvalues --   -0.68575  -0.67915  -0.67863  -0.66265  -0.66032
 Alpha  occ. eigenvalues --   -0.65593  -0.64962  -0.64803  -0.64208  -0.63893
 Alpha  occ. eigenvalues --   -0.63824  -0.62798  -0.62422  -0.61420  -0.61125
 Alpha  occ. eigenvalues --   -0.60305  -0.59412  -0.59079  -0.58085  -0.57679
 Alpha  occ. eigenvalues --   -0.57183  -0.57066  -0.56522  -0.55934  -0.55637
 Alpha  occ. eigenvalues --   -0.55402  -0.54555  -0.54255  -0.54096  -0.53962
 Alpha  occ. eigenvalues --   -0.53621  -0.53392  -0.53182  -0.53079  -0.52963
 Alpha  occ. eigenvalues --   -0.52581  -0.52486  -0.52211  -0.51908  -0.51386
 Alpha  occ. eigenvalues --   -0.51279  -0.50903  -0.50732  -0.50507  -0.50307
 Alpha  occ. eigenvalues --   -0.50235  -0.50089  -0.49880  -0.49725  -0.49677
 Alpha  occ. eigenvalues --   -0.49529  -0.49294  -0.49203  -0.49064  -0.48613
 Alpha  occ. eigenvalues --   -0.48568  -0.48295  -0.48068  -0.47899  -0.47664
 Alpha  occ. eigenvalues --   -0.47505  -0.47437  -0.47397  -0.47288  -0.46535
 Alpha  occ. eigenvalues --   -0.46354  -0.46160  -0.45881  -0.45674  -0.45592
 Alpha  occ. eigenvalues --   -0.45557  -0.45404  -0.45208  -0.44917  -0.44746
 Alpha  occ. eigenvalues --   -0.44546  -0.44439  -0.44432  -0.44375  -0.44101
 Alpha  occ. eigenvalues --   -0.43927  -0.43666  -0.43500  -0.43220  -0.43135
 Alpha  occ. eigenvalues --   -0.42889  -0.42671  -0.42636  -0.42590  -0.42170
 Alpha  occ. eigenvalues --   -0.42058  -0.41456  -0.41255  -0.41002  -0.40794
 Alpha  occ. eigenvalues --   -0.40687  -0.40469  -0.40400  -0.40019  -0.39950
 Alpha  occ. eigenvalues --   -0.39913  -0.39476  -0.39270  -0.39191  -0.38639
 Alpha  occ. eigenvalues --   -0.38341  -0.38289  -0.37866  -0.37607  -0.37595
 Alpha  occ. eigenvalues --   -0.36851  -0.36535  -0.36492  -0.36392  -0.36290
 Alpha  occ. eigenvalues --   -0.35795  -0.35715  -0.33900  -0.33698  -0.33548
 Alpha  occ. eigenvalues --   -0.33138  -0.32889  -0.32582  -0.31808  -0.31506
 Alpha  occ. eigenvalues --   -0.31065  -0.30735  -0.29804  -0.29640  -0.23497
 Alpha  occ. eigenvalues --   -0.21591
 Alpha virt. eigenvalues --   -0.09029  -0.00319   0.00975   0.02447   0.02698
 Alpha virt. eigenvalues --    0.04196   0.05036   0.06079   0.06131   0.06598
 Alpha virt. eigenvalues --    0.07915   0.08460   0.08557   0.09071   0.09243

 Mulliken charges:
               1
     1  Mg   0.838463
     2  C   -0.017646
     3  C   -0.042596
     4  C   -0.044774
     5  C   -0.101494
     6  N   -0.238999
     7  C   -0.034249
     8  C   -0.027514
     9  C   -0.085206
    10  C    0.051027
    11  C    0.082269
    12  C    0.098350
    13  C    0.018394
    14  C    0.222058
    15  O   -0.248192
    16  O   -0.331514
    17  N   -0.367088
    18  C    0.065970
    19  C   -0.128842
    20  C   -0.029771
    21  C    0.105044
    22  C    0.110788
    23  C    0.002196
    24  O   -0.168060
    25  C    0.040251
    26  N   -0.199805
    27  C   -0.011500
    28  C   -0.045243
    29  C    0.011712
    30  C    0.027169
    31  C    0.070627
    32  C    0.014156
    33  C    0.026929
    34  N   -0.397616
    35  C    0.109545
    36  C   -0.209544
    37  C   -0.008088
    38  C    0.123027
    39  C    0.119245
    40  C    0.087305
    41  O   -0.138207
    42  C   -0.010114
    43  C    0.194722
    44  O   -0.243058
    45  O   -0.356766
    46  C    0.188296
    47  C    0.305202
    48  C   -0.168350
    49  C   -0.187127
    50  C    0.068676
    51  C    0.125667
    52  C   -0.004435
    53  C    0.050596
    54  C   -0.155821
    55  C    0.040768
    56  C    0.045214
    57  C   -0.012522
    58  C    0.053491
    59  C   -0.146584
    60  C    0.059255
    61  C    0.052315
    62  C    0.030986
    63  C    0.034819
    64  C   -0.154761
    65  C    0.059777
    66  C    0.050006
    67  H   -0.050805
    68  H   -0.004273
    69  H   -0.024558
    70  H   -0.003255
    71  H    0.008706
    72  H    0.019206
    73  H    0.006251
    74  H    0.023500
    75  H    0.003416
    76  H    0.055531
    77  H    0.032224
    78  H    0.023639
    79  H    0.026808
    80  H    0.029596
    81  H    0.019632
    82  H    0.028735
    83  H    0.022183
    84  H    0.029348
    85  H    0.020497
    86  H    0.004658
    87  H    0.028927
    88  H    0.015417
    89  H    0.009590
    90  H   -0.002067
    91  H   -0.009162
    92  H    0.017920
    93  H    0.014349
    94  H    0.016629
    95  H    0.008614
    96  H    0.029745
    97  H    0.038339
    98  H    0.050089
    99  H    0.025172
   100  H    0.056540
   101  H    0.024553
   102  H    0.067252
   103  H    0.035941
   104  H   -0.004959
   105  H    0.018758
   106  H    0.024488
   107  H   -0.004260
   108  H   -0.004557
   109  H   -0.009653
   110  H    0.012790
   111  H    0.005875
   112  H   -0.015024
   113  H   -0.004977
   114  H    0.001990
   115  H    0.010272
   116  H    0.011863
   117  H    0.000693
   118  H   -0.007588
   119  H   -0.002184
   120  H   -0.009969
   121  H    0.010470
   122  H   -0.007792
   123  H   -0.003782
   124  H   -0.001581
   125  H    0.005480
   126  H    0.007225
   127  H    0.006587
   128  H   -0.020216
   129  H   -0.003877
   130  H   -0.007229
   131  H   -0.001641
   132  H   -0.000958
   133  H    0.011436
   134  H   -0.013619
   135  H    0.008317
   136  H    0.006756
   137  H   -0.013245
   138  H    0.009181
   139  H    0.007762
   140  H    0.009449
 Sum of Mulliken charges =  -0.00000

 Dipole moment (field-independent basis, Debye):
    X=             -2.2611    Y=              3.4096    Z=             -3.2688  Tot=              5.2367
 Quadrupole moment (field-independent basis, Debye-Ang):
   XX=           -373.9857   YY=           -407.7210   ZZ=           -404.8010
   XY=              9.7657   XZ=              1.1117   YZ=             -8.7029

 Normal termination of Gaussian 16 at Fri Apr 29 22:14:27 2022.
