 Gaussian 16, Revision A.03,
 Gaussian 16:  ES64L-G16RevA.03 25-Dec-2016

 ---------------------------------
 #p PBE1PBE/Def2SVP td=(nstates=5)
 ---------------------------------

 -----------------------------------------------------
 step_501_chromophore_22 TDDFT with PBE1PBE functional
 -----------------------------------------------------
 Symbolic Z-matrix:
 Charge =  0 Multiplicity = 1

                         Standard orientation:
 ---------------------------------------------------------------------
 Center     Atomic      Atomic             Coordinates (Angstroms)
 Number     Number       Type             X           Y           Z
 ---------------------------------------------------------------------
      1         12           0        5.981297    0.581964   -0.014047
      2          6           0        3.543120   -2.018893   -0.645879
      3          6           0        3.875202    2.600544   -1.402241
      4          6           0        8.435627    2.742610    0.398770
      5          6           0        8.475863   -1.949720    0.745799
      6          7           0        3.848467    0.298562   -0.819346
      7          6           0        3.036422   -0.801354   -1.002696
      8          6           0        1.764981   -0.401019   -1.659996
      9          6           0        2.109648    0.960218   -2.317159
     10          6           0        3.380096    1.315406   -1.509200
     11          6           0        2.423377    0.878088   -3.827166
     12          6           0        0.661202   -0.183609   -0.580490
     13          6           0       -0.763460   -0.780628   -0.902226
     14          6           0       -1.795570   -1.037491    0.266874
     15          8           0       -1.650560   -0.750845    1.484858
     16          8           0       -2.775080   -1.828479   -0.240050
     17          7           0        6.082651    2.526548   -0.436318
     18          6           0        5.090150    3.235797   -0.903861
     19          6           0        5.498267    4.627834   -0.922657
     20          6           0        6.759923    4.631295   -0.282425
     21          6           0        7.143321    3.256499   -0.108653
     22          6           0        4.531839    5.729726   -1.393673
     23          6           0        7.572502    5.843186    0.079571
     24          8           0        8.644051    5.716993    0.592622
     25          6           0        6.982185    7.201648   -0.115340
     26          7           0        8.284718    0.331488    0.243317
     27          6           0        8.937353    1.455984    0.530039
     28          6           0       10.268657    1.191819    1.126650
     29          6           0       10.322113   -0.366174    1.036065
     30          6           0        8.921390   -0.748199    0.636371
     31          6           0       11.505900    1.957158    0.533576
     32          6           0       10.806605   -0.999570    2.398406
     33          6           0       12.242327   -1.584384    2.508563
     34          7           0        6.083961   -1.450677    0.056847
     35          6           0        7.090413   -2.363744    0.443387
     36          6           0        6.547100   -3.737269    0.407406
     37          6           0        5.219692   -3.611425    0.020128
     38          6           0        4.972411   -2.271562   -0.226286
     39          6           0        7.375114   -5.029839    0.606761
     40          6           0        3.993925   -4.430839   -0.246378
     41          8           0        3.735532   -5.607369   -0.150605
     42          6           0        2.888839   -3.435328   -0.863212
     43          6           0        1.607899   -3.656786   -0.299689
     44          8           0        1.206518   -3.027043    0.688926
     45          8           0        0.829281   -4.651190   -0.883568
     46          6           0       -0.598582   -4.792870   -0.463332
     47          6           0       -3.692031   -2.445455    0.713788
     48          6           0       -5.047341   -2.453831   -0.062348
     49          6           0       -6.252408   -2.996631    0.219864
     50          6           0       -6.421682   -3.958084    1.408864
     51          6           0       -7.454071   -2.789093   -0.602740
     52          6           0       -8.398057   -1.712638   -0.063154
     53          6           0       -8.294138   -0.318752   -0.753719
     54          6           0       -9.631272    0.425093   -0.645529
     55          6           0      -10.501572    0.258419   -1.958575
     56          6           0       -9.458260    1.975703   -0.281090
     57          6           0       -9.654470    2.146867    1.280985
     58          6           0      -10.825377    3.181072    1.547875
     59          6           0      -12.072270    2.556148    2.191776
     60          6           0      -12.140841    2.980191    3.670152
     61          6           0      -13.508459    2.979664    1.624153
     62          6           0      -14.365057    1.719269    1.374965
     63          6           0      -14.062288    1.104809    0.052938
     64          6           0      -15.313830    0.320816   -0.525732
     65          6           0      -14.828170   -0.987806   -0.996193
     66          6           0      -16.063906    1.141006   -1.588722
     67          1           0        3.242310    3.392800   -1.805958
     68          1           0        9.230117    3.464846    0.597319
     69          1           0        9.210481   -2.721457    0.980780
     70          1           0        1.534053   -1.090566   -2.472389
     71          1           0        1.354088    1.741973   -2.241595
     72          1           0        1.720367    1.486506   -4.396894
     73          1           0        2.329006   -0.169120   -4.112972
     74          1           0        3.438360    1.170588   -4.097622
     75          1           0        0.568279    0.899294   -0.496082
     76          1           0        1.076969   -0.570507    0.349637
     77          1           0       -0.613650   -1.702028   -1.464316
     78          1           0       -1.179279   -0.027277   -1.572356
     79          1           0        4.293747    6.365528   -0.539943
     80          1           0        3.622471    5.388454   -1.887137
     81          1           0        5.051178    6.428217   -2.049172
     82          1           0        6.090005    7.359339    0.490104
     83          1           0        6.582414    7.426495   -1.104080
     84          1           0        7.700437    7.946731    0.227721
     85          1           0       10.215521    1.465482    2.180407
     86          1           0       10.938310   -0.655511    0.184505
     87          1           0       11.105192    2.670208   -0.186156
     88          1           0       12.323195    1.355351    0.134575
     89          1           0       11.996213    2.494963    1.345208
     90          1           0       10.153717   -1.835929    2.649575
     91          1           0       10.493315   -0.284068    3.158664
     92          1           0       12.711079   -1.242590    3.431212
     93          1           0       12.824670   -1.283353    1.637558
     94          1           0       12.211105   -2.673581    2.555633
     95          1           0        8.171219   -4.806036    1.316297
     96          1           0        7.883542   -5.274316   -0.326177
     97          1           0        6.762914   -5.858529    0.963304
     98          1           0        2.842648   -3.613658   -1.937131
     99          1           0       -1.170974   -3.897614   -0.710279
    100          1           0       -0.680783   -5.198943    0.544144
    101          1           0       -1.059632   -5.482724   -1.170067
    102          1           0       -3.867600   -1.929875    1.658461
    103          1           0       -3.471371   -3.508173    0.811264
    104          1           0       -5.056463   -1.846770   -0.967716
    105          1           0       -6.677154   -4.946011    1.024925
    106          1           0       -7.158471   -3.696171    2.168210
    107          1           0       -5.453025   -4.060524    1.898041
    108          1           0       -8.000425   -3.718721   -0.760727
    109          1           0       -7.089408   -2.424927   -1.563577
    110          1           0       -8.182397   -1.434281    0.967999
    111          1           0       -9.384297   -2.105902   -0.312644
    112          1           0       -8.056649   -0.447911   -1.810277
    113          1           0       -7.480953    0.212346   -0.260190
    114          1           0      -10.146444   -0.058777    0.184526
    115          1           0      -10.130152    0.806921   -2.823389
    116          1           0      -11.475502    0.648670   -1.661643
    117          1           0      -10.540070   -0.792497   -2.246725
    118          1           0      -10.179687    2.623789   -0.780439
    119          1           0       -8.456147    2.217101   -0.635433
    120          1           0       -8.728952    2.664622    1.533322
    121          1           0       -9.642807    1.203938    1.827187
    122          1           0      -11.072617    3.703326    0.623365
    123          1           0      -10.262335    3.905725    2.134915
    124          1           0      -11.871398    1.485484    2.197446
    125          1           0      -11.362447    2.392961    4.157652
    126          1           0      -13.163851    2.852029    4.024286
    127          1           0      -11.935427    4.049487    3.624097
    128          1           0      -13.227349    3.516678    0.718681
    129          1           0      -14.079125    3.670206    2.246688
    130          1           0      -15.398364    2.037128    1.516527
    131          1           0      -14.128233    1.029580    2.185479
    132          1           0      -13.305226    0.361402    0.301979
    133          1           0      -13.715322    1.731414   -0.768335
    134          1           0      -16.036984    0.081429    0.253520
    135          1           0      -14.307503   -1.517183   -0.198210
    136          1           0      -14.333742   -0.851876   -1.957208
    137          1           0      -15.713569   -1.601168   -1.164877
    138          1           0      -15.407103    1.260423   -2.450482
    139          1           0      -16.310039    2.092461   -1.116363
    140          1           0      -16.998176    0.659861   -1.877241
 ---------------------------------------------------------------------

 SCF Done:  E(RPBE1PBE) =  -3005.32756158     A.U. after   16 cycles

 Excitation energies and oscillator strengths:

 Excited State   1:      Singlet-A      1.8819 eV  658.82 nm  f=0.3599  <S**2>=0.000
     245 -> 248        0.15976
     246 -> 247        0.69575
     246 <- 247       -0.10979
 This state for optimization and/or second-order correction.
 Total Energy, E(TD-HF/TD-DFT) =  -3005.25840252
 Copying the excited state density for this state as the 1-particle RhoCI density.

 Excited State   2:      Singlet-A      2.2031 eV  562.77 nm  f=0.2163  <S**2>=0.000
     245 -> 247        0.67988
     246 -> 248       -0.19121

 Excited State   3:      Singlet-A      3.0584 eV  405.39 nm  f=0.0075  <S**2>=0.000
     243 -> 247        0.69263

 Excited State   4:      Singlet-A      3.1298 eV  396.14 nm  f=0.0013  <S**2>=0.000
     241 -> 247        0.57986
     242 -> 247       -0.35943

 Excited State   5:      Singlet-A      3.1953 eV  388.02 nm  f=0.0008  <S**2>=0.000
     241 -> 247        0.34926
     242 -> 247        0.58740
     242 -> 249        0.10148

 The electronic state is 1-A.
 Alpha  occ. eigenvalues --  -46.92788 -19.26887 -19.24765 -19.20062 -19.19966
 Alpha  occ. eigenvalues --  -19.19184 -19.18882 -14.41159 -14.39696 -14.39645
 Alpha  occ. eigenvalues --  -14.39186 -10.37186 -10.35578 -10.33326 -10.31975
 Alpha  occ. eigenvalues --  -10.30455 -10.28993 -10.28486 -10.28467 -10.27964
 Alpha  occ. eigenvalues --  -10.27906 -10.27901 -10.27480 -10.27429 -10.26630
 Alpha  occ. eigenvalues --  -10.26614 -10.26007 -10.25972 -10.25818 -10.25777
 Alpha  occ. eigenvalues --  -10.25606 -10.25371 -10.25284 -10.24647 -10.24563
 Alpha  occ. eigenvalues --  -10.24479 -10.24392 -10.24358 -10.23891 -10.23874
 Alpha  occ. eigenvalues --  -10.23742 -10.23611 -10.23421 -10.23374 -10.23325
 Alpha  occ. eigenvalues --  -10.23276 -10.23218 -10.23185 -10.23136 -10.23107
 Alpha  occ. eigenvalues --  -10.22971 -10.22949 -10.22903 -10.22786 -10.22623
 Alpha  occ. eigenvalues --  -10.22501 -10.22407 -10.22323 -10.22238 -10.22134
 Alpha  occ. eigenvalues --  -10.22120 -10.22037 -10.21991 -10.21844 -10.21342
 Alpha  occ. eigenvalues --  -10.21094  -3.14891  -1.87716  -1.87271  -1.87115
 Alpha  occ. eigenvalues --   -1.11413  -1.09055  -1.06655  -1.05807  -1.01181
 Alpha  occ. eigenvalues --   -1.00861  -1.00582  -0.99577  -0.99459  -0.95889
 Alpha  occ. eigenvalues --   -0.85702  -0.84816  -0.84049  -0.83794  -0.83217
 Alpha  occ. eigenvalues --   -0.82665  -0.82255  -0.81953  -0.81738  -0.81649
 Alpha  occ. eigenvalues --   -0.79767  -0.79589  -0.78592  -0.77938  -0.77306
 Alpha  occ. eigenvalues --   -0.76723  -0.76031  -0.75710  -0.75219  -0.74739
 Alpha  occ. eigenvalues --   -0.73899  -0.72906  -0.72095  -0.71377  -0.70873
 Alpha  occ. eigenvalues --   -0.69976  -0.69941  -0.69748  -0.68327  -0.67836
 Alpha  occ. eigenvalues --   -0.67639  -0.67216  -0.65538  -0.64313  -0.63314
 Alpha  occ. eigenvalues --   -0.62982  -0.62363  -0.62089  -0.60685  -0.60294
 Alpha  occ. eigenvalues --   -0.60044  -0.59586  -0.59046  -0.58813  -0.58366
 Alpha  occ. eigenvalues --   -0.57937  -0.56962  -0.56581  -0.55927  -0.55645
 Alpha  occ. eigenvalues --   -0.54856  -0.53844  -0.53641  -0.52584  -0.52263
 Alpha  occ. eigenvalues --   -0.51808  -0.51474  -0.51017  -0.50413  -0.50278
 Alpha  occ. eigenvalues --   -0.49941  -0.49017  -0.48862  -0.48528  -0.48489
 Alpha  occ. eigenvalues --   -0.48141  -0.47916  -0.47656  -0.47601  -0.47323
 Alpha  occ. eigenvalues --   -0.47059  -0.46952  -0.46749  -0.46539  -0.45947
 Alpha  occ. eigenvalues --   -0.45872  -0.45413  -0.45264  -0.44928  -0.44899
 Alpha  occ. eigenvalues --   -0.44860  -0.44684  -0.44400  -0.44322  -0.44261
 Alpha  occ. eigenvalues --   -0.44020  -0.43873  -0.43741  -0.43724  -0.43307
 Alpha  occ. eigenvalues --   -0.43117  -0.42958  -0.42704  -0.42358  -0.42325
 Alpha  occ. eigenvalues --   -0.42138  -0.42074  -0.42043  -0.41865  -0.41251
 Alpha  occ. eigenvalues --   -0.41018  -0.40723  -0.40667  -0.40435  -0.40306
 Alpha  occ. eigenvalues --   -0.40262  -0.40220  -0.39930  -0.39667  -0.39595
 Alpha  occ. eigenvalues --   -0.39386  -0.39150  -0.39038  -0.39007  -0.38867
 Alpha  occ. eigenvalues --   -0.38677  -0.38398  -0.38303  -0.38116  -0.38069
 Alpha  occ. eigenvalues --   -0.37608  -0.37539  -0.37316  -0.37277  -0.37078
 Alpha  occ. eigenvalues --   -0.36984  -0.36403  -0.36151  -0.35887  -0.35568
 Alpha  occ. eigenvalues --   -0.35475  -0.35373  -0.35136  -0.34985  -0.34934
 Alpha  occ. eigenvalues --   -0.34677  -0.34337  -0.34131  -0.34024  -0.33386
 Alpha  occ. eigenvalues --   -0.33275  -0.33141  -0.32624  -0.32606  -0.32430
 Alpha  occ. eigenvalues --   -0.31717  -0.31568  -0.31426  -0.31390  -0.31314
 Alpha  occ. eigenvalues --   -0.30757  -0.30592  -0.28881  -0.28766  -0.28508
 Alpha  occ. eigenvalues --   -0.28322  -0.27833  -0.27789  -0.27234  -0.26541
 Alpha  occ. eigenvalues --   -0.26100  -0.26008  -0.25468  -0.25104  -0.20495
 Alpha  occ. eigenvalues --   -0.19094
 Alpha virt. eigenvalues --   -0.11393  -0.03997  -0.03298  -0.01771  -0.00400
 Alpha virt. eigenvalues --   -0.00300   0.00319   0.01697   0.01956   0.03104
 Alpha virt. eigenvalues --    0.03878   0.04605   0.05224   0.05707   0.05925

 Mulliken charges:
               1
     1  Mg   0.983158
     2  C   -0.018447
     3  C   -0.040738
     4  C   -0.030799
     5  C   -0.092742
     6  N   -0.335328
     7  C    0.030743
     8  C   -0.107588
     9  C   -0.159815
    10  C    0.082094
    11  C    0.031040
    12  C    0.058123
    13  C   -0.060126
    14  C    0.285291
    15  O   -0.280765
    16  O   -0.361848
    17  N   -0.494691
    18  C    0.102960
    19  C   -0.158449
    20  C   -0.091042
    21  C    0.143520
    22  C    0.049013
    23  C    0.056421
    24  O   -0.209008
    25  C   -0.031574
    26  N   -0.309571
    27  C    0.020732
    28  C   -0.117577
    29  C   -0.073776
    30  C    0.075067
    31  C    0.012801
    32  C   -0.044337
    33  C   -0.045328
    34  N   -0.515845
    35  C    0.137989
    36  C   -0.220442
    37  C   -0.061431
    38  C    0.167924
    39  C    0.064109
    40  C    0.182411
    41  O   -0.181792
    42  C   -0.119489
    43  C    0.289257
    44  O   -0.276285
    45  O   -0.391853
    46  C    0.130080
    47  C    0.262712
    48  C   -0.175435
    49  C   -0.233188
    50  C    0.010406
    51  C    0.057570
    52  C   -0.072504
    53  C    0.003752
    54  C   -0.242453
    55  C   -0.027664
    56  C   -0.003564
    57  C   -0.078645
    58  C    0.005748
    59  C   -0.226945
    60  C   -0.004950
    61  C   -0.005716
    62  C   -0.035216
    63  C   -0.021304
    64  C   -0.244879
    65  C   -0.003948
    66  C   -0.011958
    67  H   -0.015340
    68  H    0.027685
    69  H    0.007527
    70  H    0.033478
    71  H    0.042679
    72  H    0.046032
    73  H    0.033099
    74  H    0.051241
    75  H    0.037306
    76  H    0.086912
    77  H    0.063851
    78  H    0.056790
    79  H    0.054434
    80  H    0.054459
    81  H    0.047248
    82  H    0.055728
    83  H    0.048795
    84  H    0.055937
    85  H    0.057558
    86  H    0.042961
    87  H    0.056377
    88  H    0.041723
    89  H    0.037077
    90  H    0.030223
    91  H    0.023475
    92  H    0.045998
    93  H    0.042208
    94  H    0.043582
    95  H    0.037145
    96  H    0.059483
    97  H    0.066463
    98  H    0.086379
    99  H    0.052487
   100  H    0.077300
   101  H    0.046659
   102  H    0.092372
   103  H    0.062665
   104  H    0.025385
   105  H    0.046665
   106  H    0.051077
   107  H    0.024098
   108  H    0.027588
   109  H    0.023456
   110  H    0.046406
   111  H    0.038712
   112  H    0.017216
   113  H    0.027783
   114  H    0.040745
   115  H    0.037870
   116  H    0.046870
   117  H    0.028678
   118  H    0.023768
   119  H    0.030098
   120  H    0.025068
   121  H    0.039488
   122  H    0.022160
   123  H    0.027530
   124  H    0.035539
   125  H    0.034499
   126  H    0.035965
   127  H    0.035378
   128  H    0.013819
   129  H    0.027358
   130  H    0.025168
   131  H    0.031788
   132  H    0.033572
   133  H    0.041126
   134  H    0.024022
   135  H    0.036287
   136  H    0.034500
   137  H    0.016236
   138  H    0.035902
   139  H    0.036860
   140  H    0.037459
 Sum of Mulliken charges =  -0.00000

 Dipole moment (field-independent basis, Debye):
    X=             -2.1869    Y=              2.7762    Z=             -3.1797  Tot=              4.7540
 Quadrupole moment (field-independent basis, Debye-Ang):
   XX=           -367.6263   YY=           -405.5234   ZZ=           -402.2110
   XY=              5.3295   XZ=              2.5863   YZ=             -8.8249

 Normal termination of Gaussian 16 at Fri Apr 29 22:30:45 2022.
