 Gaussian 16, Revision A.03,
 Gaussian 16:  ES64L-G16RevA.03 25-Dec-2016

 --------------------------------
 #p wB97XD/Def2SVP td=(nstates=5)
 --------------------------------

 ----------------------------------------------------
 step_501_chromophore_22 TDDFT with wB97XD functional
 ----------------------------------------------------
 Symbolic Z-matrix:
 Charge =  0 Multiplicity = 1

                         Standard orientation:
 ---------------------------------------------------------------------
 Center     Atomic      Atomic             Coordinates (Angstroms)
 Number     Number       Type             X           Y           Z
 ---------------------------------------------------------------------
      1         12           0        5.981297    0.581964   -0.014047
      2          6           0        3.543120   -2.018893   -0.645879
      3          6           0        3.875202    2.600544   -1.402241
      4          6           0        8.435627    2.742610    0.398770
      5          6           0        8.475863   -1.949720    0.745799
      6          7           0        3.848467    0.298562   -0.819346
      7          6           0        3.036422   -0.801354   -1.002696
      8          6           0        1.764981   -0.401019   -1.659996
      9          6           0        2.109648    0.960218   -2.317159
     10          6           0        3.380096    1.315406   -1.509200
     11          6           0        2.423377    0.878088   -3.827166
     12          6           0        0.661202   -0.183609   -0.580490
     13          6           0       -0.763460   -0.780628   -0.902226
     14          6           0       -1.795570   -1.037491    0.266874
     15          8           0       -1.650560   -0.750845    1.484858
     16          8           0       -2.775080   -1.828479   -0.240050
     17          7           0        6.082651    2.526548   -0.436318
     18          6           0        5.090150    3.235797   -0.903861
     19          6           0        5.498267    4.627834   -0.922657
     20          6           0        6.759923    4.631295   -0.282425
     21          6           0        7.143321    3.256499   -0.108653
     22          6           0        4.531839    5.729726   -1.393673
     23          6           0        7.572502    5.843186    0.079571
     24          8           0        8.644051    5.716993    0.592622
     25          6           0        6.982185    7.201648   -0.115340
     26          7           0        8.284718    0.331488    0.243317
     27          6           0        8.937353    1.455984    0.530039
     28          6           0       10.268657    1.191819    1.126650
     29          6           0       10.322113   -0.366174    1.036065
     30          6           0        8.921390   -0.748199    0.636371
     31          6           0       11.505900    1.957158    0.533576
     32          6           0       10.806605   -0.999570    2.398406
     33          6           0       12.242327   -1.584384    2.508563
     34          7           0        6.083961   -1.450677    0.056847
     35          6           0        7.090413   -2.363744    0.443387
     36          6           0        6.547100   -3.737269    0.407406
     37          6           0        5.219692   -3.611425    0.020128
     38          6           0        4.972411   -2.271562   -0.226286
     39          6           0        7.375114   -5.029839    0.606761
     40          6           0        3.993925   -4.430839   -0.246378
     41          8           0        3.735532   -5.607369   -0.150605
     42          6           0        2.888839   -3.435328   -0.863212
     43          6           0        1.607899   -3.656786   -0.299689
     44          8           0        1.206518   -3.027043    0.688926
     45          8           0        0.829281   -4.651190   -0.883568
     46          6           0       -0.598582   -4.792870   -0.463332
     47          6           0       -3.692031   -2.445455    0.713788
     48          6           0       -5.047341   -2.453831   -0.062348
     49          6           0       -6.252408   -2.996631    0.219864
     50          6           0       -6.421682   -3.958084    1.408864
     51          6           0       -7.454071   -2.789093   -0.602740
     52          6           0       -8.398057   -1.712638   -0.063154
     53          6           0       -8.294138   -0.318752   -0.753719
     54          6           0       -9.631272    0.425093   -0.645529
     55          6           0      -10.501572    0.258419   -1.958575
     56          6           0       -9.458260    1.975703   -0.281090
     57          6           0       -9.654470    2.146867    1.280985
     58          6           0      -10.825377    3.181072    1.547875
     59          6           0      -12.072270    2.556148    2.191776
     60          6           0      -12.140841    2.980191    3.670152
     61          6           0      -13.508459    2.979664    1.624153
     62          6           0      -14.365057    1.719269    1.374965
     63          6           0      -14.062288    1.104809    0.052938
     64          6           0      -15.313830    0.320816   -0.525732
     65          6           0      -14.828170   -0.987806   -0.996193
     66          6           0      -16.063906    1.141006   -1.588722
     67          1           0        3.242310    3.392800   -1.805958
     68          1           0        9.230117    3.464846    0.597319
     69          1           0        9.210481   -2.721457    0.980780
     70          1           0        1.534053   -1.090566   -2.472389
     71          1           0        1.354088    1.741973   -2.241595
     72          1           0        1.720367    1.486506   -4.396894
     73          1           0        2.329006   -0.169120   -4.112972
     74          1           0        3.438360    1.170588   -4.097622
     75          1           0        0.568279    0.899294   -0.496082
     76          1           0        1.076969   -0.570507    0.349637
     77          1           0       -0.613650   -1.702028   -1.464316
     78          1           0       -1.179279   -0.027277   -1.572356
     79          1           0        4.293747    6.365528   -0.539943
     80          1           0        3.622471    5.388454   -1.887137
     81          1           0        5.051178    6.428217   -2.049172
     82          1           0        6.090005    7.359339    0.490104
     83          1           0        6.582414    7.426495   -1.104080
     84          1           0        7.700437    7.946731    0.227721
     85          1           0       10.215521    1.465482    2.180407
     86          1           0       10.938310   -0.655511    0.184505
     87          1           0       11.105192    2.670208   -0.186156
     88          1           0       12.323195    1.355351    0.134575
     89          1           0       11.996213    2.494963    1.345208
     90          1           0       10.153717   -1.835929    2.649575
     91          1           0       10.493315   -0.284068    3.158664
     92          1           0       12.711079   -1.242590    3.431212
     93          1           0       12.824670   -1.283353    1.637558
     94          1           0       12.211105   -2.673581    2.555633
     95          1           0        8.171219   -4.806036    1.316297
     96          1           0        7.883542   -5.274316   -0.326177
     97          1           0        6.762914   -5.858529    0.963304
     98          1           0        2.842648   -3.613658   -1.937131
     99          1           0       -1.170974   -3.897614   -0.710279
    100          1           0       -0.680783   -5.198943    0.544144
    101          1           0       -1.059632   -5.482724   -1.170067
    102          1           0       -3.867600   -1.929875    1.658461
    103          1           0       -3.471371   -3.508173    0.811264
    104          1           0       -5.056463   -1.846770   -0.967716
    105          1           0       -6.677154   -4.946011    1.024925
    106          1           0       -7.158471   -3.696171    2.168210
    107          1           0       -5.453025   -4.060524    1.898041
    108          1           0       -8.000425   -3.718721   -0.760727
    109          1           0       -7.089408   -2.424927   -1.563577
    110          1           0       -8.182397   -1.434281    0.967999
    111          1           0       -9.384297   -2.105902   -0.312644
    112          1           0       -8.056649   -0.447911   -1.810277
    113          1           0       -7.480953    0.212346   -0.260190
    114          1           0      -10.146444   -0.058777    0.184526
    115          1           0      -10.130152    0.806921   -2.823389
    116          1           0      -11.475502    0.648670   -1.661643
    117          1           0      -10.540070   -0.792497   -2.246725
    118          1           0      -10.179687    2.623789   -0.780439
    119          1           0       -8.456147    2.217101   -0.635433
    120          1           0       -8.728952    2.664622    1.533322
    121          1           0       -9.642807    1.203938    1.827187
    122          1           0      -11.072617    3.703326    0.623365
    123          1           0      -10.262335    3.905725    2.134915
    124          1           0      -11.871398    1.485484    2.197446
    125          1           0      -11.362447    2.392961    4.157652
    126          1           0      -13.163851    2.852029    4.024286
    127          1           0      -11.935427    4.049487    3.624097
    128          1           0      -13.227349    3.516678    0.718681
    129          1           0      -14.079125    3.670206    2.246688
    130          1           0      -15.398364    2.037128    1.516527
    131          1           0      -14.128233    1.029580    2.185479
    132          1           0      -13.305226    0.361402    0.301979
    133          1           0      -13.715322    1.731414   -0.768335
    134          1           0      -16.036984    0.081429    0.253520
    135          1           0      -14.307503   -1.517183   -0.198210
    136          1           0      -14.333742   -0.851876   -1.957208
    137          1           0      -15.713569   -1.601168   -1.164877
    138          1           0      -15.407103    1.260423   -2.450482
    139          1           0      -16.310039    2.092461   -1.116363
    140          1           0      -16.998176    0.659861   -1.877241
 ---------------------------------------------------------------------

 SCF Done:  E(RwB97XD) =  -3007.83869074     A.U. after   19 cycles

 Excitation energies and oscillator strengths:

 Excited State   1:      Singlet-A      1.6966 eV  730.79 nm  f=0.3744  <S**2>=0.000
     245 -> 248        0.16850
     246 -> 247        0.68660
     245 <- 248        0.11049
 This state for optimization and/or second-order correction.
 Total Energy, E(TD-HF/TD-DFT) =  -3007.77634254
 Copying the excited state density for this state as the 1-particle RhoCI density.

 Excited State   2:      Singlet-A      2.1222 eV  584.22 nm  f=0.2338  <S**2>=0.000
     245 -> 247        0.67192
     246 -> 248       -0.20540

 Excited State   3:      Singlet-A      3.4404 eV  360.37 nm  f=0.0069  <S**2>=0.000
     241 -> 247       -0.20297
     242 -> 247       -0.17317
     244 -> 247        0.63260

 Excited State   4:      Singlet-A      3.5851 eV  345.83 nm  f=0.0017  <S**2>=0.000
     241 -> 247        0.58184
     242 -> 247        0.18386
     244 -> 247        0.23205
     246 -> 248        0.14895

 Excited State   5:      Singlet-A      3.7550 eV  330.18 nm  f=0.0063  <S**2>=0.000
     239 -> 247        0.29739
     239 -> 249       -0.13293
     240 -> 247        0.48557
     240 -> 249       -0.21916
     240 -> 250       -0.12445
     242 -> 247        0.10609
     246 -> 248        0.11439

 The electronic state is 1-A.
 Alpha  occ. eigenvalues --  -46.95733 -19.31412 -19.29294 -19.24611 -19.24589
 Alpha  occ. eigenvalues --  -19.24267 -19.23542 -14.46355 -14.44696 -14.44368
 Alpha  occ. eigenvalues --  -14.44322 -10.43939 -10.42384 -10.39924 -10.39076
 Alpha  occ. eigenvalues --  -10.36926 -10.35483 -10.35254 -10.35076 -10.34701
 Alpha  occ. eigenvalues --  -10.34036 -10.34007 -10.33784 -10.33542 -10.33316
 Alpha  occ. eigenvalues --  -10.32836 -10.32299 -10.32262 -10.32080 -10.32047
 Alpha  occ. eigenvalues --  -10.32023 -10.31854 -10.31272 -10.31263 -10.31255
 Alpha  occ. eigenvalues --  -10.30812 -10.30696 -10.30517 -10.30353 -10.30220
 Alpha  occ. eigenvalues --  -10.30200 -10.30189 -10.29829 -10.29642 -10.29628
 Alpha  occ. eigenvalues --  -10.29588 -10.29558 -10.29506 -10.29353 -10.29303
 Alpha  occ. eigenvalues --  -10.29261 -10.29214 -10.29161 -10.29046 -10.28950
 Alpha  occ. eigenvalues --  -10.28781 -10.28743 -10.28667 -10.28579 -10.28501
 Alpha  occ. eigenvalues --  -10.28498 -10.28479 -10.28426 -10.28221 -10.27783
 Alpha  occ. eigenvalues --  -10.27535  -3.21710  -1.95284  -1.94842  -1.94672
 Alpha  occ. eigenvalues --   -1.18763  -1.16420  -1.14378  -1.13034  -1.08504
 Alpha  occ. eigenvalues --   -1.08488  -1.07916  -1.06947  -1.06883  -1.02918
 Alpha  occ. eigenvalues --   -0.93184  -0.92481  -0.91713  -0.91404  -0.90783
 Alpha  occ. eigenvalues --   -0.90327  -0.89839  -0.89724  -0.89601  -0.89312
 Alpha  occ. eigenvalues --   -0.87405  -0.86990  -0.86224  -0.85571  -0.84879
 Alpha  occ. eigenvalues --   -0.84392  -0.83935  -0.83329  -0.82820  -0.82398
 Alpha  occ. eigenvalues --   -0.81563  -0.80755  -0.79691  -0.78949  -0.78430
 Alpha  occ. eigenvalues --   -0.77663  -0.77633  -0.77377  -0.76001  -0.75487
 Alpha  occ. eigenvalues --   -0.75197  -0.74651  -0.73097  -0.71950  -0.70864
 Alpha  occ. eigenvalues --   -0.70562  -0.69930  -0.69736  -0.68233  -0.67914
 Alpha  occ. eigenvalues --   -0.67501  -0.66963  -0.66663  -0.66221  -0.65843
 Alpha  occ. eigenvalues --   -0.65632  -0.64618  -0.64236  -0.63466  -0.63124
 Alpha  occ. eigenvalues --   -0.62258  -0.61325  -0.61064  -0.60041  -0.59632
 Alpha  occ. eigenvalues --   -0.59171  -0.58946  -0.58535  -0.57830  -0.57576
 Alpha  occ. eigenvalues --   -0.57340  -0.56453  -0.56218  -0.55934  -0.55883
 Alpha  occ. eigenvalues --   -0.55558  -0.55296  -0.55076  -0.55042  -0.54883
 Alpha  occ. eigenvalues --   -0.54524  -0.54395  -0.54159  -0.53857  -0.53252
 Alpha  occ. eigenvalues --   -0.53183  -0.52785  -0.52616  -0.52480  -0.52209
 Alpha  occ. eigenvalues --   -0.52175  -0.52037  -0.51828  -0.51623  -0.51593
 Alpha  occ. eigenvalues --   -0.51504  -0.51177  -0.51112  -0.50973  -0.50519
 Alpha  occ. eigenvalues --   -0.50438  -0.50209  -0.49946  -0.49894  -0.49587
 Alpha  occ. eigenvalues --   -0.49403  -0.49327  -0.49306  -0.49156  -0.48435
 Alpha  occ. eigenvalues --   -0.48307  -0.47985  -0.47801  -0.47543  -0.47486
 Alpha  occ. eigenvalues --   -0.47435  -0.47299  -0.47118  -0.46856  -0.46693
 Alpha  occ. eigenvalues --   -0.46512  -0.46399  -0.46310  -0.46228  -0.46004
 Alpha  occ. eigenvalues --   -0.45823  -0.45566  -0.45449  -0.45174  -0.45049
 Alpha  occ. eigenvalues --   -0.44744  -0.44681  -0.44601  -0.44444  -0.44112
 Alpha  occ. eigenvalues --   -0.43939  -0.43363  -0.43184  -0.42868  -0.42655
 Alpha  occ. eigenvalues --   -0.42584  -0.42369  -0.42222  -0.41919  -0.41852
 Alpha  occ. eigenvalues --   -0.41759  -0.41345  -0.41130  -0.41079  -0.40465
 Alpha  occ. eigenvalues --   -0.40229  -0.40171  -0.39687  -0.39508  -0.39446
 Alpha  occ. eigenvalues --   -0.38717  -0.38545  -0.38437  -0.38389  -0.38299
 Alpha  occ. eigenvalues --   -0.37775  -0.37554  -0.35752  -0.35611  -0.35506
 Alpha  occ. eigenvalues --   -0.35065  -0.34781  -0.34719  -0.33946  -0.33591
 Alpha  occ. eigenvalues --   -0.33241  -0.32756  -0.31830  -0.31752  -0.25426
 Alpha  occ. eigenvalues --   -0.23433
 Alpha virt. eigenvalues --   -0.07381   0.01609   0.03075   0.04747   0.05646
 Alpha virt. eigenvalues --    0.06414   0.07232   0.08416   0.08688   0.09307
 Alpha virt. eigenvalues --    0.10415   0.11431   0.11844   0.12450   0.12588

 Mulliken charges:
               1
     1  Mg   0.975593
     2  C   -0.021083
     3  C   -0.053582
     4  C   -0.053472
     5  C   -0.109894
     6  N   -0.302026
     7  C   -0.000653
     8  C   -0.077941
     9  C   -0.133028
    10  C    0.070933
    11  C    0.037288
    12  C    0.065122
    13  C   -0.037392
    14  C    0.273897
    15  O   -0.277835
    16  O   -0.359384
    17  N   -0.460852
    18  C    0.092010
    19  C   -0.147508
    20  C   -0.078303
    21  C    0.134429
    22  C    0.063434
    23  C    0.051938
    24  O   -0.201367
    25  C   -0.020629
    26  N   -0.271241
    27  C    0.014833
    28  C   -0.095400
    29  C   -0.044834
    30  C    0.058384
    31  C    0.023257
    32  C   -0.029576
    33  C   -0.028143
    34  N   -0.485108
    35  C    0.125941
    36  C   -0.223519
    37  C   -0.055330
    38  C    0.152659
    39  C    0.077497
    40  C    0.164052
    41  O   -0.174943
    42  C   -0.082789
    43  C    0.262669
    44  O   -0.269449
    45  O   -0.389362
    46  C    0.153385
    47  C    0.274933
    48  C   -0.183647
    49  C   -0.220337
    50  C    0.022988
    51  C    0.079753
    52  C   -0.053138
    53  C    0.013165
    54  C   -0.206626
    55  C   -0.005246
    56  C    0.009813
    57  C   -0.061687
    58  C    0.018920
    59  C   -0.200717
    60  C    0.012230
    61  C    0.013142
    62  C   -0.015793
    63  C   -0.003651
    64  C   -0.216526
    65  C    0.010357
    66  C    0.001193
    67  H   -0.025652
    68  H    0.021104
    69  H   -0.000267
    70  H    0.020527
    71  H    0.034203
    72  H    0.041713
    73  H    0.027722
    74  H    0.045585
    75  H    0.027839
    76  H    0.079197
    77  H    0.053619
    78  H    0.050059
    79  H    0.049011
    80  H    0.053623
    81  H    0.041836
    82  H    0.050194
    83  H    0.042771
    84  H    0.056085
    85  H    0.046109
    86  H    0.031521
    87  H    0.049232
    88  H    0.037455
    89  H    0.032059
    90  H    0.021054
    91  H    0.014975
    92  H    0.040172
    93  H    0.034780
    94  H    0.038185
    95  H    0.028809
    96  H    0.052493
    97  H    0.061907
    98  H    0.080062
    99  H    0.037193
   100  H    0.074491
   101  H    0.043303
   102  H    0.089226
   103  H    0.056970
   104  H    0.019994
   105  H    0.040758
   106  H    0.046410
   107  H    0.017196
   108  H    0.021973
   109  H    0.013180
   110  H    0.035971
   111  H    0.029459
   112  H    0.007280
   113  H    0.018617
   114  H    0.021464
   115  H    0.031980
   116  H    0.031944
   117  H    0.022121
   118  H    0.013446
   119  H    0.021813
   120  H    0.017204
   121  H    0.030735
   122  H    0.012102
   123  H    0.019749
   124  H    0.019149
   125  H    0.028640
   126  H    0.028455
   127  H    0.026919
   128  H    0.002236
   129  H    0.020215
   130  H    0.017162
   131  H    0.022065
   132  H    0.019086
   133  H    0.030508
   134  H    0.013310
   135  H    0.030327
   136  H    0.027137
   137  H    0.009841
   138  H    0.028749
   139  H    0.029700
   140  H    0.032135
 Sum of Mulliken charges =  -0.00000

 Dipole moment (field-independent basis, Debye):
    X=             -2.2919    Y=              3.6420    Z=             -3.3148  Tot=              5.4319
 Quadrupole moment (field-independent basis, Debye-Ang):
   XX=           -368.8219   YY=           -403.0917   ZZ=           -401.7680
   XY=             11.1170   XZ=              1.8046   YZ=             -9.0343

 Normal termination of Gaussian 16 at Fri Apr 29 22:57:29 2022.
