 Gaussian 16, Revision A.03,
 Gaussian 16:  ES64L-G16RevA.03 25-Dec-2016

 --------------------
 #p ZINDO=(nstates=5)
 --------------------

 -----------------------------
 step_501_chromophore_22 ZINDO
 -----------------------------
 Symbolic Z-matrix:
 Charge =  0 Multiplicity = 1

                         Standard orientation:
 ---------------------------------------------------------------------
 Center     Atomic      Atomic             Coordinates (Angstroms)
 Number     Number       Type             X           Y           Z
 ---------------------------------------------------------------------
      1         12           0        5.981297    0.581964   -0.014047
      2          6           0        3.543120   -2.018893   -0.645879
      3          6           0        3.875202    2.600544   -1.402241
      4          6           0        8.435627    2.742610    0.398770
      5          6           0        8.475863   -1.949720    0.745799
      6          7           0        3.848467    0.298562   -0.819346
      7          6           0        3.036422   -0.801354   -1.002696
      8          6           0        1.764981   -0.401019   -1.659996
      9          6           0        2.109648    0.960218   -2.317159
     10          6           0        3.380096    1.315406   -1.509200
     11          6           0        2.423377    0.878088   -3.827166
     12          6           0        0.661202   -0.183609   -0.580490
     13          6           0       -0.763460   -0.780628   -0.902226
     14          6           0       -1.795570   -1.037491    0.266874
     15          8           0       -1.650560   -0.750845    1.484858
     16          8           0       -2.775080   -1.828479   -0.240050
     17          7           0        6.082651    2.526548   -0.436318
     18          6           0        5.090150    3.235797   -0.903861
     19          6           0        5.498267    4.627834   -0.922657
     20          6           0        6.759923    4.631295   -0.282425
     21          6           0        7.143321    3.256499   -0.108653
     22          6           0        4.531839    5.729726   -1.393673
     23          6           0        7.572502    5.843186    0.079571
     24          8           0        8.644051    5.716993    0.592622
     25          6           0        6.982185    7.201648   -0.115340
     26          7           0        8.284718    0.331488    0.243317
     27          6           0        8.937353    1.455984    0.530039
     28          6           0       10.268657    1.191819    1.126650
     29          6           0       10.322113   -0.366174    1.036065
     30          6           0        8.921390   -0.748199    0.636371
     31          6           0       11.505900    1.957158    0.533576
     32          6           0       10.806605   -0.999570    2.398406
     33          6           0       12.242327   -1.584384    2.508563
     34          7           0        6.083961   -1.450677    0.056847
     35          6           0        7.090413   -2.363744    0.443387
     36          6           0        6.547100   -3.737269    0.407406
     37          6           0        5.219692   -3.611425    0.020128
     38          6           0        4.972411   -2.271562   -0.226286
     39          6           0        7.375114   -5.029839    0.606761
     40          6           0        3.993925   -4.430839   -0.246378
     41          8           0        3.735532   -5.607369   -0.150605
     42          6           0        2.888839   -3.435328   -0.863212
     43          6           0        1.607899   -3.656786   -0.299689
     44          8           0        1.206518   -3.027043    0.688926
     45          8           0        0.829281   -4.651190   -0.883568
     46          6           0       -0.598582   -4.792870   -0.463332
     47          6           0       -3.692031   -2.445455    0.713788
     48          6           0       -5.047341   -2.453831   -0.062348
     49          6           0       -6.252408   -2.996631    0.219864
     50          6           0       -6.421682   -3.958084    1.408864
     51          6           0       -7.454071   -2.789093   -0.602740
     52          6           0       -8.398057   -1.712638   -0.063154
     53          6           0       -8.294138   -0.318752   -0.753719
     54          6           0       -9.631272    0.425093   -0.645529
     55          6           0      -10.501572    0.258419   -1.958575
     56          6           0       -9.458260    1.975703   -0.281090
     57          6           0       -9.654470    2.146867    1.280985
     58          6           0      -10.825377    3.181072    1.547875
     59          6           0      -12.072270    2.556148    2.191776
     60          6           0      -12.140841    2.980191    3.670152
     61          6           0      -13.508459    2.979664    1.624153
     62          6           0      -14.365057    1.719269    1.374965
     63          6           0      -14.062288    1.104809    0.052938
     64          6           0      -15.313830    0.320816   -0.525732
     65          6           0      -14.828170   -0.987806   -0.996193
     66          6           0      -16.063906    1.141006   -1.588722
     67          1           0        3.242310    3.392800   -1.805958
     68          1           0        9.230117    3.464846    0.597319
     69          1           0        9.210481   -2.721457    0.980780
     70          1           0        1.534053   -1.090566   -2.472389
     71          1           0        1.354088    1.741973   -2.241595
     72          1           0        1.720367    1.486506   -4.396894
     73          1           0        2.329006   -0.169120   -4.112972
     74          1           0        3.438360    1.170588   -4.097622
     75          1           0        0.568279    0.899294   -0.496082
     76          1           0        1.076969   -0.570507    0.349637
     77          1           0       -0.613650   -1.702028   -1.464316
     78          1           0       -1.179279   -0.027277   -1.572356
     79          1           0        4.293747    6.365528   -0.539943
     80          1           0        3.622471    5.388454   -1.887137
     81          1           0        5.051178    6.428217   -2.049172
     82          1           0        6.090005    7.359339    0.490104
     83          1           0        6.582414    7.426495   -1.104080
     84          1           0        7.700437    7.946731    0.227721
     85          1           0       10.215521    1.465482    2.180407
     86          1           0       10.938310   -0.655511    0.184505
     87          1           0       11.105192    2.670208   -0.186156
     88          1           0       12.323195    1.355351    0.134575
     89          1           0       11.996213    2.494963    1.345208
     90          1           0       10.153717   -1.835929    2.649575
     91          1           0       10.493315   -0.284068    3.158664
     92          1           0       12.711079   -1.242590    3.431212
     93          1           0       12.824670   -1.283353    1.637558
     94          1           0       12.211105   -2.673581    2.555633
     95          1           0        8.171219   -4.806036    1.316297
     96          1           0        7.883542   -5.274316   -0.326177
     97          1           0        6.762914   -5.858529    0.963304
     98          1           0        2.842648   -3.613658   -1.937131
     99          1           0       -1.170974   -3.897614   -0.710279
    100          1           0       -0.680783   -5.198943    0.544144
    101          1           0       -1.059632   -5.482724   -1.170067
    102          1           0       -3.867600   -1.929875    1.658461
    103          1           0       -3.471371   -3.508173    0.811264
    104          1           0       -5.056463   -1.846770   -0.967716
    105          1           0       -6.677154   -4.946011    1.024925
    106          1           0       -7.158471   -3.696171    2.168210
    107          1           0       -5.453025   -4.060524    1.898041
    108          1           0       -8.000425   -3.718721   -0.760727
    109          1           0       -7.089408   -2.424927   -1.563577
    110          1           0       -8.182397   -1.434281    0.967999
    111          1           0       -9.384297   -2.105902   -0.312644
    112          1           0       -8.056649   -0.447911   -1.810277
    113          1           0       -7.480953    0.212346   -0.260190
    114          1           0      -10.146444   -0.058777    0.184526
    115          1           0      -10.130152    0.806921   -2.823389
    116          1           0      -11.475502    0.648670   -1.661643
    117          1           0      -10.540070   -0.792497   -2.246725
    118          1           0      -10.179687    2.623789   -0.780439
    119          1           0       -8.456147    2.217101   -0.635433
    120          1           0       -8.728952    2.664622    1.533322
    121          1           0       -9.642807    1.203938    1.827187
    122          1           0      -11.072617    3.703326    0.623365
    123          1           0      -10.262335    3.905725    2.134915
    124          1           0      -11.871398    1.485484    2.197446
    125          1           0      -11.362447    2.392961    4.157652
    126          1           0      -13.163851    2.852029    4.024286
    127          1           0      -11.935427    4.049487    3.624097
    128          1           0      -13.227349    3.516678    0.718681
    129          1           0      -14.079125    3.670206    2.246688
    130          1           0      -15.398364    2.037128    1.516527
    131          1           0      -14.128233    1.029580    2.185479
    132          1           0      -13.305226    0.361402    0.301979
    133          1           0      -13.715322    1.731414   -0.768335
    134          1           0      -16.036984    0.081429    0.253520
    135          1           0      -14.307503   -1.517183   -0.198210
    136          1           0      -14.333742   -0.851876   -1.957208
    137          1           0      -15.713569   -1.601168   -1.164877
    138          1           0      -15.407103    1.260423   -2.450482
    139          1           0      -16.310039    2.092461   -1.116363
    140          1           0      -16.998176    0.659861   -1.877241
 ---------------------------------------------------------------------

 SCF Done:  E(RZINDO/S) =  -474.346832480     A.U. after   19 cycles

 Excitation energies and oscillator strengths:

 Excited State   1:      Singlet-A      1.2759 eV  971.74 nm  f=0.5744  <S**2>=0.000
     175 ->178         0.16905
     176 ->177         0.66999
 This state for optimization and/or second-order correction.
 Total Energy, E(CIS/TDA) =  -474.299944047
 Copying the excited state density for this state as the 1-particle RhoCI density.

 Excited State   2:      Singlet-A      1.8955 eV  654.11 nm  f=0.2069  <S**2>=0.000
     175 ->177         0.61769
     176 ->178        -0.30445

 Excited State   3:      Singlet-A      2.9757 eV  416.66 nm  f=0.0003  <S**2>=0.000
     167 ->177        -0.10158
     167 ->179         0.18174
     168 ->177        -0.28940
     168 ->178         0.11255
     168 ->179         0.40489
     168 ->181        -0.16024
     168 ->185        -0.18485
     170 ->177         0.17539
     170 ->179        -0.12923

 Excited State   4:      Singlet-A      3.1232 eV  396.98 nm  f=0.6797  <S**2>=0.000
     170 ->177         0.15347
     171 ->177         0.13044
     172 ->177         0.14184
     175 ->177         0.23558
     176 ->178         0.52255
     176 ->179        -0.17602
     176 ->181        -0.10595
     176 ->183        -0.10280

 Excited State   5:      Singlet-A      3.1427 eV  394.52 nm  f=0.0421  <S**2>=0.000
     169 ->177         0.22839
     169 ->178        -0.18562
     169 ->179         0.24628
     169 ->180        -0.10019
     169 ->181         0.33615
     169 ->182        -0.19447
     169 ->183         0.17680
     169 ->185        -0.19343
     169 ->202        -0.10186
     173 ->177         0.12964
     176 ->178        -0.11136

 The electronic state is 1-A.
 Alpha  occ. eigenvalues --   -1.86284  -1.83901  -1.82139  -1.72605  -1.71281
 Alpha  occ. eigenvalues --   -1.69104  -1.65671  -1.62070  -1.61735  -1.56511
 Alpha  occ. eigenvalues --   -1.56412  -1.51023  -1.48025  -1.46887  -1.45693
 Alpha  occ. eigenvalues --   -1.43257  -1.42225  -1.39574  -1.39329  -1.39158
 Alpha  occ. eigenvalues --   -1.35889  -1.33311  -1.32457  -1.30696  -1.27855
 Alpha  occ. eigenvalues --   -1.27455  -1.25199  -1.22267  -1.20683  -1.18303
 Alpha  occ. eigenvalues --   -1.16869  -1.16372  -1.14728  -1.14524  -1.12905
 Alpha  occ. eigenvalues --   -1.11530  -1.10842  -1.09075  -1.05266  -1.04906
 Alpha  occ. eigenvalues --   -1.03004  -1.01572  -0.98318  -0.97444  -0.96612
 Alpha  occ. eigenvalues --   -0.95652  -0.94736  -0.93611  -0.92979  -0.91420
 Alpha  occ. eigenvalues --   -0.90711  -0.89440  -0.89278  -0.88130  -0.86163
 Alpha  occ. eigenvalues --   -0.85981  -0.84335  -0.83645  -0.82552  -0.80602
 Alpha  occ. eigenvalues --   -0.80201  -0.78772  -0.76726  -0.76474  -0.75131
 Alpha  occ. eigenvalues --   -0.75000  -0.74625  -0.73876  -0.73544  -0.73464
 Alpha  occ. eigenvalues --   -0.72572  -0.72272  -0.71917  -0.71251  -0.70731
 Alpha  occ. eigenvalues --   -0.69920  -0.69355  -0.69021  -0.68320  -0.67567
 Alpha  occ. eigenvalues --   -0.67389  -0.66448  -0.65931  -0.65806  -0.65692
 Alpha  occ. eigenvalues --   -0.65191  -0.64165  -0.63960  -0.63706  -0.63250
 Alpha  occ. eigenvalues --   -0.62804  -0.62314  -0.62064  -0.61365  -0.60905
 Alpha  occ. eigenvalues --   -0.60839  -0.60643  -0.60430  -0.60172  -0.59646
 Alpha  occ. eigenvalues --   -0.59300  -0.59094  -0.58786  -0.58572  -0.58158
 Alpha  occ. eigenvalues --   -0.57811  -0.57732  -0.57427  -0.57063  -0.56557
 Alpha  occ. eigenvalues --   -0.56182  -0.55822  -0.55579  -0.55091  -0.54967
 Alpha  occ. eigenvalues --   -0.54708  -0.54420  -0.53664  -0.53066  -0.53046
 Alpha  occ. eigenvalues --   -0.52213  -0.52158  -0.51978  -0.51578  -0.51136
 Alpha  occ. eigenvalues --   -0.50622  -0.50558  -0.50215  -0.50045  -0.50012
 Alpha  occ. eigenvalues --   -0.49580  -0.49500  -0.49274  -0.48967  -0.48685
 Alpha  occ. eigenvalues --   -0.48305  -0.48007  -0.47724  -0.47626  -0.47407
 Alpha  occ. eigenvalues --   -0.47344  -0.47130  -0.46938  -0.46510  -0.46322
 Alpha  occ. eigenvalues --   -0.46287  -0.46128  -0.45700  -0.45353  -0.45090
 Alpha  occ. eigenvalues --   -0.44842  -0.44718  -0.44589  -0.44258  -0.44123
 Alpha  occ. eigenvalues --   -0.43451  -0.43351  -0.42412  -0.41782  -0.41571
 Alpha  occ. eigenvalues --   -0.41143  -0.40819  -0.40270  -0.38573  -0.38160
 Alpha  occ. eigenvalues --   -0.37547  -0.36552  -0.35733  -0.34719  -0.34094
 Alpha  occ. eigenvalues --   -0.33757  -0.32884  -0.31836  -0.31735  -0.26137
 Alpha  occ. eigenvalues --   -0.22124
 Alpha virt. eigenvalues --   -0.08837  -0.00789   0.00132   0.01538   0.01805
 Alpha virt. eigenvalues --    0.01855   0.03018   0.03807   0.05018   0.05347
 Alpha virt. eigenvalues --    0.06562   0.06903   0.07578   0.07967   0.08384

 Mulliken charges:
               1
     1  Mg   0.443404
     2  C   -0.044255
     3  C   -0.100938
     4  C   -0.091845
     5  C   -0.063798
     6  N   -0.289955
     7  C    0.115145
     8  C    0.015157
     9  C   -0.000320
    10  C    0.175900
    11  C   -0.053257
    12  C   -0.023381
    13  C    0.004849
    14  C    0.464000
    15  O   -0.513392
    16  O   -0.256147
    17  N   -0.293750
    18  C    0.130096
    19  C    0.010640
    20  C   -0.032305
    21  C    0.153380
    22  C   -0.042433
    23  C    0.334271
    24  O   -0.504946
    25  C   -0.034463
    26  N   -0.288431
    27  C    0.173812
    28  C    0.001769
    29  C   -0.006084
    30  C    0.131725
    31  C   -0.056450
    32  C   -0.043108
    33  C   -0.053590
    34  N   -0.324277
    35  C    0.060395
    36  C   -0.006583
    37  C   -0.041129
    38  C    0.082404
    39  C   -0.041334
    40  C    0.338479
    41  O   -0.502203
    42  C    0.055734
    43  C    0.494106
    44  O   -0.536883
    45  O   -0.278989
    46  C    0.075168
    47  C    0.107224
    48  C   -0.105052
    49  C   -0.007313
    50  C   -0.050674
    51  C   -0.014891
    52  C   -0.035954
    53  C   -0.035536
    54  C   -0.024304
    55  C   -0.061487
    56  C   -0.047066
    57  C   -0.049514
    58  C   -0.035826
    59  C   -0.022777
    60  C   -0.064064
    61  C   -0.040933
    62  C   -0.025494
    63  C   -0.032420
    64  C   -0.017871
    65  C   -0.053163
    66  C   -0.054948
    67  H    0.008674
    68  H    0.044164
    69  H    0.028117
    70  H    0.027420
    71  H    0.032278
    72  H    0.019937
    73  H    0.019265
    74  H    0.024891
    75  H    0.021208
    76  H    0.051545
    77  H    0.043286
    78  H    0.033829
    79  H    0.030907
    80  H    0.034720
    81  H    0.026229
    82  H    0.033800
    83  H    0.037238
    84  H    0.034815
    85  H    0.036897
    86  H    0.031468
    87  H    0.029619
    88  H    0.025938
    89  H    0.016906
    90  H    0.014641
    91  H    0.023290
    92  H    0.021028
    93  H    0.021000
    94  H    0.022116
    95  H    0.018860
    96  H    0.029493
    97  H    0.036832
    98  H    0.050619
    99  H    0.043957
   100  H    0.060798
   101  H    0.023299
   102  H    0.072620
   103  H    0.051651
   104  H    0.022553
   105  H    0.023851
   106  H    0.030409
   107  H    0.015509
   108  H    0.022072
   109  H    0.016843
   110  H    0.031782
   111  H    0.022043
   112  H    0.017415
   113  H    0.019631
   114  H    0.020590
   115  H    0.022917
   116  H    0.017115
   117  H    0.016579
   118  H    0.024215
   119  H    0.021255
   120  H    0.007477
   121  H    0.036736
   122  H    0.020958
   123  H    0.018674
   124  H    0.025091
   125  H    0.020778
   126  H    0.021100
   127  H    0.020484
   128  H    0.014537
   129  H    0.022649
   130  H    0.014494
   131  H    0.020853
   132  H    0.016488
   133  H    0.029563
   134  H    0.014741
   135  H    0.021194
   136  H    0.024771
   137  H    0.000691
   138  H    0.022625
   139  H    0.015960
   140  H    0.017878
 Sum of Mulliken charges =  -0.00000

 Dipole moment (field-independent basis, Debye):
    X=             -2.6503    Y=              6.9440    Z=             -6.8440  Tot=             10.1036
 N-N= 4.246499310533D+03 E-N= 0.000000000000D+00  KE=-9.168086717411D+03
 Leave Link  601 at Fri Apr 29 23:10:45 2022, MaxMem=  6710886400 cpu:               1.0 elap:               0.1
 (Enter /sw/apps/gaussian-16.0/g16/l9999.exe)
 1\1\GINC-BP1-COMPUTE082\SP\RZINDO CIS\STO-3G\C55H74Mg1N4O6\OF15641\29-
 Apr-2022\0\\#p ZINDO=(nstates=5)\\step_501_chromophore_22 ZINDO\\0,1\M
 g,0,9.2,47.366,24.88\C,0,7.026,47.769,27.747\C,0,11.57,48.447,26.791\C
 ,0,10.946,47.193,22.09\C,0,6.291,46.967,22.738\N,0,9.276,47.921,27.108
 \C,0,8.32,48.034,28.096\C,0,8.935,48.527,29.356\C,0,10.255,49.187,28.8
 81\C,0,10.38,48.526,27.488\C,0,10.19,50.725,28.756\C,0,9.271,47.32,30.
 284\C,0,8.91,47.486,31.811\C,0,8.763,46.21,32.732\O,0,8.973,45.011,32.

 Normal termination of Gaussian 16 at Fri Apr 29 23:10:45 2022.
