 Gaussian 16, Revision A.03,
 Gaussian 16:  ES64L-G16RevA.03 25-Dec-2016

 ------------------------------
 #p blyp/Def2SVP td=(nstates=5)
 ------------------------------

 --------------------------------------------------
 step_1301_chromophore_9 TDDFT with blyp functional
 --------------------------------------------------
 Symbolic Z-matrix:
 Charge =  0 Multiplicity = 1

                         Standard orientation:
 ---------------------------------------------------------------------
 Center     Atomic      Atomic             Coordinates (Angstroms)
 Number     Number       Type             X           Y           Z
 ---------------------------------------------------------------------
      1         12           0       -5.261561    0.792552   -0.149245
      2          6           0       -4.053328   -2.513124    0.253695
      3          6           0       -1.862737    1.810648   -0.313905
      4          6           0       -6.316480    3.914473    0.126745
      5          6           0       -8.426631   -0.388384    0.454846
      6          7           0       -3.109915   -0.264084    0.185512
      7          6           0       -2.970120   -1.640845    0.142234
      8          6           0       -1.448205   -1.933793   -0.244813
      9          6           0       -0.781554   -0.560330   -0.189651
     10          6           0       -1.920529    0.374489   -0.167448
     11          6           0        0.215531   -0.321176    1.039587
     12          6           0       -1.049851   -2.713138   -1.542044
     13          6           0        0.426015   -3.215137   -1.709785
     14          6           0        1.339161   -3.207285   -0.458190
     15          8           0        1.144724   -3.776613    0.613572
     16          8           0        2.446316   -2.442157   -0.649545
     17          7           0       -4.268782    2.584607   -0.305748
     18          6           0       -2.864931    2.828623   -0.330600
     19          6           0       -2.685464    4.259011   -0.584161
     20          6           0       -3.955062    4.843472   -0.433209
     21          6           0       -4.949535    3.771319   -0.119336
     22          6           0       -1.358317    4.904543   -0.786193
     23          6           0       -4.334622    6.352528   -0.561947
     24          8           0       -5.487799    6.753378   -0.523319
     25          6           0       -3.355951    7.381861   -0.936367
     26          7           0       -6.977077    1.613773    0.302333
     27          6           0       -7.249900    2.900483    0.327130
     28          6           0       -8.751329    3.349292    0.430977
     29          6           0       -9.454229    1.961130    0.410223
     30          6           0       -8.215035    0.978669    0.379056
     31          6           0       -9.092926    4.224617    1.621815
     32          6           0      -10.449278    1.694349   -0.780602
     33          6           0      -10.008282    1.349289   -2.207992
     34          7           0       -6.125621   -1.058201    0.205707
     35          6           0       -7.419695   -1.412179    0.525026
     36          6           0       -7.546221   -2.822309    0.642772
     37          6           0       -6.269057   -3.283606    0.521660
     38          6           0       -5.366908   -2.174671    0.325927
     39          6           0       -8.787837   -3.574370    0.782684
     40          6           0       -5.507833   -4.516658    0.319782
     41          8           0       -5.876085   -5.659885    0.251838
     42          6           0       -3.958717   -4.057071    0.117459
     43          6           0       -3.258257   -4.629875    1.305518
     44          8           0       -3.439312   -4.426481    2.509595
     45          8           0       -2.232032   -5.419099    0.782033
     46          6           0       -1.245764   -5.793851    1.821017
     47          6           0        3.438349   -2.673341    0.423453
     48          6           0        4.797674   -2.132701   -0.038185
     49          6           0        5.706009   -2.770962   -0.766839
     50          6           0        5.366868   -4.093982   -1.463322
     51          6           0        7.057722   -2.123767   -0.901970
     52          6           0        7.268757   -1.198907   -2.140066
     53          6           0        8.266804   -1.699012   -3.191936
     54          6           0        9.086957   -0.568302   -3.788632
     55          6           0        9.305367   -0.756631   -5.262923
     56          6           0       10.373509   -0.270801   -2.901970
     57          6           0       10.189826    1.082129   -2.214074
     58          6           0       11.397298    1.581458   -1.400356
     59          6           0       10.992426    2.540709   -0.315483
     60          6           0       10.745537    3.995122   -0.871332
     61          6           0       12.010043    2.533546    0.879709
     62          6           0       11.390166    2.675369    2.285713
     63          6           0       11.610542    1.450520    3.163536
     64          6           0       10.934711    1.658011    4.546870
     65          6           0       12.010237    1.847125    5.725157
     66          6           0        9.912157    0.581614    4.912728
     67          1           0       -0.912877    2.281213   -0.577594
     68          1           0       -6.815862    4.884612    0.167671
     69          1           0       -9.484378   -0.657337    0.476371
     70          1           0       -1.072036   -2.504274    0.604216
     71          1           0       -0.304504   -0.345268   -1.146815
     72          1           0       -0.120311   -0.875521    1.916520
     73          1           0        0.247597    0.756584    1.198879
     74          1           0        1.270554   -0.503776    0.833296
     75          1           0       -1.348200   -2.064139   -2.364709
     76          1           0       -1.723865   -3.565694   -1.454181
     77          1           0        0.749912   -2.472137   -2.439131
     78          1           0        0.415704   -4.227789   -2.112027
     79          1           0       -1.302278    5.820425   -1.374191
     80          1           0       -0.676744    4.168618   -1.212957
     81          1           0       -0.847383    5.166188    0.140899
     82          1           0       -2.372996    7.258638   -0.480674
     83          1           0       -3.730939    8.331490   -0.556863
     84          1           0       -3.122499    7.295932   -1.997540
     85          1           0       -8.939155    3.866837   -0.509480
     86          1           0       -9.986775    1.827188    1.352265
     87          1           0       -8.159255    4.407873    2.153873
     88          1           0       -9.736877    3.738498    2.355526
     89          1           0       -9.433863    5.189325    1.246721
     90          1           0      -11.057835    2.588151   -0.911664
     91          1           0      -11.164651    0.922096   -0.495367
     92          1           0      -10.452969    2.224553   -2.682211
     93          1           0      -10.392333    0.410871   -2.607058
     94          1           0       -8.937368    1.468817   -2.369259
     95          1           0       -9.575574   -2.847575    0.585500
     96          1           0       -8.949754   -4.137294    1.701600
     97          1           0       -8.989929   -4.262466   -0.038887
     98          1           0       -3.636190   -4.480784   -0.833632
     99          1           0       -0.424569   -6.320056    1.333483
    100          1           0       -1.696033   -6.493040    2.525574
    101          1           0       -0.781169   -4.979968    2.378189
    102          1           0        3.503475   -3.716238    0.732126
    103          1           0        3.175198   -2.177686    1.358263
    104          1           0        5.094959   -1.222025    0.482277
    105          1           0        5.870772   -4.048464   -2.428209
    106          1           0        4.289856   -4.109985   -1.633877
    107          1           0        5.692608   -4.909941   -0.817428
    108          1           0        7.853411   -2.865111   -0.830735
    109          1           0        7.185556   -1.445165   -0.058845
    110          1           0        7.227270   -0.133715   -1.913231
    111          1           0        6.282339   -1.313973   -2.591000
    112          1           0        7.787327   -2.363467   -3.910494
    113          1           0        8.869677   -2.370503   -2.580930
    114          1           0        8.340713    0.224738   -3.747471
    115          1           0       10.356406   -0.975768   -5.456440
    116          1           0        9.162833    0.189479   -5.784186
    117          1           0        8.648702   -1.476043   -5.751470
    118          1           0       11.326431   -0.229758   -3.429253
    119          1           0       10.372150   -1.023114   -2.113247
    120          1           0        9.309722    0.997596   -1.576485
    121          1           0       10.014366    1.793699   -3.021266
    122          1           0       12.164815    2.045591   -2.020256
    123          1           0       11.822742    0.663606   -0.996487
    124          1           0       10.060568    2.184596    0.124530
    125          1           0        9.691750    4.121577   -0.624368
    126          1           0       10.877320    4.160567   -1.940450
    127          1           0       11.265722    4.753579   -0.285407
    128          1           0       12.738431    3.335998    0.760765
    129          1           0       12.640147    1.644087    0.862545
    130          1           0       10.329582    2.923977    2.284368
    131          1           0       12.052559    3.459906    2.649345
    132          1           0       12.670228    1.251173    3.318961
    133          1           0       11.160476    0.657195    2.566049
    134          1           0       10.436202    2.626066    4.495839
    135          1           0       12.857498    2.453522    5.405827
    136          1           0       12.430378    0.952133    6.185083
    137          1           0       11.470802    2.499221    6.412390
    138          1           0       10.416731   -0.203897    5.476176
    139          1           0        9.389608    0.129076    4.069249
    140          1           0        9.125575    0.981087    5.552404
 ---------------------------------------------------------------------

 SCF Done:  E(RB-LYP) =  -3007.36279628     A.U. after   21 cycles

 Excitation energies and oscillator strengths:

 Excited State   1:      Singlet-A      1.8103 eV  684.88 nm  f=0.3105  <S**2>=0.000
     245 -> 248       -0.19599
     246 -> 247        0.69005
     246 <- 247       -0.14747
 This state for optimization and/or second-order correction.
 Total Energy, E(TD-HF/TD-DFT) =  -3007.29626854
 Copying the excited state density for this state as the 1-particle RhoCI density.

 Excited State   2:      Singlet-A      1.9340 eV  641.09 nm  f=0.0032  <S**2>=0.000
     244 -> 247        0.68744
     245 -> 247        0.15615

 Excited State   3:      Singlet-A      2.0200 eV  613.80 nm  f=0.0011  <S**2>=0.000
     243 -> 247        0.70046

 Excited State   4:      Singlet-A      2.0448 eV  606.34 nm  f=0.0517  <S**2>=0.000
     244 -> 247       -0.15696
     245 -> 247        0.61520
     246 -> 248        0.27365

 Excited State   5:      Singlet-A      2.5775 eV  481.02 nm  f=0.0018  <S**2>=0.000
     241 -> 247       -0.11814
     242 -> 247        0.68297

 The electronic state is 1-A.
 Alpha  occ. eigenvalues --  -46.26395 -18.83468 -18.81046 -18.77947 -18.76183
 Alpha  occ. eigenvalues --  -18.75615 -18.75421 -14.03104 -14.03036 -14.00987
 Alpha  occ. eigenvalues --  -14.00689 -10.05232 -10.03058  -9.99702  -9.99133
 Alpha  occ. eigenvalues --   -9.98205  -9.96787  -9.96590  -9.96225  -9.96134
 Alpha  occ. eigenvalues --   -9.95945  -9.95902  -9.95811  -9.95121  -9.94949
 Alpha  occ. eigenvalues --   -9.94122  -9.94028  -9.93926  -9.93834  -9.93795
 Alpha  occ. eigenvalues --   -9.93674  -9.93605  -9.93580  -9.93549  -9.93528
 Alpha  occ. eigenvalues --   -9.93306  -9.93289  -9.92997  -9.92830  -9.92713
 Alpha  occ. eigenvalues --   -9.92532  -9.92343  -9.92342  -9.92305  -9.92274
 Alpha  occ. eigenvalues --   -9.92030  -9.91953  -9.91908  -9.91790  -9.91754
 Alpha  occ. eigenvalues --   -9.91701  -9.91701  -9.91690  -9.91598  -9.91326
 Alpha  occ. eigenvalues --   -9.91256  -9.91234  -9.91127  -9.91090  -9.90954
 Alpha  occ. eigenvalues --   -9.90926  -9.90822  -9.90794  -9.90788  -9.90654
 Alpha  occ. eigenvalues --   -9.90254  -2.91297  -1.71684  -1.71250  -1.70973
 Alpha  occ. eigenvalues --   -0.99363  -0.95754  -0.91909  -0.91744  -0.90413
 Alpha  occ. eigenvalues --   -0.88225  -0.86844  -0.85775  -0.84489  -0.83561
 Alpha  occ. eigenvalues --   -0.74887  -0.74423  -0.73370  -0.72682  -0.72394
 Alpha  occ. eigenvalues --   -0.72327  -0.71602  -0.71061  -0.70637  -0.70366
 Alpha  occ. eigenvalues --   -0.69718  -0.68867  -0.68162  -0.67629  -0.67112
 Alpha  occ. eigenvalues --   -0.66382  -0.65792  -0.65300  -0.64801  -0.64448
 Alpha  occ. eigenvalues --   -0.64096  -0.62458  -0.62189  -0.61618  -0.61424
 Alpha  occ. eigenvalues --   -0.60219  -0.60054  -0.59882  -0.59514  -0.59146
 Alpha  occ. eigenvalues --   -0.58365  -0.57661  -0.56975  -0.55776  -0.54901
 Alpha  occ. eigenvalues --   -0.53858  -0.53370  -0.52470  -0.51972  -0.51207
 Alpha  occ. eigenvalues --   -0.50668  -0.50459  -0.50359  -0.50137  -0.50044
 Alpha  occ. eigenvalues --   -0.49574  -0.49533  -0.49041  -0.47420  -0.46504
 Alpha  occ. eigenvalues --   -0.46416  -0.45555  -0.45331  -0.44800  -0.44221
 Alpha  occ. eigenvalues --   -0.43926  -0.43690  -0.43412  -0.42977  -0.42324
 Alpha  occ. eigenvalues --   -0.42265  -0.42219  -0.41776  -0.41474  -0.41256
 Alpha  occ. eigenvalues --   -0.40942  -0.40839  -0.40552  -0.40283  -0.40027
 Alpha  occ. eigenvalues --   -0.39974  -0.39848  -0.39690  -0.39289  -0.39266
 Alpha  occ. eigenvalues --   -0.39157  -0.38950  -0.38614  -0.38485  -0.38107
 Alpha  occ. eigenvalues --   -0.37849  -0.37779  -0.37628  -0.37398  -0.37313
 Alpha  occ. eigenvalues --   -0.37175  -0.37020  -0.36719  -0.36668  -0.36459
 Alpha  occ. eigenvalues --   -0.36308  -0.36007  -0.35740  -0.35526  -0.35349
 Alpha  occ. eigenvalues --   -0.35299  -0.34990  -0.34648  -0.34583  -0.34396
 Alpha  occ. eigenvalues --   -0.34300  -0.34219  -0.34048  -0.33988  -0.33773
 Alpha  occ. eigenvalues --   -0.33766  -0.33587  -0.33309  -0.33217  -0.33209
 Alpha  occ. eigenvalues --   -0.32994  -0.32868  -0.32695  -0.32510  -0.32305
 Alpha  occ. eigenvalues --   -0.32129  -0.31923  -0.31766  -0.31627  -0.31354
 Alpha  occ. eigenvalues --   -0.31252  -0.31106  -0.30975  -0.30859  -0.30718
 Alpha  occ. eigenvalues --   -0.30696  -0.30524  -0.30353  -0.30016  -0.29864
 Alpha  occ. eigenvalues --   -0.29604  -0.29197  -0.29153  -0.29052  -0.28909
 Alpha  occ. eigenvalues --   -0.28762  -0.28758  -0.27916  -0.27746  -0.27668
 Alpha  occ. eigenvalues --   -0.27551  -0.27420  -0.27133  -0.27015  -0.26372
 Alpha  occ. eigenvalues --   -0.26239  -0.26203  -0.26087  -0.25818  -0.25436
 Alpha  occ. eigenvalues --   -0.25210  -0.25065  -0.24120  -0.23872  -0.23595
 Alpha  occ. eigenvalues --   -0.23455  -0.23304  -0.22045  -0.21295  -0.21176
 Alpha  occ. eigenvalues --   -0.20490  -0.20176  -0.18567  -0.18265  -0.17233
 Alpha  occ. eigenvalues --   -0.15545
 Alpha virt. eigenvalues --   -0.11235  -0.06734  -0.05819  -0.04314  -0.04060
 Alpha virt. eigenvalues --   -0.03018  -0.02546  -0.02150  -0.01999   0.00552
 Alpha virt. eigenvalues --    0.01667   0.01839   0.01932   0.02267   0.02905

 Mulliken charges:
               1
     1  Mg   0.717127
     2  C   -0.022333
     3  C   -0.031398
     4  C   -0.059712
     5  C   -0.085655
     6  N   -0.198312
     7  C   -0.083775
     8  C    0.032812
     9  C    0.029888
    10  C   -0.014915
    11  C    0.135644
    12  C    0.089676
    13  C    0.170590
    14  C    0.079748
    15  O   -0.204328
    16  O   -0.254876
    17  N   -0.351955
    18  C    0.108184
    19  C   -0.103031
    20  C    0.028928
    21  C    0.174470
    22  C    0.145502
    23  C   -0.065516
    24  O   -0.169625
    25  C    0.133265
    26  N   -0.265544
    27  C   -0.005016
    28  C   -0.010101
    29  C    0.078173
    30  C    0.019992
    31  C    0.155597
    32  C    0.037783
    33  C    0.078841
    34  N   -0.272552
    35  C    0.133483
    36  C   -0.160900
    37  C    0.087721
    38  C    0.136720
    39  C    0.183890
    40  C   -0.063213
    41  O   -0.106610
    42  C    0.035106
    43  C    0.141636
    44  O   -0.190779
    45  O   -0.288694
    46  C    0.228987
    47  C    0.283575
    48  C   -0.085797
    49  C   -0.173006
    50  C    0.161664
    51  C    0.149034
    52  C    0.035496
    53  C    0.109694
    54  C   -0.050655
    55  C    0.120114
    56  C    0.143562
    57  C    0.003868
    58  C    0.131475
    59  C   -0.069523
    60  C    0.112421
    61  C    0.105912
    62  C    0.046147
    63  C    0.101025
    64  C   -0.060037
    65  C    0.071191
    66  C    0.105849
    67  H   -0.070742
    68  H   -0.049605
    69  H   -0.064552
    70  H   -0.011786
    71  H   -0.036575
    72  H    0.012897
    73  H   -0.024646
    74  H   -0.008607
    75  H   -0.016505
    76  H   -0.014391
    77  H   -0.005829
    78  H    0.014174
    79  H   -0.007486
    80  H   -0.015760
    81  H    0.004962
    82  H   -0.023250
    83  H    0.002482
    84  H    0.023314
    85  H   -0.017665
    86  H   -0.029494
    87  H   -0.009431
    88  H   -0.007771
    89  H    0.003348
    90  H   -0.025991
    91  H   -0.022138
    92  H   -0.015074
    93  H    0.007647
    94  H   -0.004238
    95  H   -0.042118
    96  H    0.017786
    97  H   -0.006604
    98  H    0.012382
    99  H   -0.002553
   100  H    0.003623
   101  H    0.021278
   102  H    0.000702
   103  H   -0.005143
   104  H   -0.045380
   105  H   -0.004061
   106  H   -0.001885
   107  H    0.015559
   108  H   -0.030877
   109  H   -0.040199
   110  H   -0.015992
   111  H   -0.042747
   112  H   -0.035896
   113  H   -0.047507
   114  H   -0.031987
   115  H   -0.025567
   116  H   -0.028111
   117  H   -0.019459
   118  H   -0.025237
   119  H   -0.031167
   120  H   -0.028410
   121  H   -0.028864
   122  H   -0.032861
   123  H   -0.050053
   124  H   -0.041552
   125  H   -0.022073
   126  H   -0.003916
   127  H   -0.016397
   128  H   -0.046030
   129  H   -0.047249
   130  H   -0.018211
   131  H   -0.035478
   132  H   -0.033698
   133  H   -0.038872
   134  H   -0.033784
   135  H   -0.023044
   136  H   -0.000349
   137  H   -0.015682
   138  H   -0.015129
   139  H   -0.019856
   140  H   -0.021551
 Sum of Mulliken charges =  -0.00000

 Dipole moment (field-independent basis, Debye):
    X=              4.5214    Y=              3.2606    Z=             -3.6424  Tot=              6.6589
 Quadrupole moment (field-independent basis, Debye-Ang):
   XX=           -376.4848   YY=           -438.0793   ZZ=           -407.8302
   XY=            -19.0864   XZ=              8.7980   YZ=             10.7550

 Normal termination of Gaussian 16 at Wed May  4 04:28:48 2022.
