 Gaussian 16, Revision A.03,
 Gaussian 16:  ES64L-G16RevA.03 25-Dec-2016

 -----------------------------------
 #p cam-b3lyp/Def2SVP td=(nstates=5)
 -----------------------------------

 -------------------------------------------------------
 step_1301_chromophore_9 TDDFT with cam-b3lyp functional
 -------------------------------------------------------
 Symbolic Z-matrix:
 Charge =  0 Multiplicity = 1

                         Standard orientation:
 ---------------------------------------------------------------------
 Center     Atomic      Atomic             Coordinates (Angstroms)
 Number     Number       Type             X           Y           Z
 ---------------------------------------------------------------------
      1         12           0       -5.261561    0.792552   -0.149245
      2          6           0       -4.053328   -2.513124    0.253695
      3          6           0       -1.862737    1.810648   -0.313905
      4          6           0       -6.316480    3.914473    0.126745
      5          6           0       -8.426631   -0.388384    0.454846
      6          7           0       -3.109915   -0.264084    0.185512
      7          6           0       -2.970120   -1.640845    0.142234
      8          6           0       -1.448205   -1.933793   -0.244813
      9          6           0       -0.781554   -0.560330   -0.189651
     10          6           0       -1.920529    0.374489   -0.167448
     11          6           0        0.215531   -0.321176    1.039587
     12          6           0       -1.049851   -2.713138   -1.542044
     13          6           0        0.426015   -3.215137   -1.709785
     14          6           0        1.339161   -3.207285   -0.458190
     15          8           0        1.144724   -3.776613    0.613572
     16          8           0        2.446316   -2.442157   -0.649545
     17          7           0       -4.268782    2.584607   -0.305748
     18          6           0       -2.864931    2.828623   -0.330600
     19          6           0       -2.685464    4.259011   -0.584161
     20          6           0       -3.955062    4.843472   -0.433209
     21          6           0       -4.949535    3.771319   -0.119336
     22          6           0       -1.358317    4.904543   -0.786193
     23          6           0       -4.334622    6.352528   -0.561947
     24          8           0       -5.487799    6.753378   -0.523319
     25          6           0       -3.355951    7.381861   -0.936367
     26          7           0       -6.977077    1.613773    0.302333
     27          6           0       -7.249900    2.900483    0.327130
     28          6           0       -8.751329    3.349292    0.430977
     29          6           0       -9.454229    1.961130    0.410223
     30          6           0       -8.215035    0.978669    0.379056
     31          6           0       -9.092926    4.224617    1.621815
     32          6           0      -10.449278    1.694349   -0.780602
     33          6           0      -10.008282    1.349289   -2.207992
     34          7           0       -6.125621   -1.058201    0.205707
     35          6           0       -7.419695   -1.412179    0.525026
     36          6           0       -7.546221   -2.822309    0.642772
     37          6           0       -6.269057   -3.283606    0.521660
     38          6           0       -5.366908   -2.174671    0.325927
     39          6           0       -8.787837   -3.574370    0.782684
     40          6           0       -5.507833   -4.516658    0.319782
     41          8           0       -5.876085   -5.659885    0.251838
     42          6           0       -3.958717   -4.057071    0.117459
     43          6           0       -3.258257   -4.629875    1.305518
     44          8           0       -3.439312   -4.426481    2.509595
     45          8           0       -2.232032   -5.419099    0.782033
     46          6           0       -1.245764   -5.793851    1.821017
     47          6           0        3.438349   -2.673341    0.423453
     48          6           0        4.797674   -2.132701   -0.038185
     49          6           0        5.706009   -2.770962   -0.766839
     50          6           0        5.366868   -4.093982   -1.463322
     51          6           0        7.057722   -2.123767   -0.901970
     52          6           0        7.268757   -1.198907   -2.140066
     53          6           0        8.266804   -1.699012   -3.191936
     54          6           0        9.086957   -0.568302   -3.788632
     55          6           0        9.305367   -0.756631   -5.262923
     56          6           0       10.373509   -0.270801   -2.901970
     57          6           0       10.189826    1.082129   -2.214074
     58          6           0       11.397298    1.581458   -1.400356
     59          6           0       10.992426    2.540709   -0.315483
     60          6           0       10.745537    3.995122   -0.871332
     61          6           0       12.010043    2.533546    0.879709
     62          6           0       11.390166    2.675369    2.285713
     63          6           0       11.610542    1.450520    3.163536
     64          6           0       10.934711    1.658011    4.546870
     65          6           0       12.010237    1.847125    5.725157
     66          6           0        9.912157    0.581614    4.912728
     67          1           0       -0.912877    2.281213   -0.577594
     68          1           0       -6.815862    4.884612    0.167671
     69          1           0       -9.484378   -0.657337    0.476371
     70          1           0       -1.072036   -2.504274    0.604216
     71          1           0       -0.304504   -0.345268   -1.146815
     72          1           0       -0.120311   -0.875521    1.916520
     73          1           0        0.247597    0.756584    1.198879
     74          1           0        1.270554   -0.503776    0.833296
     75          1           0       -1.348200   -2.064139   -2.364709
     76          1           0       -1.723865   -3.565694   -1.454181
     77          1           0        0.749912   -2.472137   -2.439131
     78          1           0        0.415704   -4.227789   -2.112027
     79          1           0       -1.302278    5.820425   -1.374191
     80          1           0       -0.676744    4.168618   -1.212957
     81          1           0       -0.847383    5.166188    0.140899
     82          1           0       -2.372996    7.258638   -0.480674
     83          1           0       -3.730939    8.331490   -0.556863
     84          1           0       -3.122499    7.295932   -1.997540
     85          1           0       -8.939155    3.866837   -0.509480
     86          1           0       -9.986775    1.827188    1.352265
     87          1           0       -8.159255    4.407873    2.153873
     88          1           0       -9.736877    3.738498    2.355526
     89          1           0       -9.433863    5.189325    1.246721
     90          1           0      -11.057835    2.588151   -0.911664
     91          1           0      -11.164651    0.922096   -0.495367
     92          1           0      -10.452969    2.224553   -2.682211
     93          1           0      -10.392333    0.410871   -2.607058
     94          1           0       -8.937368    1.468817   -2.369259
     95          1           0       -9.575574   -2.847575    0.585500
     96          1           0       -8.949754   -4.137294    1.701600
     97          1           0       -8.989929   -4.262466   -0.038887
     98          1           0       -3.636190   -4.480784   -0.833632
     99          1           0       -0.424569   -6.320056    1.333483
    100          1           0       -1.696033   -6.493040    2.525574
    101          1           0       -0.781169   -4.979968    2.378189
    102          1           0        3.503475   -3.716238    0.732126
    103          1           0        3.175198   -2.177686    1.358263
    104          1           0        5.094959   -1.222025    0.482277
    105          1           0        5.870772   -4.048464   -2.428209
    106          1           0        4.289856   -4.109985   -1.633877
    107          1           0        5.692608   -4.909941   -0.817428
    108          1           0        7.853411   -2.865111   -0.830735
    109          1           0        7.185556   -1.445165   -0.058845
    110          1           0        7.227270   -0.133715   -1.913231
    111          1           0        6.282339   -1.313973   -2.591000
    112          1           0        7.787327   -2.363467   -3.910494
    113          1           0        8.869677   -2.370503   -2.580930
    114          1           0        8.340713    0.224738   -3.747471
    115          1           0       10.356406   -0.975768   -5.456440
    116          1           0        9.162833    0.189479   -5.784186
    117          1           0        8.648702   -1.476043   -5.751470
    118          1           0       11.326431   -0.229758   -3.429253
    119          1           0       10.372150   -1.023114   -2.113247
    120          1           0        9.309722    0.997596   -1.576485
    121          1           0       10.014366    1.793699   -3.021266
    122          1           0       12.164815    2.045591   -2.020256
    123          1           0       11.822742    0.663606   -0.996487
    124          1           0       10.060568    2.184596    0.124530
    125          1           0        9.691750    4.121577   -0.624368
    126          1           0       10.877320    4.160567   -1.940450
    127          1           0       11.265722    4.753579   -0.285407
    128          1           0       12.738431    3.335998    0.760765
    129          1           0       12.640147    1.644087    0.862545
    130          1           0       10.329582    2.923977    2.284368
    131          1           0       12.052559    3.459906    2.649345
    132          1           0       12.670228    1.251173    3.318961
    133          1           0       11.160476    0.657195    2.566049
    134          1           0       10.436202    2.626066    4.495839
    135          1           0       12.857498    2.453522    5.405827
    136          1           0       12.430378    0.952133    6.185083
    137          1           0       11.470802    2.499221    6.412390
    138          1           0       10.416731   -0.203897    5.476176
    139          1           0        9.389608    0.129076    4.069249
    140          1           0        9.125575    0.981087    5.552404
 ---------------------------------------------------------------------

 SCF Done:  E(RCAM-B3LYP) =  -3007.15729705     A.U. after   16 cycles

 Excitation energies and oscillator strengths:

 Excited State   1:      Singlet-A      1.7232 eV  719.51 nm  f=0.3747  <S**2>=0.000
     245 -> 248       -0.18093
     246 -> 247        0.68556
     245 <- 248       -0.10685
 This state for optimization and/or second-order correction.
 Total Energy, E(TD-HF/TD-DFT) =  -3007.09397165
 Copying the excited state density for this state as the 1-particle RhoCI density.

 Excited State   2:      Singlet-A      2.2901 eV  541.40 nm  f=0.0715  <S**2>=0.000
     245 -> 247        0.62092
     246 -> 248        0.32511

 Excited State   3:      Singlet-A      3.3934 eV  365.36 nm  f=0.2124  <S**2>=0.000
     242 -> 247        0.45592
     243 -> 247        0.18341
     244 -> 247       -0.20823
     245 -> 247        0.15992
     246 -> 248       -0.41255

 Excited State   4:      Singlet-A      3.5042 eV  353.82 nm  f=0.1340  <S**2>=0.000
     243 -> 247        0.14221
     243 -> 249       -0.10395
     243 -> 251       -0.13633
     244 -> 247        0.56789
     244 -> 249       -0.10828
     245 -> 247        0.13491
     246 -> 248       -0.26760

 Excited State   5:      Singlet-A      3.5827 eV  346.06 nm  f=0.2078  <S**2>=0.000
     243 -> 247        0.54126
     243 -> 249       -0.17116
     243 -> 251       -0.17764
     245 -> 247       -0.16790
     246 -> 248        0.27991

 The electronic state is 1-A.
 Alpha  occ. eigenvalues --  -46.87862 -19.26362 -19.23961 -19.20891 -19.19272
 Alpha  occ. eigenvalues --  -19.18955 -19.18540 -14.42141 -14.41743 -14.39552
 Alpha  occ. eigenvalues --  -14.38958 -10.40538 -10.38565 -10.35194 -10.34266
 Alpha  occ. eigenvalues --  -10.32366 -10.31522 -10.31027 -10.30837 -10.30832
 Alpha  occ. eigenvalues --  -10.30626 -10.30284 -10.29752 -10.29229 -10.28954
 Alpha  occ. eigenvalues --  -10.28926 -10.28092 -10.27940 -10.27925 -10.27863
 Alpha  occ. eigenvalues --  -10.27807 -10.27801 -10.27760 -10.27709 -10.27703
 Alpha  occ. eigenvalues --  -10.27546 -10.27504 -10.27438 -10.26663 -10.26352
 Alpha  occ. eigenvalues --  -10.26343 -10.26137 -10.26085 -10.26058 -10.26049
 Alpha  occ. eigenvalues --  -10.25965 -10.25713 -10.25709 -10.25622 -10.25617
 Alpha  occ. eigenvalues --  -10.25459 -10.25380 -10.25267 -10.25216 -10.24958
 Alpha  occ. eigenvalues --  -10.24923 -10.24884 -10.24760 -10.24745 -10.24610
 Alpha  occ. eigenvalues --  -10.24528 -10.24486 -10.24443 -10.24367 -10.24363
 Alpha  occ. eigenvalues --  -10.24009  -3.16680  -1.91539  -1.91205  -1.90948
 Alpha  occ. eigenvalues --   -1.17819  -1.14241  -1.10474  -1.10121  -1.08220
 Alpha  occ. eigenvalues --   -1.06093  -1.04454  -1.03164  -1.02175  -1.01276
 Alpha  occ. eigenvalues --   -0.91875  -0.91343  -0.90205  -0.89442  -0.89133
 Alpha  occ. eigenvalues --   -0.88966  -0.88496  -0.87669  -0.87061  -0.86982
 Alpha  occ. eigenvalues --   -0.86243  -0.85268  -0.84479  -0.83675  -0.83253
 Alpha  occ. eigenvalues --   -0.82506  -0.82207  -0.81245  -0.80696  -0.80200
 Alpha  occ. eigenvalues --   -0.79935  -0.78298  -0.77898  -0.77014  -0.76860
 Alpha  occ. eigenvalues --   -0.75513  -0.75403  -0.75195  -0.74788  -0.74424
 Alpha  occ. eigenvalues --   -0.73431  -0.72645  -0.71917  -0.70591  -0.69476
 Alpha  occ. eigenvalues --   -0.68442  -0.67900  -0.66844  -0.66397  -0.65394
 Alpha  occ. eigenvalues --   -0.64647  -0.64550  -0.64427  -0.64256  -0.63917
 Alpha  occ. eigenvalues --   -0.63533  -0.63448  -0.62975  -0.61130  -0.60284
 Alpha  occ. eigenvalues --   -0.60088  -0.58930  -0.58865  -0.58123  -0.57651
 Alpha  occ. eigenvalues --   -0.57347  -0.57088  -0.56752  -0.56085  -0.55574
 Alpha  occ. eigenvalues --   -0.55236  -0.55141  -0.54744  -0.54461  -0.54254
 Alpha  occ. eigenvalues --   -0.53833  -0.53607  -0.53456  -0.52995  -0.52866
 Alpha  occ. eigenvalues --   -0.52789  -0.52429  -0.52382  -0.52193  -0.51911
 Alpha  occ. eigenvalues --   -0.51679  -0.51577  -0.51345  -0.50756  -0.50475
 Alpha  occ. eigenvalues --   -0.50321  -0.50235  -0.49997  -0.49728  -0.49612
 Alpha  occ. eigenvalues --   -0.49426  -0.49340  -0.49271  -0.48903  -0.48719
 Alpha  occ. eigenvalues --   -0.48606  -0.48489  -0.48134  -0.47998  -0.47610
 Alpha  occ. eigenvalues --   -0.47386  -0.46890  -0.46754  -0.46508  -0.46364
 Alpha  occ. eigenvalues --   -0.46290  -0.45948  -0.45908  -0.45677  -0.45531
 Alpha  occ. eigenvalues --   -0.45460  -0.45272  -0.45068  -0.44949  -0.44845
 Alpha  occ. eigenvalues --   -0.44786  -0.44601  -0.44418  -0.44167  -0.43830
 Alpha  occ. eigenvalues --   -0.43741  -0.43478  -0.43384  -0.43276  -0.42944
 Alpha  occ. eigenvalues --   -0.42865  -0.42580  -0.42431  -0.42200  -0.42169
 Alpha  occ. eigenvalues --   -0.42050  -0.41982  -0.41772  -0.41470  -0.41327
 Alpha  occ. eigenvalues --   -0.41144  -0.40860  -0.40394  -0.40074  -0.39927
 Alpha  occ. eigenvalues --   -0.39822  -0.39697  -0.38842  -0.38758  -0.38614
 Alpha  occ. eigenvalues --   -0.38546  -0.38254  -0.37982  -0.37879  -0.37553
 Alpha  occ. eigenvalues --   -0.37184  -0.36993  -0.36904  -0.36678  -0.36334
 Alpha  occ. eigenvalues --   -0.35866  -0.35638  -0.35617  -0.35237  -0.34449
 Alpha  occ. eigenvalues --   -0.34275  -0.33809  -0.32725  -0.31290  -0.31116
 Alpha  occ. eigenvalues --   -0.31038  -0.30001  -0.29809  -0.29404  -0.24149
 Alpha  occ. eigenvalues --   -0.20788
 Alpha virt. eigenvalues --   -0.08164  -0.01683   0.00760   0.02375   0.02851
 Alpha virt. eigenvalues --    0.03881   0.04404   0.05137   0.05787   0.07374
 Alpha virt. eigenvalues --    0.07822   0.08066   0.08743   0.08959   0.09218

 Mulliken charges:
               1
     1  Mg   0.849733
     2  C   -0.044684
     3  C   -0.045851
     4  C   -0.085214
     5  C   -0.091346
     6  N   -0.255080
     7  C   -0.038810
     8  C   -0.022823
     9  C   -0.028808
    10  C    0.007168
    11  C    0.080728
    12  C    0.047873
    13  C    0.101970
    14  C    0.151060
    15  O   -0.246124
    16  O   -0.315673
    17  N   -0.438773
    18  C    0.120667
    19  C   -0.109459
    20  C   -0.036602
    21  C    0.201026
    22  C    0.085213
    23  C    0.014611
    24  O   -0.206820
    25  C    0.049739
    26  N   -0.345835
    27  C    0.024962
    28  C   -0.065662
    29  C    0.028138
    30  C    0.030571
    31  C    0.091432
    32  C   -0.013990
    33  C    0.017607
    34  N   -0.357746
    35  C    0.132554
    36  C   -0.168058
    37  C    0.022677
    38  C    0.157262
    39  C    0.134255
    40  C    0.033131
    41  O   -0.147083
    42  C   -0.045882
    43  C    0.235504
    44  O   -0.227162
    45  O   -0.351839
    46  C    0.187569
    47  C    0.246426
    48  C   -0.107476
    49  C   -0.191103
    50  C    0.104184
    51  C    0.087300
    52  C   -0.022764
    53  C    0.062200
    54  C   -0.115901
    55  C    0.063660
    56  C    0.088902
    57  C   -0.037846
    58  C    0.074954
    59  C   -0.125614
    60  C    0.053042
    61  C    0.055204
    62  C   -0.010356
    63  C    0.047175
    64  C   -0.123665
    65  C    0.015724
    66  C    0.047942
    67  H   -0.036245
    68  H   -0.009117
    69  H   -0.031362
    70  H    0.020854
    71  H   -0.001167
    72  H    0.038346
    73  H    0.000652
    74  H    0.014745
    75  H    0.011821
    76  H    0.012583
    77  H    0.027981
    78  H    0.046483
    79  H    0.021171
    80  H    0.012268
    81  H    0.035305
    82  H    0.006564
    83  H    0.037507
    84  H    0.050920
    85  H    0.018010
    86  H    0.006722
    87  H    0.017608
    88  H    0.018800
    89  H    0.027818
    90  H    0.001691
    91  H    0.005305
    92  H    0.007203
    93  H    0.031378
    94  H    0.017310
    95  H   -0.018457
    96  H    0.042180
    97  H    0.019784
    98  H    0.055866
    99  H    0.022307
   100  H    0.028428
   101  H    0.043103
   102  H    0.031855
   103  H    0.022057
   104  H   -0.012601
   105  H    0.017289
   106  H    0.021307
   107  H    0.039463
   108  H   -0.000609
   109  H   -0.007570
   110  H    0.011293
   111  H   -0.010172
   112  H   -0.006933
   113  H   -0.019827
   114  H    0.000109
   115  H   -0.001393
   116  H   -0.003381
   117  H    0.005721
   118  H    0.003084
   119  H   -0.003924
   120  H   -0.005735
   121  H   -0.003066
   122  H   -0.004419
   123  H   -0.019991
   124  H   -0.010848
   125  H    0.001431
   126  H    0.019540
   127  H    0.008072
   128  H   -0.015980
   129  H   -0.016402
   130  H    0.007674
   131  H   -0.007079
   132  H   -0.004865
   133  H   -0.011100
   134  H   -0.001519
   135  H    0.000828
   136  H    0.022010
   137  H    0.008091
   138  H    0.007567
   139  H    0.004423
   140  H    0.003122
 Sum of Mulliken charges =  -0.00000

 Dipole moment (field-independent basis, Debye):
    X=              5.2033    Y=              4.3369    Z=             -3.8939  Tot=              7.8132
 Quadrupole moment (field-independent basis, Debye-Ang):
   XX=           -380.5830   YY=           -433.1209   ZZ=           -407.9949
   XY=            -23.3049   XZ=              9.8164   YZ=             10.8405

 Normal termination of Gaussian 16 at Wed May  4 03:27:44 2022.
