 Gaussian 16, Revision A.03,
 Gaussian 16:  ES64L-G16RevA.03 25-Dec-2016

 ---------------------------------
 #p PBE1PBE/Def2SVP td=(nstates=5)
 ---------------------------------

 -----------------------------------------------------
 step_1301_chromophore_9 TDDFT with PBE1PBE functional
 -----------------------------------------------------
 Symbolic Z-matrix:
 Charge =  0 Multiplicity = 1

                         Standard orientation:
 ---------------------------------------------------------------------
 Center     Atomic      Atomic             Coordinates (Angstroms)
 Number     Number       Type             X           Y           Z
 ---------------------------------------------------------------------
      1         12           0       -5.261561    0.792552   -0.149245
      2          6           0       -4.053328   -2.513124    0.253695
      3          6           0       -1.862737    1.810648   -0.313905
      4          6           0       -6.316480    3.914473    0.126745
      5          6           0       -8.426631   -0.388384    0.454846
      6          7           0       -3.109915   -0.264084    0.185512
      7          6           0       -2.970120   -1.640845    0.142234
      8          6           0       -1.448205   -1.933793   -0.244813
      9          6           0       -0.781554   -0.560330   -0.189651
     10          6           0       -1.920529    0.374489   -0.167448
     11          6           0        0.215531   -0.321176    1.039587
     12          6           0       -1.049851   -2.713138   -1.542044
     13          6           0        0.426015   -3.215137   -1.709785
     14          6           0        1.339161   -3.207285   -0.458190
     15          8           0        1.144724   -3.776613    0.613572
     16          8           0        2.446316   -2.442157   -0.649545
     17          7           0       -4.268782    2.584607   -0.305748
     18          6           0       -2.864931    2.828623   -0.330600
     19          6           0       -2.685464    4.259011   -0.584161
     20          6           0       -3.955062    4.843472   -0.433209
     21          6           0       -4.949535    3.771319   -0.119336
     22          6           0       -1.358317    4.904543   -0.786193
     23          6           0       -4.334622    6.352528   -0.561947
     24          8           0       -5.487799    6.753378   -0.523319
     25          6           0       -3.355951    7.381861   -0.936367
     26          7           0       -6.977077    1.613773    0.302333
     27          6           0       -7.249900    2.900483    0.327130
     28          6           0       -8.751329    3.349292    0.430977
     29          6           0       -9.454229    1.961130    0.410223
     30          6           0       -8.215035    0.978669    0.379056
     31          6           0       -9.092926    4.224617    1.621815
     32          6           0      -10.449278    1.694349   -0.780602
     33          6           0      -10.008282    1.349289   -2.207992
     34          7           0       -6.125621   -1.058201    0.205707
     35          6           0       -7.419695   -1.412179    0.525026
     36          6           0       -7.546221   -2.822309    0.642772
     37          6           0       -6.269057   -3.283606    0.521660
     38          6           0       -5.366908   -2.174671    0.325927
     39          6           0       -8.787837   -3.574370    0.782684
     40          6           0       -5.507833   -4.516658    0.319782
     41          8           0       -5.876085   -5.659885    0.251838
     42          6           0       -3.958717   -4.057071    0.117459
     43          6           0       -3.258257   -4.629875    1.305518
     44          8           0       -3.439312   -4.426481    2.509595
     45          8           0       -2.232032   -5.419099    0.782033
     46          6           0       -1.245764   -5.793851    1.821017
     47          6           0        3.438349   -2.673341    0.423453
     48          6           0        4.797674   -2.132701   -0.038185
     49          6           0        5.706009   -2.770962   -0.766839
     50          6           0        5.366868   -4.093982   -1.463322
     51          6           0        7.057722   -2.123767   -0.901970
     52          6           0        7.268757   -1.198907   -2.140066
     53          6           0        8.266804   -1.699012   -3.191936
     54          6           0        9.086957   -0.568302   -3.788632
     55          6           0        9.305367   -0.756631   -5.262923
     56          6           0       10.373509   -0.270801   -2.901970
     57          6           0       10.189826    1.082129   -2.214074
     58          6           0       11.397298    1.581458   -1.400356
     59          6           0       10.992426    2.540709   -0.315483
     60          6           0       10.745537    3.995122   -0.871332
     61          6           0       12.010043    2.533546    0.879709
     62          6           0       11.390166    2.675369    2.285713
     63          6           0       11.610542    1.450520    3.163536
     64          6           0       10.934711    1.658011    4.546870
     65          6           0       12.010237    1.847125    5.725157
     66          6           0        9.912157    0.581614    4.912728
     67          1           0       -0.912877    2.281213   -0.577594
     68          1           0       -6.815862    4.884612    0.167671
     69          1           0       -9.484378   -0.657337    0.476371
     70          1           0       -1.072036   -2.504274    0.604216
     71          1           0       -0.304504   -0.345268   -1.146815
     72          1           0       -0.120311   -0.875521    1.916520
     73          1           0        0.247597    0.756584    1.198879
     74          1           0        1.270554   -0.503776    0.833296
     75          1           0       -1.348200   -2.064139   -2.364709
     76          1           0       -1.723865   -3.565694   -1.454181
     77          1           0        0.749912   -2.472137   -2.439131
     78          1           0        0.415704   -4.227789   -2.112027
     79          1           0       -1.302278    5.820425   -1.374191
     80          1           0       -0.676744    4.168618   -1.212957
     81          1           0       -0.847383    5.166188    0.140899
     82          1           0       -2.372996    7.258638   -0.480674
     83          1           0       -3.730939    8.331490   -0.556863
     84          1           0       -3.122499    7.295932   -1.997540
     85          1           0       -8.939155    3.866837   -0.509480
     86          1           0       -9.986775    1.827188    1.352265
     87          1           0       -8.159255    4.407873    2.153873
     88          1           0       -9.736877    3.738498    2.355526
     89          1           0       -9.433863    5.189325    1.246721
     90          1           0      -11.057835    2.588151   -0.911664
     91          1           0      -11.164651    0.922096   -0.495367
     92          1           0      -10.452969    2.224553   -2.682211
     93          1           0      -10.392333    0.410871   -2.607058
     94          1           0       -8.937368    1.468817   -2.369259
     95          1           0       -9.575574   -2.847575    0.585500
     96          1           0       -8.949754   -4.137294    1.701600
     97          1           0       -8.989929   -4.262466   -0.038887
     98          1           0       -3.636190   -4.480784   -0.833632
     99          1           0       -0.424569   -6.320056    1.333483
    100          1           0       -1.696033   -6.493040    2.525574
    101          1           0       -0.781169   -4.979968    2.378189
    102          1           0        3.503475   -3.716238    0.732126
    103          1           0        3.175198   -2.177686    1.358263
    104          1           0        5.094959   -1.222025    0.482277
    105          1           0        5.870772   -4.048464   -2.428209
    106          1           0        4.289856   -4.109985   -1.633877
    107          1           0        5.692608   -4.909941   -0.817428
    108          1           0        7.853411   -2.865111   -0.830735
    109          1           0        7.185556   -1.445165   -0.058845
    110          1           0        7.227270   -0.133715   -1.913231
    111          1           0        6.282339   -1.313973   -2.591000
    112          1           0        7.787327   -2.363467   -3.910494
    113          1           0        8.869677   -2.370503   -2.580930
    114          1           0        8.340713    0.224738   -3.747471
    115          1           0       10.356406   -0.975768   -5.456440
    116          1           0        9.162833    0.189479   -5.784186
    117          1           0        8.648702   -1.476043   -5.751470
    118          1           0       11.326431   -0.229758   -3.429253
    119          1           0       10.372150   -1.023114   -2.113247
    120          1           0        9.309722    0.997596   -1.576485
    121          1           0       10.014366    1.793699   -3.021266
    122          1           0       12.164815    2.045591   -2.020256
    123          1           0       11.822742    0.663606   -0.996487
    124          1           0       10.060568    2.184596    0.124530
    125          1           0        9.691750    4.121577   -0.624368
    126          1           0       10.877320    4.160567   -1.940450
    127          1           0       11.265722    4.753579   -0.285407
    128          1           0       12.738431    3.335998    0.760765
    129          1           0       12.640147    1.644087    0.862545
    130          1           0       10.329582    2.923977    2.284368
    131          1           0       12.052559    3.459906    2.649345
    132          1           0       12.670228    1.251173    3.318961
    133          1           0       11.160476    0.657195    2.566049
    134          1           0       10.436202    2.626066    4.495839
    135          1           0       12.857498    2.453522    5.405827
    136          1           0       12.430378    0.952133    6.185083
    137          1           0       11.470802    2.499221    6.412390
    138          1           0       10.416731   -0.203897    5.476176
    139          1           0        9.389608    0.129076    4.069249
    140          1           0        9.125575    0.981087    5.552404
 ---------------------------------------------------------------------

 SCF Done:  E(RPBE1PBE) =  -3005.34408291     A.U. after   15 cycles

 Excitation energies and oscillator strengths:

 Excited State   1:      Singlet-A      1.8579 eV  667.33 nm  f=0.3676  <S**2>=0.000
     245 -> 248        0.17573
     246 -> 247        0.69241
     246 <- 247       -0.10397
 This state for optimization and/or second-order correction.
 Total Energy, E(TD-HF/TD-DFT) =  -3005.27580617
 Copying the excited state density for this state as the 1-particle RhoCI density.

 Excited State   2:      Singlet-A      2.2756 eV  544.84 nm  f=0.0753  <S**2>=0.000
     245 -> 247        0.63497
     246 -> 248       -0.29864

 Excited State   3:      Singlet-A      2.9714 eV  417.25 nm  f=0.0003  <S**2>=0.000
     244 -> 247        0.68114
     244 -> 249       -0.11577

 Excited State   4:      Singlet-A      3.1172 eV  397.75 nm  f=0.0076  <S**2>=0.000
     241 -> 247        0.18087
     242 -> 247        0.24068
     243 -> 247        0.61025
     246 -> 248        0.14940

 Excited State   5:      Singlet-A      3.1423 eV  394.57 nm  f=0.0001  <S**2>=0.000
     241 -> 247        0.60114
     241 -> 249        0.17849
     242 -> 247        0.16658
     243 -> 247       -0.25888

 The electronic state is 1-A.
 Alpha  occ. eigenvalues --  -46.91302 -19.27016 -19.24656 -19.21174 -19.19530
 Alpha  occ. eigenvalues --  -19.18966 -19.18940 -14.41543 -14.41375 -14.39178
 Alpha  occ. eigenvalues --  -14.38726 -10.37585 -10.35621 -10.32126 -10.31598
 Alpha  occ. eigenvalues --  -10.29780 -10.29100 -10.28805 -10.28497 -10.28265
 Alpha  occ. eigenvalues --  -10.28220 -10.28139 -10.27010 -10.26935 -10.26541
 Alpha  occ. eigenvalues --  -10.26464 -10.25851 -10.25718 -10.25675 -10.25657
 Alpha  occ. eigenvalues --  -10.25562 -10.25558 -10.25532 -10.25415 -10.25275
 Alpha  occ. eigenvalues --  -10.25148 -10.25110 -10.24759 -10.24106 -10.24059
 Alpha  occ. eigenvalues --  -10.24037 -10.23904 -10.23779 -10.23718 -10.23658
 Alpha  occ. eigenvalues --  -10.23403 -10.23335 -10.23205 -10.23160 -10.23080
 Alpha  occ. eigenvalues --  -10.23021 -10.22973 -10.22933 -10.22733 -10.22571
 Alpha  occ. eigenvalues --  -10.22507 -10.22291 -10.22278 -10.22132 -10.22130
 Alpha  occ. eigenvalues --  -10.22006 -10.21968 -10.21966 -10.21937 -10.21883
 Alpha  occ. eigenvalues --  -10.21745  -3.13691  -1.86490  -1.86137  -1.85881
 Alpha  occ. eigenvalues --   -1.12617  -1.09016  -1.05055  -1.05012  -1.03072
 Alpha  occ. eigenvalues --   -1.00941  -0.99134  -0.97990  -0.96727  -0.95762
 Alpha  occ. eigenvalues --   -0.86323  -0.85484  -0.84316  -0.83626  -0.83269
 Alpha  occ. eigenvalues --   -0.83254  -0.82678  -0.81773  -0.81511  -0.81246
 Alpha  occ. eigenvalues --   -0.80551  -0.79465  -0.78636  -0.77991  -0.77447
 Alpha  occ. eigenvalues --   -0.76782  -0.76262  -0.75437  -0.74907  -0.74502
 Alpha  occ. eigenvalues --   -0.74284  -0.72486  -0.72124  -0.71357  -0.71033
 Alpha  occ. eigenvalues --   -0.69881  -0.69474  -0.69327  -0.69134  -0.68587
 Alpha  occ. eigenvalues --   -0.67742  -0.67124  -0.66297  -0.64952  -0.63855
 Alpha  occ. eigenvalues --   -0.62692  -0.62373  -0.61108  -0.60789  -0.59922
 Alpha  occ. eigenvalues --   -0.59117  -0.58965  -0.58680  -0.58492  -0.58400
 Alpha  occ. eigenvalues --   -0.58022  -0.57657  -0.57161  -0.55733  -0.54672
 Alpha  occ. eigenvalues --   -0.54469  -0.53598  -0.53398  -0.52693  -0.52142
 Alpha  occ. eigenvalues --   -0.51965  -0.51515  -0.51186  -0.50674  -0.50086
 Alpha  occ. eigenvalues --   -0.49751  -0.49632  -0.49210  -0.48963  -0.48639
 Alpha  occ. eigenvalues --   -0.48293  -0.48180  -0.48080  -0.47489  -0.47381
 Alpha  occ. eigenvalues --   -0.47226  -0.46927  -0.46884  -0.46660  -0.46444
 Alpha  occ. eigenvalues --   -0.46181  -0.46049  -0.45963  -0.45329  -0.45204
 Alpha  occ. eigenvalues --   -0.44932  -0.44661  -0.44506  -0.44294  -0.44139
 Alpha  occ. eigenvalues --   -0.44012  -0.43903  -0.43832  -0.43487  -0.43283
 Alpha  occ. eigenvalues --   -0.43189  -0.43069  -0.42829  -0.42590  -0.42306
 Alpha  occ. eigenvalues --   -0.42097  -0.41520  -0.41366  -0.41226  -0.41106
 Alpha  occ. eigenvalues --   -0.41017  -0.40662  -0.40536  -0.40336  -0.40263
 Alpha  occ. eigenvalues --   -0.40149  -0.39929  -0.39799  -0.39757  -0.39634
 Alpha  occ. eigenvalues --   -0.39476  -0.39331  -0.39183  -0.39052  -0.38686
 Alpha  occ. eigenvalues --   -0.38573  -0.38220  -0.38155  -0.37956  -0.37691
 Alpha  occ. eigenvalues --   -0.37646  -0.37403  -0.37155  -0.37066  -0.36974
 Alpha  occ. eigenvalues --   -0.36896  -0.36695  -0.36511  -0.36220  -0.36136
 Alpha  occ. eigenvalues --   -0.35895  -0.35720  -0.35314  -0.34902  -0.34777
 Alpha  occ. eigenvalues --   -0.34708  -0.34517  -0.33820  -0.33699  -0.33528
 Alpha  occ. eigenvalues --   -0.33324  -0.33124  -0.32836  -0.32640  -0.32462
 Alpha  occ. eigenvalues --   -0.32223  -0.31792  -0.31733  -0.31707  -0.31411
 Alpha  occ. eigenvalues --   -0.30664  -0.30558  -0.30512  -0.30082  -0.29640
 Alpha  occ. eigenvalues --   -0.29246  -0.28783  -0.28183  -0.26840  -0.26386
 Alpha  occ. eigenvalues --   -0.25701  -0.25520  -0.25230  -0.24806  -0.20993
 Alpha  occ. eigenvalues --   -0.18432
 Alpha virt. eigenvalues --   -0.10740  -0.05147  -0.03452  -0.01673  -0.00793
 Alpha virt. eigenvalues --   -0.00312  -0.00086   0.00654   0.01071   0.03593
 Alpha virt. eigenvalues --    0.04624   0.04695   0.04909   0.05153   0.05728

 Mulliken charges:
               1
     1  Mg   1.001765
     2  C   -0.062732
     3  C   -0.048027
     4  C   -0.068372
     5  C   -0.080779
     6  N   -0.348314
     7  C    0.058675
     8  C   -0.098936
     9  C   -0.105033
    10  C    0.046407
    11  C    0.018535
    12  C   -0.011649
    13  C    0.030400
    14  C    0.210637
    15  O   -0.278097
    16  O   -0.343071
    17  N   -0.541932
    18  C    0.137769
    19  C   -0.140024
    20  C   -0.086743
    21  C    0.223416
    22  C    0.028701
    23  C    0.065069
    24  O   -0.243902
    25  C   -0.023086
    26  N   -0.458102
    27  C    0.054253
    28  C   -0.137757
    29  C   -0.041631
    30  C    0.055250
    31  C    0.033200
    32  C   -0.075566
    33  C   -0.054491
    34  N   -0.482352
    35  C    0.156043
    36  C   -0.192233
    37  C   -0.022077
    38  C    0.200854
    39  C    0.084351
    40  C    0.130914
    41  O   -0.191773
    42  C   -0.162774
    43  C    0.330529
    44  O   -0.261017
    45  O   -0.382294
    46  C    0.131151
    47  C    0.196496
    48  C   -0.113536
    49  C   -0.234541
    50  C    0.035734
    51  C    0.024825
    52  C   -0.083396
    53  C    0.011452
    54  C   -0.209079
    55  C    0.007677
    56  C    0.034256
    57  C   -0.101987
    58  C    0.017558
    59  C   -0.213689
    60  C   -0.002863
    61  C    0.007426
    62  C   -0.080094
    63  C   -0.007164
    64  C   -0.215886
    65  C   -0.045802
    66  C   -0.011895
    67  H   -0.004012
    68  H    0.023008
    69  H    0.001205
    70  H    0.064677
    71  H    0.037444
    72  H    0.064252
    73  H    0.030199
    74  H    0.045608
    75  H    0.045254
    76  H    0.052192
    77  H    0.059379
    78  H    0.077287
    79  H    0.046921
    80  H    0.038931
    81  H    0.061968
    82  H    0.033828
    83  H    0.063524
    84  H    0.077164
    85  H    0.055196
    86  H    0.043742
    87  H    0.046293
    88  H    0.045116
    89  H    0.054511
    90  H    0.036079
    91  H    0.036850
    92  H    0.034726
    93  H    0.057793
    94  H    0.048060
    95  H    0.011643
    96  H    0.069751
    97  H    0.048849
    98  H    0.089468
    99  H    0.044779
   100  H    0.051479
   101  H    0.064759
   102  H    0.058953
   103  H    0.048270
   104  H    0.016792
   105  H    0.046369
   106  H    0.050834
   107  H    0.066998
   108  H    0.031777
   109  H    0.025498
   110  H    0.039604
   111  H    0.027182
   112  H    0.023895
   113  H    0.013522
   114  H    0.039388
   115  H    0.026545
   116  H    0.024776
   117  H    0.032109
   118  H    0.034414
   119  H    0.029247
   120  H    0.029257
   121  H    0.031365
   122  H    0.028408
   123  H    0.013884
   124  H    0.027660
   125  H    0.028972
   126  H    0.045295
   127  H    0.035222
   128  H    0.016556
   129  H    0.015115
   130  H    0.038669
   131  H    0.027433
   132  H    0.027422
   133  H    0.022867
   134  H    0.036067
   135  H    0.028929
   136  H    0.048051
   137  H    0.036592
   138  H    0.034904
   139  H    0.031533
   140  H    0.031057
 Sum of Mulliken charges =  -0.00000

 Dipole moment (field-independent basis, Debye):
    X=              4.8884    Y=              3.8863    Z=             -3.8911  Tot=              7.3581
 Quadrupole moment (field-independent basis, Debye-Ang):
   XX=           -371.3053   YY=           -431.4214   ZZ=           -405.4731
   XY=            -21.2789   XZ=              9.5316   YZ=             11.0210

 Normal termination of Gaussian 16 at Wed May  4 03:46:47 2022.
