 Gaussian 16, Revision A.03,
 Gaussian 16:  ES64L-G16RevA.03 25-Dec-2016

 --------------------------------
 #p wB97XD/Def2SVP td=(nstates=5)
 --------------------------------

 ----------------------------------------------------
 step_1301_chromophore_9 TDDFT with wB97XD functional
 ----------------------------------------------------
 Symbolic Z-matrix:
 Charge =  0 Multiplicity = 1

                         Standard orientation:
 ---------------------------------------------------------------------
 Center     Atomic      Atomic             Coordinates (Angstroms)
 Number     Number       Type             X           Y           Z
 ---------------------------------------------------------------------
      1         12           0       -5.261561    0.792552   -0.149245
      2          6           0       -4.053328   -2.513124    0.253695
      3          6           0       -1.862737    1.810648   -0.313905
      4          6           0       -6.316480    3.914473    0.126745
      5          6           0       -8.426631   -0.388384    0.454846
      6          7           0       -3.109915   -0.264084    0.185512
      7          6           0       -2.970120   -1.640845    0.142234
      8          6           0       -1.448205   -1.933793   -0.244813
      9          6           0       -0.781554   -0.560330   -0.189651
     10          6           0       -1.920529    0.374489   -0.167448
     11          6           0        0.215531   -0.321176    1.039587
     12          6           0       -1.049851   -2.713138   -1.542044
     13          6           0        0.426015   -3.215137   -1.709785
     14          6           0        1.339161   -3.207285   -0.458190
     15          8           0        1.144724   -3.776613    0.613572
     16          8           0        2.446316   -2.442157   -0.649545
     17          7           0       -4.268782    2.584607   -0.305748
     18          6           0       -2.864931    2.828623   -0.330600
     19          6           0       -2.685464    4.259011   -0.584161
     20          6           0       -3.955062    4.843472   -0.433209
     21          6           0       -4.949535    3.771319   -0.119336
     22          6           0       -1.358317    4.904543   -0.786193
     23          6           0       -4.334622    6.352528   -0.561947
     24          8           0       -5.487799    6.753378   -0.523319
     25          6           0       -3.355951    7.381861   -0.936367
     26          7           0       -6.977077    1.613773    0.302333
     27          6           0       -7.249900    2.900483    0.327130
     28          6           0       -8.751329    3.349292    0.430977
     29          6           0       -9.454229    1.961130    0.410223
     30          6           0       -8.215035    0.978669    0.379056
     31          6           0       -9.092926    4.224617    1.621815
     32          6           0      -10.449278    1.694349   -0.780602
     33          6           0      -10.008282    1.349289   -2.207992
     34          7           0       -6.125621   -1.058201    0.205707
     35          6           0       -7.419695   -1.412179    0.525026
     36          6           0       -7.546221   -2.822309    0.642772
     37          6           0       -6.269057   -3.283606    0.521660
     38          6           0       -5.366908   -2.174671    0.325927
     39          6           0       -8.787837   -3.574370    0.782684
     40          6           0       -5.507833   -4.516658    0.319782
     41          8           0       -5.876085   -5.659885    0.251838
     42          6           0       -3.958717   -4.057071    0.117459
     43          6           0       -3.258257   -4.629875    1.305518
     44          8           0       -3.439312   -4.426481    2.509595
     45          8           0       -2.232032   -5.419099    0.782033
     46          6           0       -1.245764   -5.793851    1.821017
     47          6           0        3.438349   -2.673341    0.423453
     48          6           0        4.797674   -2.132701   -0.038185
     49          6           0        5.706009   -2.770962   -0.766839
     50          6           0        5.366868   -4.093982   -1.463322
     51          6           0        7.057722   -2.123767   -0.901970
     52          6           0        7.268757   -1.198907   -2.140066
     53          6           0        8.266804   -1.699012   -3.191936
     54          6           0        9.086957   -0.568302   -3.788632
     55          6           0        9.305367   -0.756631   -5.262923
     56          6           0       10.373509   -0.270801   -2.901970
     57          6           0       10.189826    1.082129   -2.214074
     58          6           0       11.397298    1.581458   -1.400356
     59          6           0       10.992426    2.540709   -0.315483
     60          6           0       10.745537    3.995122   -0.871332
     61          6           0       12.010043    2.533546    0.879709
     62          6           0       11.390166    2.675369    2.285713
     63          6           0       11.610542    1.450520    3.163536
     64          6           0       10.934711    1.658011    4.546870
     65          6           0       12.010237    1.847125    5.725157
     66          6           0        9.912157    0.581614    4.912728
     67          1           0       -0.912877    2.281213   -0.577594
     68          1           0       -6.815862    4.884612    0.167671
     69          1           0       -9.484378   -0.657337    0.476371
     70          1           0       -1.072036   -2.504274    0.604216
     71          1           0       -0.304504   -0.345268   -1.146815
     72          1           0       -0.120311   -0.875521    1.916520
     73          1           0        0.247597    0.756584    1.198879
     74          1           0        1.270554   -0.503776    0.833296
     75          1           0       -1.348200   -2.064139   -2.364709
     76          1           0       -1.723865   -3.565694   -1.454181
     77          1           0        0.749912   -2.472137   -2.439131
     78          1           0        0.415704   -4.227789   -2.112027
     79          1           0       -1.302278    5.820425   -1.374191
     80          1           0       -0.676744    4.168618   -1.212957
     81          1           0       -0.847383    5.166188    0.140899
     82          1           0       -2.372996    7.258638   -0.480674
     83          1           0       -3.730939    8.331490   -0.556863
     84          1           0       -3.122499    7.295932   -1.997540
     85          1           0       -8.939155    3.866837   -0.509480
     86          1           0       -9.986775    1.827188    1.352265
     87          1           0       -8.159255    4.407873    2.153873
     88          1           0       -9.736877    3.738498    2.355526
     89          1           0       -9.433863    5.189325    1.246721
     90          1           0      -11.057835    2.588151   -0.911664
     91          1           0      -11.164651    0.922096   -0.495367
     92          1           0      -10.452969    2.224553   -2.682211
     93          1           0      -10.392333    0.410871   -2.607058
     94          1           0       -8.937368    1.468817   -2.369259
     95          1           0       -9.575574   -2.847575    0.585500
     96          1           0       -8.949754   -4.137294    1.701600
     97          1           0       -8.989929   -4.262466   -0.038887
     98          1           0       -3.636190   -4.480784   -0.833632
     99          1           0       -0.424569   -6.320056    1.333483
    100          1           0       -1.696033   -6.493040    2.525574
    101          1           0       -0.781169   -4.979968    2.378189
    102          1           0        3.503475   -3.716238    0.732126
    103          1           0        3.175198   -2.177686    1.358263
    104          1           0        5.094959   -1.222025    0.482277
    105          1           0        5.870772   -4.048464   -2.428209
    106          1           0        4.289856   -4.109985   -1.633877
    107          1           0        5.692608   -4.909941   -0.817428
    108          1           0        7.853411   -2.865111   -0.830735
    109          1           0        7.185556   -1.445165   -0.058845
    110          1           0        7.227270   -0.133715   -1.913231
    111          1           0        6.282339   -1.313973   -2.591000
    112          1           0        7.787327   -2.363467   -3.910494
    113          1           0        8.869677   -2.370503   -2.580930
    114          1           0        8.340713    0.224738   -3.747471
    115          1           0       10.356406   -0.975768   -5.456440
    116          1           0        9.162833    0.189479   -5.784186
    117          1           0        8.648702   -1.476043   -5.751470
    118          1           0       11.326431   -0.229758   -3.429253
    119          1           0       10.372150   -1.023114   -2.113247
    120          1           0        9.309722    0.997596   -1.576485
    121          1           0       10.014366    1.793699   -3.021266
    122          1           0       12.164815    2.045591   -2.020256
    123          1           0       11.822742    0.663606   -0.996487
    124          1           0       10.060568    2.184596    0.124530
    125          1           0        9.691750    4.121577   -0.624368
    126          1           0       10.877320    4.160567   -1.940450
    127          1           0       11.265722    4.753579   -0.285407
    128          1           0       12.738431    3.335998    0.760765
    129          1           0       12.640147    1.644087    0.862545
    130          1           0       10.329582    2.923977    2.284368
    131          1           0       12.052559    3.459906    2.649345
    132          1           0       12.670228    1.251173    3.318961
    133          1           0       11.160476    0.657195    2.566049
    134          1           0       10.436202    2.626066    4.495839
    135          1           0       12.857498    2.453522    5.405827
    136          1           0       12.430378    0.952133    6.185083
    137          1           0       11.470802    2.499221    6.412390
    138          1           0       10.416731   -0.203897    5.476176
    139          1           0        9.389608    0.129076    4.069249
    140          1           0        9.125575    0.981087    5.552404
 ---------------------------------------------------------------------

 SCF Done:  E(RwB97XD) =  -3007.85546313     A.U. after   17 cycles

 Excitation energies and oscillator strengths:

 Excited State   1:      Singlet-A      1.6782 eV  738.80 nm  f=0.3737  <S**2>=0.000
     245 -> 248       -0.18496
     246 -> 247        0.68352
     245 <- 248       -0.11463
 This state for optimization and/or second-order correction.
 Total Energy, E(TD-HF/TD-DFT) =  -3007.79379096
 Copying the excited state density for this state as the 1-particle RhoCI density.

 Excited State   2:      Singlet-A      2.2421 eV  552.97 nm  f=0.0701  <S**2>=0.000
     245 -> 247        0.61967
     246 -> 248        0.32449

 Excited State   3:      Singlet-A      3.3844 eV  366.34 nm  f=0.1987  <S**2>=0.000
     242 -> 247        0.49456
     243 -> 247        0.14423
     244 -> 247       -0.15068
     245 -> 247        0.14651
     246 -> 248       -0.40730

 Excited State   4:      Singlet-A      3.5382 eV  350.41 nm  f=0.2121  <S**2>=0.000
     242 -> 247       -0.11879
     244 -> 247        0.54946
     244 -> 249       -0.12753
     245 -> 247        0.16952
     246 -> 248       -0.31792

 Excited State   5:      Singlet-A      3.6254 eV  341.99 nm  f=0.2096  <S**2>=0.000
     242 -> 247        0.15147
     243 -> 247        0.47424
     243 -> 249       -0.18200
     243 -> 250       -0.18956
     244 -> 247        0.15863
     244 -> 249       -0.10666
     244 -> 250       -0.13401
     245 -> 247       -0.16562
     246 -> 248        0.25915

 The electronic state is 1-A.
 Alpha  occ. eigenvalues --  -46.94211 -19.31561 -19.29166 -19.25796 -19.24194
 Alpha  occ. eigenvalues --  -19.24028 -19.23539 -14.46778 -14.46320 -14.44206
 Alpha  occ. eigenvalues --  -14.43528 -10.44347 -10.42400 -10.39206 -10.38248
 Alpha  occ. eigenvalues --  -10.36284 -10.35610 -10.35186 -10.34967 -10.34827
 Alpha  occ. eigenvalues --  -10.34681 -10.34284 -10.33490 -10.33453 -10.32863
 Alpha  occ. eigenvalues --  -10.32856 -10.32234 -10.32046 -10.31972 -10.31872
 Alpha  occ. eigenvalues --  -10.31852 -10.31843 -10.31791 -10.31758 -10.31723
 Alpha  occ. eigenvalues --  -10.31545 -10.31539 -10.31433 -10.30494 -10.30277
 Alpha  occ. eigenvalues --  -10.30244 -10.30123 -10.30034 -10.30032 -10.30007
 Alpha  occ. eigenvalues --  -10.29866 -10.29693 -10.29615 -10.29575 -10.29567
 Alpha  occ. eigenvalues --  -10.29400 -10.29333 -10.29259 -10.29063 -10.28870
 Alpha  occ. eigenvalues --  -10.28760 -10.28716 -10.28683 -10.28572 -10.28513
 Alpha  occ. eigenvalues --  -10.28387 -10.28365 -10.28329 -10.28301 -10.28186
 Alpha  occ. eigenvalues --  -10.27988  -3.20453  -1.94004  -1.93646  -1.93394
 Alpha  occ. eigenvalues --   -1.19969  -1.16375  -1.12734  -1.12321  -1.10391
 Alpha  occ. eigenvalues --   -1.08268  -1.06447  -1.05151  -1.04195  -1.03359
 Alpha  occ. eigenvalues --   -0.93816  -0.93149  -0.91988  -0.91264  -0.90927
 Alpha  occ. eigenvalues --   -0.90822  -0.90461  -0.89444  -0.88966  -0.88929
 Alpha  occ. eigenvalues --   -0.88173  -0.87162  -0.86319  -0.85520  -0.85106
 Alpha  occ. eigenvalues --   -0.84425  -0.84163  -0.83121  -0.82551  -0.82103
 Alpha  occ. eigenvalues --   -0.81898  -0.80302  -0.79785  -0.78898  -0.78709
 Alpha  occ. eigenvalues --   -0.77452  -0.77187  -0.77018  -0.76703  -0.76259
 Alpha  occ. eigenvalues --   -0.75347  -0.74618  -0.73867  -0.72536  -0.71382
 Alpha  occ. eigenvalues --   -0.70321  -0.69876  -0.68726  -0.68402  -0.67373
 Alpha  occ. eigenvalues --   -0.66633  -0.66391  -0.66376  -0.66121  -0.65871
 Alpha  occ. eigenvalues --   -0.65445  -0.65339  -0.64808  -0.63108  -0.62314
 Alpha  occ. eigenvalues --   -0.61988  -0.60911  -0.60850  -0.60070  -0.59621
 Alpha  occ. eigenvalues --   -0.59316  -0.58998  -0.58655  -0.58066  -0.57557
 Alpha  occ. eigenvalues --   -0.57130  -0.57049  -0.56651  -0.56359  -0.56113
 Alpha  occ. eigenvalues --   -0.55717  -0.55502  -0.55393  -0.54945  -0.54744
 Alpha  occ. eigenvalues --   -0.54682  -0.54316  -0.54288  -0.54149  -0.53863
 Alpha  occ. eigenvalues --   -0.53560  -0.53444  -0.53259  -0.52640  -0.52396
 Alpha  occ. eigenvalues --   -0.52258  -0.52189  -0.51871  -0.51660  -0.51557
 Alpha  occ. eigenvalues --   -0.51334  -0.51254  -0.51182  -0.50826  -0.50607
 Alpha  occ. eigenvalues --   -0.50526  -0.50445  -0.50039  -0.49879  -0.49523
 Alpha  occ. eigenvalues --   -0.49292  -0.48822  -0.48622  -0.48491  -0.48293
 Alpha  occ. eigenvalues --   -0.48213  -0.47847  -0.47776  -0.47549  -0.47414
 Alpha  occ. eigenvalues --   -0.47348  -0.47143  -0.46968  -0.46862  -0.46737
 Alpha  occ. eigenvalues --   -0.46681  -0.46501  -0.46337  -0.46109  -0.45745
 Alpha  occ. eigenvalues --   -0.45658  -0.45358  -0.45304  -0.45233  -0.44837
 Alpha  occ. eigenvalues --   -0.44761  -0.44477  -0.44302  -0.44106  -0.44052
 Alpha  occ. eigenvalues --   -0.44011  -0.43849  -0.43760  -0.43436  -0.43263
 Alpha  occ. eigenvalues --   -0.43005  -0.42737  -0.42319  -0.41934  -0.41782
 Alpha  occ. eigenvalues --   -0.41695  -0.41553  -0.40735  -0.40648  -0.40532
 Alpha  occ. eigenvalues --   -0.40400  -0.40133  -0.39875  -0.39719  -0.39466
 Alpha  occ. eigenvalues --   -0.39103  -0.38839  -0.38789  -0.38738  -0.38250
 Alpha  occ. eigenvalues --   -0.37724  -0.37602  -0.37471  -0.37144  -0.36444
 Alpha  occ. eigenvalues --   -0.36111  -0.35772  -0.34936  -0.33461  -0.33119
 Alpha  occ. eigenvalues --   -0.33072  -0.32193  -0.31812  -0.31479  -0.26102
 Alpha  occ. eigenvalues --   -0.22606
 Alpha virt. eigenvalues --   -0.06492   0.00233   0.02805   0.04934   0.05512
 Alpha virt. eigenvalues --    0.06140   0.06624   0.07433   0.07940   0.10202
 Alpha virt. eigenvalues --    0.10964   0.11417   0.11746   0.11956   0.12422

 Mulliken charges:
               1
     1  Mg   0.989404
     2  C   -0.056492
     3  C   -0.059554
     4  C   -0.095737
     5  C   -0.097409
     6  N   -0.314320
     7  C    0.009055
     8  C   -0.062811
     9  C   -0.082639
    10  C    0.034430
    11  C    0.034963
    12  C    0.006512
    13  C    0.045470
    14  C    0.194938
    15  O   -0.273610
    16  O   -0.340572
    17  N   -0.518478
    18  C    0.135189
    19  C   -0.126599
    20  C   -0.079805
    21  C    0.223329
    22  C    0.038008
    23  C    0.062317
    24  O   -0.236604
    25  C   -0.013317
    26  N   -0.425063
    27  C    0.051246
    28  C   -0.116994
    29  C   -0.018800
    30  C    0.047586
    31  C    0.042231
    32  C   -0.060290
    33  C   -0.038570
    34  N   -0.445379
    35  C    0.145861
    36  C   -0.189279
    37  C   -0.017022
    38  C    0.183149
    39  C    0.095509
    40  C    0.111679
    41  O   -0.184513
    42  C   -0.122703
    43  C    0.305122
    44  O   -0.256015
    45  O   -0.381137
    46  C    0.144220
    47  C    0.212251
    48  C   -0.123948
    49  C   -0.220111
    50  C    0.053526
    51  C    0.041552
    52  C   -0.069651
    53  C    0.029661
    54  C   -0.175378
    55  C    0.018723
    56  C    0.045858
    57  C   -0.075831
    58  C    0.032147
    59  C   -0.180755
    60  C    0.004937
    61  C    0.020108
    62  C   -0.059385
    63  C    0.005677
    64  C   -0.187172
    65  C   -0.032703
    66  C    0.000173
    67  H   -0.011581
    68  H    0.017738
    69  H   -0.007600
    70  H    0.043355
    71  H    0.025830
    72  H    0.060649
    73  H    0.022314
    74  H    0.036020
    75  H    0.036701
    76  H    0.037186
    77  H    0.053678
    78  H    0.073641
    79  H    0.043236
    80  H    0.034996
    81  H    0.059463
    82  H    0.027932
    83  H    0.063454
    84  H    0.073566
    85  H    0.045191
    86  H    0.033880
    87  H    0.038958
    88  H    0.041070
    89  H    0.050151
    90  H    0.026726
    91  H    0.029685
    92  H    0.028398
    93  H    0.053942
    94  H    0.038392
    95  H    0.002892
    96  H    0.064866
    97  H    0.042929
    98  H    0.085679
    99  H    0.042387
   100  H    0.047702
   101  H    0.061212
   102  H    0.052837
   103  H    0.043814
   104  H    0.013298
   105  H    0.039533
   106  H    0.042495
   107  H    0.062269
   108  H    0.023898
   109  H    0.018037
   110  H    0.032732
   111  H    0.015156
   112  H    0.016705
   113  H   -0.000285
   114  H    0.023678
   115  H    0.019760
   116  H    0.018878
   117  H    0.026898
   118  H    0.027348
   119  H    0.018560
   120  H    0.013110
   121  H    0.020439
   122  H    0.020585
   123  H    0.003348
   124  H    0.012201
   125  H    0.022858
   126  H    0.040545
   127  H    0.029494
   128  H    0.008325
   129  H    0.005589
   130  H    0.029472
   131  H    0.017731
   132  H    0.019548
   133  H    0.011897
   134  H    0.023977
   135  H    0.022211
   136  H    0.042741
   137  H    0.030121
   138  H    0.027941
   139  H    0.025893
   140  H    0.025547
 Sum of Mulliken charges =  -0.00000

 Dipole moment (field-independent basis, Debye):
    X=              5.3465    Y=              4.5539    Z=             -4.0157  Tot=              8.0900
 Quadrupole moment (field-independent basis, Debye-Ang):
   XX=           -376.3045   YY=           -428.5893   ZZ=           -404.9865
   XY=            -24.0408   XZ=             10.0941   YZ=             10.8663

 Normal termination of Gaussian 16 at Wed May  4 04:16:37 2022.
