 Gaussian 16, Revision A.03,
 Gaussian 16:  ES64L-G16RevA.03 25-Dec-2016

 --------------------
 #p ZINDO=(nstates=5)
 --------------------

 -----------------------------
 step_1301_chromophore_9 ZINDO
 -----------------------------
 Symbolic Z-matrix:
 Charge =  0 Multiplicity = 1

                         Standard orientation:
 ---------------------------------------------------------------------
 Center     Atomic      Atomic             Coordinates (Angstroms)
 Number     Number       Type             X           Y           Z
 ---------------------------------------------------------------------
      1         12           0       -5.261561    0.792552   -0.149245
      2          6           0       -4.053328   -2.513124    0.253695
      3          6           0       -1.862737    1.810648   -0.313905
      4          6           0       -6.316480    3.914473    0.126745
      5          6           0       -8.426631   -0.388384    0.454846
      6          7           0       -3.109915   -0.264084    0.185512
      7          6           0       -2.970120   -1.640845    0.142234
      8          6           0       -1.448205   -1.933793   -0.244813
      9          6           0       -0.781554   -0.560330   -0.189651
     10          6           0       -1.920529    0.374489   -0.167448
     11          6           0        0.215531   -0.321176    1.039587
     12          6           0       -1.049851   -2.713138   -1.542044
     13          6           0        0.426015   -3.215137   -1.709785
     14          6           0        1.339161   -3.207285   -0.458190
     15          8           0        1.144724   -3.776613    0.613572
     16          8           0        2.446316   -2.442157   -0.649545
     17          7           0       -4.268782    2.584607   -0.305748
     18          6           0       -2.864931    2.828623   -0.330600
     19          6           0       -2.685464    4.259011   -0.584161
     20          6           0       -3.955062    4.843472   -0.433209
     21          6           0       -4.949535    3.771319   -0.119336
     22          6           0       -1.358317    4.904543   -0.786193
     23          6           0       -4.334622    6.352528   -0.561947
     24          8           0       -5.487799    6.753378   -0.523319
     25          6           0       -3.355951    7.381861   -0.936367
     26          7           0       -6.977077    1.613773    0.302333
     27          6           0       -7.249900    2.900483    0.327130
     28          6           0       -8.751329    3.349292    0.430977
     29          6           0       -9.454229    1.961130    0.410223
     30          6           0       -8.215035    0.978669    0.379056
     31          6           0       -9.092926    4.224617    1.621815
     32          6           0      -10.449278    1.694349   -0.780602
     33          6           0      -10.008282    1.349289   -2.207992
     34          7           0       -6.125621   -1.058201    0.205707
     35          6           0       -7.419695   -1.412179    0.525026
     36          6           0       -7.546221   -2.822309    0.642772
     37          6           0       -6.269057   -3.283606    0.521660
     38          6           0       -5.366908   -2.174671    0.325927
     39          6           0       -8.787837   -3.574370    0.782684
     40          6           0       -5.507833   -4.516658    0.319782
     41          8           0       -5.876085   -5.659885    0.251838
     42          6           0       -3.958717   -4.057071    0.117459
     43          6           0       -3.258257   -4.629875    1.305518
     44          8           0       -3.439312   -4.426481    2.509595
     45          8           0       -2.232032   -5.419099    0.782033
     46          6           0       -1.245764   -5.793851    1.821017
     47          6           0        3.438349   -2.673341    0.423453
     48          6           0        4.797674   -2.132701   -0.038185
     49          6           0        5.706009   -2.770962   -0.766839
     50          6           0        5.366868   -4.093982   -1.463322
     51          6           0        7.057722   -2.123767   -0.901970
     52          6           0        7.268757   -1.198907   -2.140066
     53          6           0        8.266804   -1.699012   -3.191936
     54          6           0        9.086957   -0.568302   -3.788632
     55          6           0        9.305367   -0.756631   -5.262923
     56          6           0       10.373509   -0.270801   -2.901970
     57          6           0       10.189826    1.082129   -2.214074
     58          6           0       11.397298    1.581458   -1.400356
     59          6           0       10.992426    2.540709   -0.315483
     60          6           0       10.745537    3.995122   -0.871332
     61          6           0       12.010043    2.533546    0.879709
     62          6           0       11.390166    2.675369    2.285713
     63          6           0       11.610542    1.450520    3.163536
     64          6           0       10.934711    1.658011    4.546870
     65          6           0       12.010237    1.847125    5.725157
     66          6           0        9.912157    0.581614    4.912728
     67          1           0       -0.912877    2.281213   -0.577594
     68          1           0       -6.815862    4.884612    0.167671
     69          1           0       -9.484378   -0.657337    0.476371
     70          1           0       -1.072036   -2.504274    0.604216
     71          1           0       -0.304504   -0.345268   -1.146815
     72          1           0       -0.120311   -0.875521    1.916520
     73          1           0        0.247597    0.756584    1.198879
     74          1           0        1.270554   -0.503776    0.833296
     75          1           0       -1.348200   -2.064139   -2.364709
     76          1           0       -1.723865   -3.565694   -1.454181
     77          1           0        0.749912   -2.472137   -2.439131
     78          1           0        0.415704   -4.227789   -2.112027
     79          1           0       -1.302278    5.820425   -1.374191
     80          1           0       -0.676744    4.168618   -1.212957
     81          1           0       -0.847383    5.166188    0.140899
     82          1           0       -2.372996    7.258638   -0.480674
     83          1           0       -3.730939    8.331490   -0.556863
     84          1           0       -3.122499    7.295932   -1.997540
     85          1           0       -8.939155    3.866837   -0.509480
     86          1           0       -9.986775    1.827188    1.352265
     87          1           0       -8.159255    4.407873    2.153873
     88          1           0       -9.736877    3.738498    2.355526
     89          1           0       -9.433863    5.189325    1.246721
     90          1           0      -11.057835    2.588151   -0.911664
     91          1           0      -11.164651    0.922096   -0.495367
     92          1           0      -10.452969    2.224553   -2.682211
     93          1           0      -10.392333    0.410871   -2.607058
     94          1           0       -8.937368    1.468817   -2.369259
     95          1           0       -9.575574   -2.847575    0.585500
     96          1           0       -8.949754   -4.137294    1.701600
     97          1           0       -8.989929   -4.262466   -0.038887
     98          1           0       -3.636190   -4.480784   -0.833632
     99          1           0       -0.424569   -6.320056    1.333483
    100          1           0       -1.696033   -6.493040    2.525574
    101          1           0       -0.781169   -4.979968    2.378189
    102          1           0        3.503475   -3.716238    0.732126
    103          1           0        3.175198   -2.177686    1.358263
    104          1           0        5.094959   -1.222025    0.482277
    105          1           0        5.870772   -4.048464   -2.428209
    106          1           0        4.289856   -4.109985   -1.633877
    107          1           0        5.692608   -4.909941   -0.817428
    108          1           0        7.853411   -2.865111   -0.830735
    109          1           0        7.185556   -1.445165   -0.058845
    110          1           0        7.227270   -0.133715   -1.913231
    111          1           0        6.282339   -1.313973   -2.591000
    112          1           0        7.787327   -2.363467   -3.910494
    113          1           0        8.869677   -2.370503   -2.580930
    114          1           0        8.340713    0.224738   -3.747471
    115          1           0       10.356406   -0.975768   -5.456440
    116          1           0        9.162833    0.189479   -5.784186
    117          1           0        8.648702   -1.476043   -5.751470
    118          1           0       11.326431   -0.229758   -3.429253
    119          1           0       10.372150   -1.023114   -2.113247
    120          1           0        9.309722    0.997596   -1.576485
    121          1           0       10.014366    1.793699   -3.021266
    122          1           0       12.164815    2.045591   -2.020256
    123          1           0       11.822742    0.663606   -0.996487
    124          1           0       10.060568    2.184596    0.124530
    125          1           0        9.691750    4.121577   -0.624368
    126          1           0       10.877320    4.160567   -1.940450
    127          1           0       11.265722    4.753579   -0.285407
    128          1           0       12.738431    3.335998    0.760765
    129          1           0       12.640147    1.644087    0.862545
    130          1           0       10.329582    2.923977    2.284368
    131          1           0       12.052559    3.459906    2.649345
    132          1           0       12.670228    1.251173    3.318961
    133          1           0       11.160476    0.657195    2.566049
    134          1           0       10.436202    2.626066    4.495839
    135          1           0       12.857498    2.453522    5.405827
    136          1           0       12.430378    0.952133    6.185083
    137          1           0       11.470802    2.499221    6.412390
    138          1           0       10.416731   -0.203897    5.476176
    139          1           0        9.389608    0.129076    4.069249
    140          1           0        9.125575    0.981087    5.552404
 ---------------------------------------------------------------------

 SCF Done:  E(RZINDO/S) =  -474.244094506     A.U. after   19 cycles

 Excitation energies and oscillator strengths:

 Excited State   1:      Singlet-A      1.2853 eV  964.62 nm  f=0.5454  <S**2>=0.000
     175 ->178         0.17557
     176 ->177         0.66877
 This state for optimization and/or second-order correction.
 Total Energy, E(CIS/TDA) =  -474.196860007
 Copying the excited state density for this state as the 1-particle RhoCI density.

 Excited State   2:      Singlet-A      1.9354 eV  640.63 nm  f=0.0094  <S**2>=0.000
     175 ->177         0.51129
     176 ->178        -0.46141

 Excited State   3:      Singlet-A      2.9093 eV  426.17 nm  f=0.1220  <S**2>=0.000
     168 ->177         0.29199
     168 ->179        -0.43114
     168 ->181         0.20107
     168 ->184         0.11680
     168 ->186        -0.21260
     175 ->177         0.14655
     176 ->178         0.18160

 Excited State   4:      Singlet-A      2.9473 eV  420.66 nm  f=0.8133  <S**2>=0.000
     168 ->177        -0.12600
     168 ->179         0.18876
     170 ->177        -0.11170
     175 ->177         0.36361
     176 ->178         0.43123
     176 ->179        -0.15009
     176 ->181        -0.16691

 Excited State   5:      Singlet-A      3.0735 eV  403.39 nm  f=0.0689  <S**2>=0.000
     170 ->177         0.10356
     170 ->179         0.13520
     170 ->181         0.20260
     170 ->186         0.10136
     171 ->177         0.25722
     171 ->178        -0.11036
     171 ->179         0.15138
     171 ->181         0.25930
     171 ->186         0.13241
     171 ->187         0.10072
     176 ->179         0.27043
     176 ->181         0.14598

 The electronic state is 1-A.
 Alpha  occ. eigenvalues --   -1.83809  -1.81018  -1.78087  -1.74635  -1.70016
 Alpha  occ. eigenvalues --   -1.69708  -1.66414  -1.61864  -1.60563  -1.57154
 Alpha  occ. eigenvalues --   -1.55565  -1.52072  -1.48206  -1.47226  -1.46759
 Alpha  occ. eigenvalues --   -1.42758  -1.42174  -1.41145  -1.39666  -1.39553
 Alpha  occ. eigenvalues --   -1.34824  -1.33577  -1.33424  -1.30990  -1.29523
 Alpha  occ. eigenvalues --   -1.29076  -1.24647  -1.22020  -1.20173  -1.17675
 Alpha  occ. eigenvalues --   -1.17208  -1.16525  -1.15138  -1.14129  -1.13562
 Alpha  occ. eigenvalues --   -1.12943  -1.11678  -1.10439  -1.04859  -1.02914
 Alpha  occ. eigenvalues --   -1.02180  -1.01557  -0.99252  -0.98047  -0.97258
 Alpha  occ. eigenvalues --   -0.95383  -0.94851  -0.93523  -0.92792  -0.92178
 Alpha  occ. eigenvalues --   -0.90445  -0.90060  -0.88327  -0.87806  -0.86156
 Alpha  occ. eigenvalues --   -0.85184  -0.84278  -0.82699  -0.81300  -0.80259
 Alpha  occ. eigenvalues --   -0.79523  -0.78379  -0.77640  -0.77188  -0.76272
 Alpha  occ. eigenvalues --   -0.75804  -0.75384  -0.74437  -0.74180  -0.73948
 Alpha  occ. eigenvalues --   -0.73220  -0.72900  -0.72671  -0.71854  -0.71652
 Alpha  occ. eigenvalues --   -0.70752  -0.70030  -0.69926  -0.69147  -0.68302
 Alpha  occ. eigenvalues --   -0.67265  -0.66101  -0.65861  -0.65744  -0.65061
 Alpha  occ. eigenvalues --   -0.64818  -0.64612  -0.64316  -0.64006  -0.63132
 Alpha  occ. eigenvalues --   -0.62742  -0.62420  -0.62235  -0.62137  -0.61728
 Alpha  occ. eigenvalues --   -0.61355  -0.60977  -0.60805  -0.60562  -0.59926
 Alpha  occ. eigenvalues --   -0.59772  -0.59330  -0.58967  -0.58608  -0.58213
 Alpha  occ. eigenvalues --   -0.58087  -0.57902  -0.56732  -0.56554  -0.56033
 Alpha  occ. eigenvalues --   -0.55959  -0.55648  -0.55264  -0.54732  -0.54232
 Alpha  occ. eigenvalues --   -0.54032  -0.53696  -0.53537  -0.53386  -0.52919
 Alpha  occ. eigenvalues --   -0.52449  -0.52276  -0.51955  -0.51429  -0.51321
 Alpha  occ. eigenvalues --   -0.50929  -0.50708  -0.50445  -0.50120  -0.49884
 Alpha  occ. eigenvalues --   -0.49790  -0.49726  -0.49323  -0.49186  -0.49162
 Alpha  occ. eigenvalues --   -0.48696  -0.48285  -0.48030  -0.47892  -0.47458
 Alpha  occ. eigenvalues --   -0.47119  -0.46896  -0.46518  -0.46334  -0.46280
 Alpha  occ. eigenvalues --   -0.46174  -0.46095  -0.45945  -0.45283  -0.45091
 Alpha  occ. eigenvalues --   -0.45041  -0.44681  -0.44511  -0.44406  -0.44203
 Alpha  occ. eigenvalues --   -0.43694  -0.42844  -0.42715  -0.42349  -0.42229
 Alpha  occ. eigenvalues --   -0.42008  -0.41460  -0.40958  -0.39345  -0.38557
 Alpha  occ. eigenvalues --   -0.37829  -0.37367  -0.35736  -0.34263  -0.33639
 Alpha  occ. eigenvalues --   -0.33452  -0.33213  -0.32381  -0.31649  -0.26783
 Alpha  occ. eigenvalues --   -0.21416
 Alpha virt. eigenvalues --   -0.07917  -0.02073  -0.00170   0.01288   0.01679
 Alpha virt. eigenvalues --    0.02467   0.02736   0.03764   0.04663   0.04948
 Alpha virt. eigenvalues --    0.06375   0.06577   0.07597   0.07893   0.07997

 Mulliken charges:
               1
     1  Mg   0.430016
     2  C   -0.002151
     3  C   -0.084129
     4  C   -0.087221
     5  C   -0.066893
     6  N   -0.295633
     7  C    0.082346
     8  C   -0.002284
     9  C    0.014449
    10  C    0.165448
    11  C   -0.050386
    12  C   -0.023100
    13  C    0.006815
    14  C    0.471182
    15  O   -0.521268
    16  O   -0.260532
    17  N   -0.348731
    18  C    0.117897
    19  C    0.037003
    20  C   -0.039339
    21  C    0.162286
    22  C   -0.041541
    23  C    0.326591
    24  O   -0.516594
    25  C   -0.026905
    26  N   -0.253927
    27  C    0.183098
    28  C    0.003334
    29  C   -0.001922
    30  C    0.078004
    31  C   -0.047364
    32  C   -0.028952
    33  C   -0.058416
    34  N   -0.314004
    35  C    0.071414
    36  C    0.029711
    37  C   -0.056075
    38  C    0.095044
    39  C   -0.038958
    40  C    0.322465
    41  O   -0.515854
    42  C    0.044043
    43  C    0.489677
    44  O   -0.518698
    45  O   -0.276077
    46  C    0.073798
    47  C    0.101062
    48  C   -0.105476
    49  C    0.010600
    50  C   -0.042575
    51  C   -0.018807
    52  C   -0.045073
    53  C   -0.030074
    54  C   -0.010038
    55  C   -0.054746
    56  C   -0.034043
    57  C   -0.039067
    58  C   -0.030043
    59  C   -0.008719
    60  C   -0.062387
    61  C   -0.044519
    62  C   -0.039794
    63  C   -0.032334
    64  C   -0.013471
    65  C   -0.065070
    66  C   -0.052538
    67  H    0.021743
    68  H    0.045384
    69  H    0.025322
    70  H    0.036562
    71  H    0.023899
    72  H    0.041653
    73  H    0.014939
    74  H    0.026899
    75  H    0.026213
    76  H    0.023647
    77  H    0.033939
    78  H    0.052560
    79  H    0.031879
    80  H    0.020979
    81  H    0.032966
    82  H    0.016751
    83  H    0.044796
    84  H    0.049522
    85  H    0.035476
    86  H    0.031150
    87  H    0.019184
    88  H    0.029700
    89  H    0.028059
    90  H    0.009623
    91  H    0.014635
    92  H    0.015292
    93  H    0.032767
    94  H    0.024209
    95  H    0.009952
    96  H    0.041011
    97  H    0.028454
    98  H    0.064081
    99  H    0.023896
   100  H    0.042559
   101  H    0.050677
   102  H    0.050332
   103  H    0.039626
   104  H    0.021440
   105  H    0.025216
   106  H    0.028769
   107  H    0.039411
   108  H    0.022991
   109  H    0.014333
   110  H    0.034319
   111  H    0.004099
   112  H    0.022043
   113  H    0.011686
   114  H    0.019478
   115  H    0.014735
   116  H    0.008971
   117  H    0.023203
   118  H    0.028510
   119  H    0.021831
   120  H    0.021731
   121  H    0.014159
   122  H    0.020691
   123  H    0.011179
   124  H    0.018607
   125  H    0.010507
   126  H    0.028863
   127  H    0.022193
   128  H    0.011730
   129  H    0.014046
   130  H    0.030570
   131  H    0.016563
   132  H    0.022978
   133  H    0.017603
   134  H    0.018714
   135  H    0.012633
   136  H    0.030510
   137  H    0.015335
   138  H    0.018324
   139  H    0.017292
   140  H    0.013847
 Sum of Mulliken charges =   0.00000

 Dipole moment (field-independent basis, Debye):
    X=              8.0911    Y=              7.7972    Z=             -6.3126  Tot=             12.8884
 N-N= 4.340530863724D+03 E-N= 0.000000000000D+00  KE=-9.355602066166D+03
 Leave Link  601 at Wed May  4 04:28:54 2022, MaxMem=  6710886400 cpu:               0.8 elap:               0.0
 (Enter /sw/apps/gaussian-16.0/g16/l9999.exe)
 1\1\GINC-BP1-COMPUTE058\SP\RZINDO CIS\STO-3G\C55H74Mg1N4O6\OF15641\04-
 May-2022\0\\#p ZINDO=(nstates=5)\\step_1301_chromophore_9 ZINDO\\0,1\M
 g,0,36.012,0.766,29.562\C,0,33.767,1.579,32.179\C,0,38.573,0.746,32.02
 3\C,0,38.208,0.656,27.092\C,0,33.448,1.255,27.334\N,0,36.181,1.357,31.
 903\C,0,35.055,1.46,32.702\C,0,35.537,1.214,34.205\C,0,37.061,1.181,34
 .104\C,0,37.307,1.029,32.659\C,0,37.825,2.449,34.713\C,0,34.994,0.032,
 35.075\C,0,35.283,0.021,36.616\C,0,35.806,1.328,37.263\O,0,35.27,2.434

 Normal termination of Gaussian 16 at Wed May  4 04:28:54 2022.
