 Gaussian 16, Revision A.03,
 Gaussian 16:  ES64L-G16RevA.03 25-Dec-2016

 ------------------------------
 #p blyp/Def2SVP td=(nstates=5)
 ------------------------------

 --------------------------------------------------
 step_1451_chromophore_7 TDDFT with blyp functional
 --------------------------------------------------
 Symbolic Z-matrix:
 Charge =  0 Multiplicity = 1

                         Standard orientation:
 ---------------------------------------------------------------------
 Center     Atomic      Atomic             Coordinates (Angstroms)
 Number     Number       Type             X           Y           Z
 ---------------------------------------------------------------------
      1         12           0        5.945496    0.686400    0.210557
      2          6           0        3.511401   -1.954753    0.612421
      3          6           0        3.541449    2.551186   -1.172497
      4          6           0        8.355364    3.034762   -0.138097
      5          6           0        8.440705   -1.688810    1.183396
      6          7           0        3.678007    0.318330   -0.103698
      7          6           0        2.914976   -0.760609    0.132609
      8          6           0        1.472792   -0.510561   -0.365457
      9          6           0        1.570566    0.807905   -1.085864
     10          6           0        3.070455    1.260971   -0.884046
     11          6           0        1.098025    0.737847   -2.590573
     12          6           0        0.461007   -0.435192    0.788055
     13          6           0       -0.993568   -0.520692    0.393795
     14          6           0       -1.761779   -1.878888    0.410660
     15          8           0       -1.794707   -2.707513    1.354413
     16          8           0       -2.476630   -2.141850   -0.720570
     17          7           0        5.951007    2.583473   -0.441090
     18          6           0        4.815823    3.206481   -0.878187
     19          6           0        5.194662    4.578452   -1.149989
     20          6           0        6.618183    4.686355   -1.005924
     21          6           0        7.056799    3.379101   -0.523273
     22          6           0        4.242440    5.653151   -1.657153
     23          6           0        7.553948    5.853169   -1.280007
     24          8           0        8.790400    5.739562   -1.300874
     25          6           0        6.990750    7.130088   -1.718512
     26          7           0        8.122410    0.623543    0.171323
     27          6           0        8.856779    1.786061    0.181616
     28          6           0       10.340366    1.603323    0.685846
     29          6           0       10.247229    0.120792    1.143980
     30          6           0        8.865040   -0.401380    0.737798
     31          6           0       11.457560    1.965093   -0.392269
     32          6           0       10.689926   -0.107803    2.545043
     33          6           0       11.459614   -1.442470    2.861460
     34          7           0        6.034662   -1.354529    0.716194
     35          6           0        7.138569   -2.182779    1.108995
     36          6           0        6.620377   -3.558857    1.293551
     37          6           0        5.280156   -3.512177    1.048910
     38          6           0        4.939730   -2.159547    0.803159
     39          6           0        7.390919   -4.803175    1.502939
     40          6           0        4.135805   -4.299822    0.928181
     41          8           0        4.172411   -5.524149    0.995211
     42          6           0        2.962615   -3.342197    0.813186
     43          6           0        2.218858   -3.906571   -0.418153
     44          8           0        2.525885   -3.744023   -1.572501
     45          8           0        1.017659   -4.434874    0.033691
     46          6           0        0.067664   -4.620837   -1.036519
     47          6           0       -3.447811   -3.329071   -0.671517
     48          6           0       -4.563462   -2.733132   -1.463364
     49          6           0       -5.868282   -3.182956   -1.686097
     50          6           0       -6.370621   -4.554036   -1.395560
     51          6           0       -6.803328   -2.281377   -2.484855
     52          6           0       -7.878039   -1.714963   -1.574373
     53          6           0       -8.248408   -0.241186   -1.938512
     54          6           0       -9.730232   -0.134478   -2.402414
     55          6           0       -9.915024    0.497005   -3.725101
     56          6           0      -10.622439    0.592323   -1.343193
     57          6           0      -12.140643    0.169789   -1.332613
     58          6           0      -13.076892    1.229233   -0.617779
     59          6           0      -14.069852    0.487216    0.271458
     60          6           0      -15.304477   -0.133116   -0.539262
     61          6           0      -14.631209    1.514560    1.268660
     62          6           0      -13.829393    1.616947    2.509173
     63          6           0      -13.657442    2.989878    3.037248
     64          6           0      -12.243467    3.242843    3.760806
     65          6           0      -12.402929    4.061008    5.112265
     66          6           0      -11.172159    3.898632    2.944421
     67          1           0        2.870504    3.210274   -1.727709
     68          1           0        9.082846    3.835302    0.013016
     69          1           0        9.095177   -2.370507    1.730155
     70          1           0        1.275076   -1.291507   -1.100513
     71          1           0        0.986026    1.563098   -0.560681
     72          1           0        0.923007   -0.299042   -2.877911
     73          1           0        2.020679    1.133858   -3.014895
     74          1           0        0.300779    1.459544   -2.769229
     75          1           0        0.538107    0.504949    1.334044
     76          1           0        0.763427   -1.285352    1.398853
     77          1           0       -1.129206   -0.059646   -0.583502
     78          1           0       -1.600064    0.090924    1.061623
     79          1           0        4.189873    6.384892   -0.850578
     80          1           0        3.263218    5.193827   -1.784774
     81          1           0        4.419084    6.197406   -2.585085
     82          1           0        7.763948    7.895990   -1.663338
     83          1           0        6.118538    7.470231   -1.160224
     84          1           0        6.855607    6.851325   -2.763585
     85          1           0       10.376989    2.265330    1.550665
     86          1           0       10.799955   -0.434855    0.386764
     87          1           0       12.073393    2.739716    0.064199
     88          1           0       10.980735    2.419142   -1.261114
     89          1           0       12.068620    1.071282   -0.520902
     90          1           0        9.700861   -0.081291    3.002875
     91          1           0       11.281983    0.750043    2.863230
     92          1           0       12.535285   -1.266582    2.859580
     93          1           0       11.169416   -2.269974    2.213843
     94          1           0       11.164737   -1.777797    3.856125
     95          1           0        7.611771   -5.302870    0.559305
     96          1           0        6.838134   -5.422795    2.209220
     97          1           0        8.343423   -4.591819    1.987635
     98          1           0        2.380025   -3.370254    1.734700
     99          1           0       -0.784110   -5.106962   -0.561596
    100          1           0        0.499326   -5.266186   -1.801610
    101          1           0       -0.312655   -3.662332   -1.390404
    102          1           0       -3.815368   -3.623823    0.312140
    103          1           0       -3.027330   -4.114740   -1.298237
    104          1           0       -4.346182   -1.762463   -1.907950
    105          1           0       -6.190575   -4.919424   -0.384578
    106          1           0       -5.866923   -5.245273   -2.069942
    107          1           0       -7.440750   -4.706183   -1.536353
    108          1           0       -7.281792   -2.955569   -3.195971
    109          1           0       -6.279490   -1.518622   -3.061983
    110          1           0       -7.346325   -1.694665   -0.623631
    111          1           0       -8.745709   -2.370012   -1.497166
    112          1           0       -7.619994    0.147469   -2.740026
    113          1           0       -8.104640    0.481420   -1.135699
    114          1           0      -10.137724   -1.139864   -2.510000
    115          1           0       -9.027419    0.950018   -4.167212
    116          1           0      -10.647665    1.301433   -3.669255
    117          1           0      -10.322298   -0.260116   -4.394796
    118          1           0      -10.663034    1.667465   -1.514726
    119          1           0      -10.311081    0.463816   -0.306162
    120          1           0      -12.312266   -0.830748   -0.935570
    121          1           0      -12.431585    0.024287   -2.372987
    122          1           0      -13.534282    1.918794   -1.327961
    123          1           0      -12.430025    1.792504    0.055789
    124          1           0      -13.592008   -0.241909    0.925869
    125          1           0      -16.266187    0.094145   -0.078041
    126          1           0      -15.091068   -1.199029   -0.613262
    127          1           0      -15.312935    0.237869   -1.564229
    128          1           0      -15.597549    1.083848    1.531648
    129          1           0      -14.701242    2.514410    0.840444
    130          1           0      -12.819439    1.221790    2.407720
    131          1           0      -14.200818    0.995382    3.324443
    132          1           0      -14.440761    3.211893    3.761427
    133          1           0      -13.560183    3.697408    2.214398
    134          1           0      -11.875750    2.278739    4.111405
    135          1           0      -12.878639    3.419089    5.853379
    136          1           0      -12.985968    4.964627    4.934696
    137          1           0      -11.392983    4.226077    5.486852
    138          1           0      -10.934430    4.845399    3.427835
    139          1           0      -11.459428    4.098199    1.910891
    140          1           0      -10.295957    3.262823    3.067057
 ---------------------------------------------------------------------

 SCF Done:  E(RB-LYP) =  -3007.36065580     A.U. after   22 cycles

 Excitation energies and oscillator strengths:

 Excited State   1:      Singlet-A      1.7554 eV  706.31 nm  f=0.1489  <S**2>=0.000
     244 -> 247        0.35474
     245 -> 247       -0.24336
     245 -> 248       -0.14784
     246 -> 247        0.54775
     246 <- 247       -0.11451
 This state for optimization and/or second-order correction.
 Total Energy, E(TD-HF/TD-DFT) =  -3007.29614640
 Copying the excited state density for this state as the 1-particle RhoCI density.

 Excited State   2:      Singlet-A      1.8237 eV  679.84 nm  f=0.1447  <S**2>=0.000
     243 -> 247       -0.18511
     244 -> 247        0.43583
     245 -> 247       -0.31884
     245 -> 248        0.12612
     246 -> 247       -0.39853

 Excited State   3:      Singlet-A      1.8905 eV  655.81 nm  f=0.0162  <S**2>=0.000
     243 -> 247        0.67288
     244 -> 247        0.16332
     246 -> 247       -0.13303

 Excited State   4:      Singlet-A      2.0142 eV  615.55 nm  f=0.0698  <S**2>=0.000
     243 -> 247       -0.10319
     244 -> 247        0.38744
     245 -> 247        0.52316
     246 -> 248        0.23775

 Excited State   5:      Singlet-A      2.1721 eV  570.80 nm  f=0.0000  <S**2>=0.000
     242 -> 247        0.70702

 The electronic state is 1-A.
 Alpha  occ. eigenvalues --  -46.27305 -18.82868 -18.81511 -18.77503 -18.76411
 Alpha  occ. eigenvalues --  -18.75300 -18.74968 -14.03206 -14.03134 -14.01165
 Alpha  occ. eigenvalues --  -14.01102 -10.04679 -10.04003  -9.99470  -9.99136
 Alpha  occ. eigenvalues --   -9.98653  -9.96953  -9.96889  -9.96812  -9.96703
 Alpha  occ. eigenvalues --   -9.96152  -9.95895  -9.95875  -9.95495  -9.94757
 Alpha  occ. eigenvalues --   -9.94704  -9.93981  -9.93943  -9.93860  -9.93791
 Alpha  occ. eigenvalues --   -9.93788  -9.93714  -9.93689  -9.93687  -9.93379
 Alpha  occ. eigenvalues --   -9.93375  -9.93219  -9.93002  -9.92735  -9.92694
 Alpha  occ. eigenvalues --   -9.92626  -9.92396  -9.92319  -9.92309  -9.92272
 Alpha  occ. eigenvalues --   -9.91899  -9.91882  -9.91841  -9.91767  -9.91717
 Alpha  occ. eigenvalues --   -9.91703  -9.91689  -9.91626  -9.91566  -9.91447
 Alpha  occ. eigenvalues --   -9.91439  -9.91251  -9.91133  -9.90993  -9.90820
 Alpha  occ. eigenvalues --   -9.90672  -9.90629  -9.90511  -9.90144  -9.90072
 Alpha  occ. eigenvalues --   -9.89801  -2.91871  -1.72305  -1.71773  -1.71565
 Alpha  occ. eigenvalues --   -0.97868  -0.97281  -0.91148  -0.90628  -0.90379
 Alpha  occ. eigenvalues --   -0.87923  -0.86299  -0.85520  -0.84915  -0.84180
 Alpha  occ. eigenvalues --   -0.75622  -0.74007  -0.73764  -0.73481  -0.72656
 Alpha  occ. eigenvalues --   -0.72265  -0.71382  -0.70909  -0.70658  -0.70100
 Alpha  occ. eigenvalues --   -0.69868  -0.69493  -0.68395  -0.67565  -0.67198
 Alpha  occ. eigenvalues --   -0.66833  -0.66018  -0.65784  -0.65023  -0.64450
 Alpha  occ. eigenvalues --   -0.64327  -0.62719  -0.62407  -0.61606  -0.60786
 Alpha  occ. eigenvalues --   -0.60606  -0.59724  -0.59717  -0.59392  -0.58910
 Alpha  occ. eigenvalues --   -0.58010  -0.57626  -0.56504  -0.55944  -0.55053
 Alpha  occ. eigenvalues --   -0.53927  -0.53372  -0.52488  -0.52007  -0.51503
 Alpha  occ. eigenvalues --   -0.51173  -0.50915  -0.50797  -0.50278  -0.50056
 Alpha  occ. eigenvalues --   -0.49842  -0.49556  -0.48045  -0.48025  -0.46665
 Alpha  occ. eigenvalues --   -0.46347  -0.46085  -0.45712  -0.45204  -0.44606
 Alpha  occ. eigenvalues --   -0.44223  -0.43855  -0.42970  -0.42771  -0.42244
 Alpha  occ. eigenvalues --   -0.42024  -0.41951  -0.41858  -0.41594  -0.41142
 Alpha  occ. eigenvalues --   -0.40824  -0.40716  -0.40606  -0.40365  -0.40320
 Alpha  occ. eigenvalues --   -0.40040  -0.39841  -0.39800  -0.39255  -0.38884
 Alpha  occ. eigenvalues --   -0.38759  -0.38739  -0.38575  -0.38271  -0.38128
 Alpha  occ. eigenvalues --   -0.38092  -0.37900  -0.37831  -0.37575  -0.37465
 Alpha  occ. eigenvalues --   -0.37319  -0.37090  -0.36785  -0.36768  -0.36703
 Alpha  occ. eigenvalues --   -0.36520  -0.36412  -0.36170  -0.35932  -0.35799
 Alpha  occ. eigenvalues --   -0.35447  -0.35236  -0.35047  -0.34830  -0.34775
 Alpha  occ. eigenvalues --   -0.34533  -0.34474  -0.34246  -0.34199  -0.34100
 Alpha  occ. eigenvalues --   -0.34029  -0.33874  -0.33487  -0.33354  -0.33198
 Alpha  occ. eigenvalues --   -0.33015  -0.32848  -0.32577  -0.32463  -0.32256
 Alpha  occ. eigenvalues --   -0.32069  -0.31705  -0.31603  -0.31510  -0.31408
 Alpha  occ. eigenvalues --   -0.31132  -0.31073  -0.30996  -0.30961  -0.30699
 Alpha  occ. eigenvalues --   -0.30313  -0.30221  -0.30105  -0.29975  -0.29566
 Alpha  occ. eigenvalues --   -0.29540  -0.29409  -0.29285  -0.29092  -0.28996
 Alpha  occ. eigenvalues --   -0.28960  -0.28374  -0.28207  -0.28093  -0.27579
 Alpha  occ. eigenvalues --   -0.27517  -0.27239  -0.27235  -0.26588  -0.26482
 Alpha  occ. eigenvalues --   -0.26242  -0.25846  -0.25736  -0.25456  -0.25232
 Alpha  occ. eigenvalues --   -0.24783  -0.24678  -0.24341  -0.23765  -0.23634
 Alpha  occ. eigenvalues --   -0.23064  -0.22637  -0.21881  -0.21331  -0.20778
 Alpha  occ. eigenvalues --   -0.20449  -0.19622  -0.18449  -0.18353  -0.17113
 Alpha  occ. eigenvalues --   -0.15860
 Alpha virt. eigenvalues --   -0.11640  -0.06790  -0.06107  -0.04599  -0.03536
 Alpha virt. eigenvalues --   -0.02606  -0.02516  -0.01896  -0.01381   0.00233
 Alpha virt. eigenvalues --    0.01383   0.01620   0.02066   0.02729   0.02743

 Mulliken charges:
               1
     1  Mg   0.683199
     2  C    0.008870
     3  C   -0.042389
     4  C   -0.032297
     5  C   -0.088070
     6  N   -0.181497
     7  C   -0.106067
     8  C    0.049351
     9  C   -0.063576
    10  C    0.032447
    11  C    0.145229
    12  C    0.142400
    13  C    0.150021
    14  C    0.075905
    15  O   -0.227351
    16  O   -0.284702
    17  N   -0.329029
    18  C    0.128210
    19  C   -0.145788
    20  C    0.032253
    21  C    0.129721
    22  C    0.156851
    23  C   -0.088250
    24  O   -0.193884
    25  C    0.160768
    26  N   -0.218837
    27  C   -0.030405
    28  C   -0.031944
    29  C    0.047178
    30  C    0.044166
    31  C    0.148951
    32  C    0.118950
    33  C    0.069105
    34  N   -0.280235
    35  C    0.106653
    36  C   -0.195556
    37  C    0.175484
    38  C    0.055846
    39  C    0.182620
    40  C   -0.118777
    41  O   -0.141634
    42  C    0.089120
    43  C    0.117286
    44  O   -0.166379
    45  O   -0.268592
    46  C    0.208677
    47  C    0.355303
    48  C   -0.173514
    49  C   -0.154062
    50  C    0.137240
    51  C    0.142342
    52  C    0.080123
    53  C    0.140135
    54  C   -0.081885
    55  C    0.129783
    56  C    0.072968
    57  C    0.050278
    58  C    0.117577
    59  C   -0.121428
    60  C    0.113224
    61  C    0.156890
    62  C    0.060851
    63  C    0.126391
    64  C   -0.157621
    65  C    0.080063
    66  C    0.142123
    67  H   -0.057865
    68  H   -0.040751
    69  H   -0.065195
    70  H   -0.011033
    71  H   -0.029954
    72  H    0.009896
    73  H   -0.012612
    74  H   -0.004455
    75  H   -0.023172
    76  H   -0.006015
    77  H   -0.024692
    78  H    0.005288
    79  H    0.004328
    80  H   -0.031490
    81  H    0.007605
    82  H   -0.010379
    83  H    0.000752
    84  H    0.018591
    85  H   -0.018686
    86  H   -0.036586
    87  H   -0.009670
    88  H    0.016677
    89  H   -0.003261
    90  H   -0.020881
    91  H   -0.016371
    92  H   -0.002231
    93  H    0.007064
    94  H   -0.011252
    95  H    0.021706
    96  H    0.009007
    97  H   -0.035101
    98  H    0.021351
    99  H    0.008998
   100  H    0.019334
   101  H    0.010256
   102  H    0.039964
   103  H    0.012349
   104  H   -0.022706
   105  H   -0.006616
   106  H    0.007896
   107  H   -0.016318
   108  H   -0.040270
   109  H   -0.027372
   110  H   -0.031615
   111  H   -0.012101
   112  H   -0.046898
   113  H   -0.034984
   114  H   -0.037711
   115  H   -0.021516
   116  H   -0.024967
   117  H   -0.019526
   118  H   -0.030489
   119  H   -0.030494
   120  H   -0.034663
   121  H   -0.047858
   122  H   -0.022194
   123  H   -0.033476
   124  H   -0.032083
   125  H   -0.008069
   126  H   -0.013622
   127  H   -0.019989
   128  H   -0.050060
   129  H   -0.036243
   130  H   -0.039717
   131  H   -0.040618
   132  H   -0.033891
   133  H   -0.041311
   134  H   -0.038602
   135  H   -0.021379
   136  H   -0.002016
   137  H   -0.018626
   138  H   -0.027023
   139  H   -0.011252
   140  H   -0.013921
 Sum of Mulliken charges =  -0.00000

 Dipole moment (field-independent basis, Debye):
    X=             -3.3058    Y=              3.0372    Z=              0.1736  Tot=              4.4926
 Quadrupole moment (field-independent basis, Debye-Ang):
   XX=           -386.1209   YY=           -424.3384   ZZ=           -408.2175
   XY=              7.5916   XZ=             27.5306   YZ=              5.6500

 Normal termination of Gaussian 16 at Thu Apr 28 06:41:07 2022.
