 Gaussian 16, Revision A.03,
 Gaussian 16:  ES64L-G16RevA.03 25-Dec-2016

 -----------------------------------
 #p cam-b3lyp/Def2SVP td=(nstates=5)
 -----------------------------------

 -------------------------------------------------------
 step_1451_chromophore_7 TDDFT with cam-b3lyp functional
 -------------------------------------------------------
 Symbolic Z-matrix:
 Charge =  0 Multiplicity = 1

                         Standard orientation:
 ---------------------------------------------------------------------
 Center     Atomic      Atomic             Coordinates (Angstroms)
 Number     Number       Type             X           Y           Z
 ---------------------------------------------------------------------
      1         12           0        5.945496    0.686400    0.210557
      2          6           0        3.511401   -1.954753    0.612421
      3          6           0        3.541449    2.551186   -1.172497
      4          6           0        8.355364    3.034762   -0.138097
      5          6           0        8.440705   -1.688810    1.183396
      6          7           0        3.678007    0.318330   -0.103698
      7          6           0        2.914976   -0.760609    0.132609
      8          6           0        1.472792   -0.510561   -0.365457
      9          6           0        1.570566    0.807905   -1.085864
     10          6           0        3.070455    1.260971   -0.884046
     11          6           0        1.098025    0.737847   -2.590573
     12          6           0        0.461007   -0.435192    0.788055
     13          6           0       -0.993568   -0.520692    0.393795
     14          6           0       -1.761779   -1.878888    0.410660
     15          8           0       -1.794707   -2.707513    1.354413
     16          8           0       -2.476630   -2.141850   -0.720570
     17          7           0        5.951007    2.583473   -0.441090
     18          6           0        4.815823    3.206481   -0.878187
     19          6           0        5.194662    4.578452   -1.149989
     20          6           0        6.618183    4.686355   -1.005924
     21          6           0        7.056799    3.379101   -0.523273
     22          6           0        4.242440    5.653151   -1.657153
     23          6           0        7.553948    5.853169   -1.280007
     24          8           0        8.790400    5.739562   -1.300874
     25          6           0        6.990750    7.130088   -1.718512
     26          7           0        8.122410    0.623543    0.171323
     27          6           0        8.856779    1.786061    0.181616
     28          6           0       10.340366    1.603323    0.685846
     29          6           0       10.247229    0.120792    1.143980
     30          6           0        8.865040   -0.401380    0.737798
     31          6           0       11.457560    1.965093   -0.392269
     32          6           0       10.689926   -0.107803    2.545043
     33          6           0       11.459614   -1.442470    2.861460
     34          7           0        6.034662   -1.354529    0.716194
     35          6           0        7.138569   -2.182779    1.108995
     36          6           0        6.620377   -3.558857    1.293551
     37          6           0        5.280156   -3.512177    1.048910
     38          6           0        4.939730   -2.159547    0.803159
     39          6           0        7.390919   -4.803175    1.502939
     40          6           0        4.135805   -4.299822    0.928181
     41          8           0        4.172411   -5.524149    0.995211
     42          6           0        2.962615   -3.342197    0.813186
     43          6           0        2.218858   -3.906571   -0.418153
     44          8           0        2.525885   -3.744023   -1.572501
     45          8           0        1.017659   -4.434874    0.033691
     46          6           0        0.067664   -4.620837   -1.036519
     47          6           0       -3.447811   -3.329071   -0.671517
     48          6           0       -4.563462   -2.733132   -1.463364
     49          6           0       -5.868282   -3.182956   -1.686097
     50          6           0       -6.370621   -4.554036   -1.395560
     51          6           0       -6.803328   -2.281377   -2.484855
     52          6           0       -7.878039   -1.714963   -1.574373
     53          6           0       -8.248408   -0.241186   -1.938512
     54          6           0       -9.730232   -0.134478   -2.402414
     55          6           0       -9.915024    0.497005   -3.725101
     56          6           0      -10.622439    0.592323   -1.343193
     57          6           0      -12.140643    0.169789   -1.332613
     58          6           0      -13.076892    1.229233   -0.617779
     59          6           0      -14.069852    0.487216    0.271458
     60          6           0      -15.304477   -0.133116   -0.539262
     61          6           0      -14.631209    1.514560    1.268660
     62          6           0      -13.829393    1.616947    2.509173
     63          6           0      -13.657442    2.989878    3.037248
     64          6           0      -12.243467    3.242843    3.760806
     65          6           0      -12.402929    4.061008    5.112265
     66          6           0      -11.172159    3.898632    2.944421
     67          1           0        2.870504    3.210274   -1.727709
     68          1           0        9.082846    3.835302    0.013016
     69          1           0        9.095177   -2.370507    1.730155
     70          1           0        1.275076   -1.291507   -1.100513
     71          1           0        0.986026    1.563098   -0.560681
     72          1           0        0.923007   -0.299042   -2.877911
     73          1           0        2.020679    1.133858   -3.014895
     74          1           0        0.300779    1.459544   -2.769229
     75          1           0        0.538107    0.504949    1.334044
     76          1           0        0.763427   -1.285352    1.398853
     77          1           0       -1.129206   -0.059646   -0.583502
     78          1           0       -1.600064    0.090924    1.061623
     79          1           0        4.189873    6.384892   -0.850578
     80          1           0        3.263218    5.193827   -1.784774
     81          1           0        4.419084    6.197406   -2.585085
     82          1           0        7.763948    7.895990   -1.663338
     83          1           0        6.118538    7.470231   -1.160224
     84          1           0        6.855607    6.851325   -2.763585
     85          1           0       10.376989    2.265330    1.550665
     86          1           0       10.799955   -0.434855    0.386764
     87          1           0       12.073393    2.739716    0.064199
     88          1           0       10.980735    2.419142   -1.261114
     89          1           0       12.068620    1.071282   -0.520902
     90          1           0        9.700861   -0.081291    3.002875
     91          1           0       11.281983    0.750043    2.863230
     92          1           0       12.535285   -1.266582    2.859580
     93          1           0       11.169416   -2.269974    2.213843
     94          1           0       11.164737   -1.777797    3.856125
     95          1           0        7.611771   -5.302870    0.559305
     96          1           0        6.838134   -5.422795    2.209220
     97          1           0        8.343423   -4.591819    1.987635
     98          1           0        2.380025   -3.370254    1.734700
     99          1           0       -0.784110   -5.106962   -0.561596
    100          1           0        0.499326   -5.266186   -1.801610
    101          1           0       -0.312655   -3.662332   -1.390404
    102          1           0       -3.815368   -3.623823    0.312140
    103          1           0       -3.027330   -4.114740   -1.298237
    104          1           0       -4.346182   -1.762463   -1.907950
    105          1           0       -6.190575   -4.919424   -0.384578
    106          1           0       -5.866923   -5.245273   -2.069942
    107          1           0       -7.440750   -4.706183   -1.536353
    108          1           0       -7.281792   -2.955569   -3.195971
    109          1           0       -6.279490   -1.518622   -3.061983
    110          1           0       -7.346325   -1.694665   -0.623631
    111          1           0       -8.745709   -2.370012   -1.497166
    112          1           0       -7.619994    0.147469   -2.740026
    113          1           0       -8.104640    0.481420   -1.135699
    114          1           0      -10.137724   -1.139864   -2.510000
    115          1           0       -9.027419    0.950018   -4.167212
    116          1           0      -10.647665    1.301433   -3.669255
    117          1           0      -10.322298   -0.260116   -4.394796
    118          1           0      -10.663034    1.667465   -1.514726
    119          1           0      -10.311081    0.463816   -0.306162
    120          1           0      -12.312266   -0.830748   -0.935570
    121          1           0      -12.431585    0.024287   -2.372987
    122          1           0      -13.534282    1.918794   -1.327961
    123          1           0      -12.430025    1.792504    0.055789
    124          1           0      -13.592008   -0.241909    0.925869
    125          1           0      -16.266187    0.094145   -0.078041
    126          1           0      -15.091068   -1.199029   -0.613262
    127          1           0      -15.312935    0.237869   -1.564229
    128          1           0      -15.597549    1.083848    1.531648
    129          1           0      -14.701242    2.514410    0.840444
    130          1           0      -12.819439    1.221790    2.407720
    131          1           0      -14.200818    0.995382    3.324443
    132          1           0      -14.440761    3.211893    3.761427
    133          1           0      -13.560183    3.697408    2.214398
    134          1           0      -11.875750    2.278739    4.111405
    135          1           0      -12.878639    3.419089    5.853379
    136          1           0      -12.985968    4.964627    4.934696
    137          1           0      -11.392983    4.226077    5.486852
    138          1           0      -10.934430    4.845399    3.427835
    139          1           0      -11.459428    4.098199    1.910891
    140          1           0      -10.295957    3.262823    3.067057
 ---------------------------------------------------------------------

 SCF Done:  E(RCAM-B3LYP) =  -3007.15311145     A.U. after   19 cycles

 Excitation energies and oscillator strengths:

 Excited State   1:      Singlet-A      1.6747 eV  740.35 nm  f=0.3582  <S**2>=0.000
     245 -> 248       -0.18441
     246 -> 247        0.68534
     245 <- 248       -0.11178
 This state for optimization and/or second-order correction.
 Total Energy, E(TD-HF/TD-DFT) =  -3007.09156845
 Copying the excited state density for this state as the 1-particle RhoCI density.

 Excited State   2:      Singlet-A      2.1757 eV  569.86 nm  f=0.1239  <S**2>=0.000
     245 -> 247        0.64493
     246 -> 248        0.28174

 Excited State   3:      Singlet-A      3.3661 eV  368.33 nm  f=0.0014  <S**2>=0.000
     240 -> 247        0.53471
     240 -> 249       -0.29791
     240 -> 250        0.15835
     241 -> 247        0.17675
     242 -> 247       -0.12194
     243 -> 247        0.14277

 Excited State   4:      Singlet-A      3.4048 eV  364.14 nm  f=0.0039  <S**2>=0.000
     240 -> 247       -0.21431
     241 -> 247        0.29855
     242 -> 247       -0.27135
     243 -> 247        0.50769

 Excited State   5:      Singlet-A      3.4881 eV  355.45 nm  f=0.3026  <S**2>=0.000
     241 -> 247        0.29342
     242 -> 247       -0.14993
     243 -> 247       -0.31017
     245 -> 247       -0.17623
     246 -> 248        0.49834

 The electronic state is 1-A.
 Alpha  occ. eigenvalues --  -46.88865 -19.25781 -19.24489 -19.20727 -19.19360
 Alpha  occ. eigenvalues --  -19.18868 -19.17885 -14.42176 -14.41896 -14.39739
 Alpha  occ. eigenvalues --  -14.39460 -10.40063 -10.39581 -10.34439 -10.34199
 Alpha  occ. eigenvalues --  -10.33318 -10.31724 -10.31659 -10.31008 -10.30832
 Alpha  occ. eigenvalues --  -10.30647 -10.30124 -10.30108 -10.29527 -10.29516
 Alpha  occ. eigenvalues --  -10.28760 -10.28496 -10.28315 -10.28293 -10.28041
 Alpha  occ. eigenvalues --  -10.27860 -10.27816 -10.27674 -10.27650 -10.27623
 Alpha  occ. eigenvalues --  -10.27577 -10.27568 -10.26685 -10.26624 -10.26402
 Alpha  occ. eigenvalues --  -10.26392 -10.26288 -10.26080 -10.26053 -10.25929
 Alpha  occ. eigenvalues --  -10.25877 -10.25870 -10.25621 -10.25596 -10.25547
 Alpha  occ. eigenvalues --  -10.25505 -10.25340 -10.25337 -10.25298 -10.25141
 Alpha  occ. eigenvalues --  -10.25107 -10.24950 -10.24857 -10.24628 -10.24465
 Alpha  occ. eigenvalues --  -10.24354 -10.24215 -10.24202 -10.24043 -10.23712
 Alpha  occ. eigenvalues --  -10.23675  -3.17334  -1.92245  -1.91792  -1.91631
 Alpha  occ. eigenvalues --   -1.16542  -1.15675  -1.09873  -1.08680  -1.08497
 Alpha  occ. eigenvalues --   -1.05713  -1.04029  -1.03015  -1.02592  -1.01808
 Alpha  occ. eigenvalues --   -0.92992  -0.90901  -0.90637  -0.90332  -0.89416
 Alpha  occ. eigenvalues --   -0.88975  -0.87983  -0.87517  -0.87420  -0.86682
 Alpha  occ. eigenvalues --   -0.86351  -0.85822  -0.84663  -0.83782  -0.83381
 Alpha  occ. eigenvalues --   -0.82973  -0.82062  -0.81665  -0.81015  -0.80242
 Alpha  occ. eigenvalues --   -0.80150  -0.78507  -0.77976  -0.77096  -0.76214
 Alpha  occ. eigenvalues --   -0.76069  -0.75070  -0.74969  -0.74682  -0.74158
 Alpha  occ. eigenvalues --   -0.73084  -0.72740  -0.71387  -0.70768  -0.69775
 Alpha  occ. eigenvalues --   -0.68662  -0.67925  -0.66792  -0.66316  -0.65647
 Alpha  occ. eigenvalues --   -0.65313  -0.65132  -0.64808  -0.64330  -0.64103
 Alpha  occ. eigenvalues --   -0.63642  -0.63547  -0.61918  -0.61895  -0.60306
 Alpha  occ. eigenvalues --   -0.59872  -0.59660  -0.59188  -0.58827  -0.58207
 Alpha  occ. eigenvalues --   -0.57612  -0.57271  -0.56073  -0.56042  -0.55471
 Alpha  occ. eigenvalues --   -0.55046  -0.54755  -0.54717  -0.54312  -0.54256
 Alpha  occ. eigenvalues --   -0.53785  -0.53623  -0.53363  -0.53186  -0.52987
 Alpha  occ. eigenvalues --   -0.52762  -0.52691  -0.52515  -0.51853  -0.51662
 Alpha  occ. eigenvalues --   -0.51502  -0.51204  -0.51158  -0.50724  -0.50495
 Alpha  occ. eigenvalues --   -0.50397  -0.50314  -0.50269  -0.50168  -0.49722
 Alpha  occ. eigenvalues --   -0.49490  -0.49250  -0.49194  -0.49045  -0.48825
 Alpha  occ. eigenvalues --   -0.48801  -0.48638  -0.48437  -0.48154  -0.47940
 Alpha  occ. eigenvalues --   -0.47782  -0.47301  -0.47053  -0.46911  -0.46676
 Alpha  occ. eigenvalues --   -0.46589  -0.46357  -0.46278  -0.46054  -0.45862
 Alpha  occ. eigenvalues --   -0.45795  -0.45737  -0.45447  -0.45176  -0.44942
 Alpha  occ. eigenvalues --   -0.44867  -0.44645  -0.44405  -0.44025  -0.43867
 Alpha  occ. eigenvalues --   -0.43759  -0.43362  -0.43326  -0.43101  -0.42964
 Alpha  occ. eigenvalues --   -0.42912  -0.42420  -0.42395  -0.42376  -0.41976
 Alpha  occ. eigenvalues --   -0.41794  -0.41624  -0.41433  -0.41302  -0.41159
 Alpha  occ. eigenvalues --   -0.40689  -0.40646  -0.40617  -0.40571  -0.40201
 Alpha  occ. eigenvalues --   -0.39998  -0.39357  -0.39253  -0.39095  -0.38510
 Alpha  occ. eigenvalues --   -0.38474  -0.38122  -0.38097  -0.37695  -0.37386
 Alpha  occ. eigenvalues --   -0.37006  -0.36956  -0.36655  -0.36438  -0.36198
 Alpha  occ. eigenvalues --   -0.35894  -0.35665  -0.34897  -0.34776  -0.34150
 Alpha  occ. eigenvalues --   -0.33965  -0.33627  -0.32887  -0.31287  -0.30974
 Alpha  occ. eigenvalues --   -0.30407  -0.30242  -0.29602  -0.29132  -0.23905
 Alpha  occ. eigenvalues --   -0.21177
 Alpha virt. eigenvalues --   -0.08801  -0.01712   0.00378   0.02388   0.03066
 Alpha virt. eigenvalues --    0.04168   0.04964   0.05265   0.05934   0.06423
 Alpha virt. eigenvalues --    0.08040   0.08614   0.08824   0.08870   0.09145

 Mulliken charges:
               1
     1  Mg   0.815245
     2  C   -0.022216
     3  C   -0.053674
     4  C   -0.046206
     5  C   -0.099113
     6  N   -0.253112
     7  C   -0.052314
     8  C   -0.003598
     9  C   -0.113010
    10  C    0.048306
    11  C    0.086102
    12  C    0.088321
    13  C    0.079525
    14  C    0.157679
    15  O   -0.269175
    16  O   -0.351028
    17  N   -0.418910
    18  C    0.133160
    19  C   -0.155207
    20  C   -0.038296
    21  C    0.149406
    22  C    0.101157
    23  C   -0.006970
    24  O   -0.237155
    25  C    0.073993
    26  N   -0.287941
    27  C   -0.012457
    28  C   -0.076600
    29  C   -0.017640
    30  C    0.077452
    31  C    0.091050
    32  C    0.053411
    33  C    0.007537
    34  N   -0.367393
    35  C    0.115955
    36  C   -0.190037
    37  C    0.096567
    38  C    0.099447
    39  C    0.131068
    40  C   -0.021496
    41  O   -0.177723
    42  C    0.014908
    43  C    0.199963
    44  O   -0.201893
    45  O   -0.329442
    46  C    0.170103
    47  C    0.322630
    48  C   -0.185210
    49  C   -0.180919
    50  C    0.072514
    51  C    0.083362
    52  C    0.021347
    53  C    0.085878
    54  C   -0.138060
    55  C    0.067811
    56  C    0.022393
    57  C    0.004590
    58  C    0.063904
    59  C   -0.177094
    60  C    0.055723
    61  C    0.095513
    62  C    0.006787
    63  C    0.070582
    64  C   -0.209850
    65  C    0.022797
    66  C    0.075158
    67  H   -0.025486
    68  H   -0.001003
    69  H   -0.030523
    70  H    0.020640
    71  H    0.004788
    72  H    0.033270
    73  H    0.013728
    74  H    0.019363
    75  H    0.010101
    76  H    0.023551
    77  H    0.009773
    78  H    0.038125
    79  H    0.028342
    80  H   -0.005284
    81  H    0.032478
    82  H    0.025050
    83  H    0.028115
    84  H    0.045289
    85  H    0.015404
    86  H   -0.000137
    87  H    0.014391
    88  H    0.042382
    89  H    0.019703
    90  H    0.009041
    91  H    0.013953
    92  H    0.022880
    93  H    0.025043
    94  H    0.013793
    95  H    0.049930
    96  H    0.037304
    97  H   -0.008449
    98  H    0.064438
    99  H    0.032483
   100  H    0.044890
   101  H    0.027700
   102  H    0.069464
   103  H    0.037163
   104  H    0.011294
   105  H    0.018511
   106  H    0.033167
   107  H    0.009939
   108  H   -0.009792
   109  H    0.003374
   110  H    0.000309
   111  H    0.013050
   112  H   -0.017718
   113  H   -0.004570
   114  H   -0.006052
   115  H    0.003680
   116  H   -0.000075
   117  H    0.005023
   118  H   -0.003280
   119  H   -0.003755
   120  H   -0.007255
   121  H   -0.020603
   122  H    0.006559
   123  H   -0.008579
   124  H    0.000427
   125  H    0.015892
   126  H    0.009616
   127  H    0.003785
   128  H   -0.017766
   129  H   -0.006805
   130  H   -0.012121
   131  H   -0.010797
   132  H   -0.003842
   133  H   -0.014414
   134  H   -0.007291
   135  H    0.002842
   136  H    0.020427
   137  H    0.005493
   138  H   -0.000201
   139  H    0.011778
   140  H    0.010457
 Sum of Mulliken charges =  -0.00000

 Dipole moment (field-independent basis, Debye):
    X=             -3.4023    Y=              2.8501    Z=              0.3999  Tot=              4.4563
 Quadrupole moment (field-independent basis, Debye-Ang):
   XX=           -384.7347   YY=           -421.2255   ZZ=           -408.1212
   XY=              5.1461   XZ=             29.7512   YZ=              4.9370

 Normal termination of Gaussian 16 at Thu Apr 28 05:49:50 2022.
