 Gaussian 16, Revision A.03,
 Gaussian 16:  ES64L-G16RevA.03 25-Dec-2016

 ---------------------------------
 #p PBE1PBE/Def2SVP td=(nstates=5)
 ---------------------------------

 -----------------------------------------------------
 step_1451_chromophore_7 TDDFT with PBE1PBE functional
 -----------------------------------------------------
 Symbolic Z-matrix:
 Charge =  0 Multiplicity = 1

                         Standard orientation:
 ---------------------------------------------------------------------
 Center     Atomic      Atomic             Coordinates (Angstroms)
 Number     Number       Type             X           Y           Z
 ---------------------------------------------------------------------
      1         12           0        5.945496    0.686400    0.210557
      2          6           0        3.511401   -1.954753    0.612421
      3          6           0        3.541449    2.551186   -1.172497
      4          6           0        8.355364    3.034762   -0.138097
      5          6           0        8.440705   -1.688810    1.183396
      6          7           0        3.678007    0.318330   -0.103698
      7          6           0        2.914976   -0.760609    0.132609
      8          6           0        1.472792   -0.510561   -0.365457
      9          6           0        1.570566    0.807905   -1.085864
     10          6           0        3.070455    1.260971   -0.884046
     11          6           0        1.098025    0.737847   -2.590573
     12          6           0        0.461007   -0.435192    0.788055
     13          6           0       -0.993568   -0.520692    0.393795
     14          6           0       -1.761779   -1.878888    0.410660
     15          8           0       -1.794707   -2.707513    1.354413
     16          8           0       -2.476630   -2.141850   -0.720570
     17          7           0        5.951007    2.583473   -0.441090
     18          6           0        4.815823    3.206481   -0.878187
     19          6           0        5.194662    4.578452   -1.149989
     20          6           0        6.618183    4.686355   -1.005924
     21          6           0        7.056799    3.379101   -0.523273
     22          6           0        4.242440    5.653151   -1.657153
     23          6           0        7.553948    5.853169   -1.280007
     24          8           0        8.790400    5.739562   -1.300874
     25          6           0        6.990750    7.130088   -1.718512
     26          7           0        8.122410    0.623543    0.171323
     27          6           0        8.856779    1.786061    0.181616
     28          6           0       10.340366    1.603323    0.685846
     29          6           0       10.247229    0.120792    1.143980
     30          6           0        8.865040   -0.401380    0.737798
     31          6           0       11.457560    1.965093   -0.392269
     32          6           0       10.689926   -0.107803    2.545043
     33          6           0       11.459614   -1.442470    2.861460
     34          7           0        6.034662   -1.354529    0.716194
     35          6           0        7.138569   -2.182779    1.108995
     36          6           0        6.620377   -3.558857    1.293551
     37          6           0        5.280156   -3.512177    1.048910
     38          6           0        4.939730   -2.159547    0.803159
     39          6           0        7.390919   -4.803175    1.502939
     40          6           0        4.135805   -4.299822    0.928181
     41          8           0        4.172411   -5.524149    0.995211
     42          6           0        2.962615   -3.342197    0.813186
     43          6           0        2.218858   -3.906571   -0.418153
     44          8           0        2.525885   -3.744023   -1.572501
     45          8           0        1.017659   -4.434874    0.033691
     46          6           0        0.067664   -4.620837   -1.036519
     47          6           0       -3.447811   -3.329071   -0.671517
     48          6           0       -4.563462   -2.733132   -1.463364
     49          6           0       -5.868282   -3.182956   -1.686097
     50          6           0       -6.370621   -4.554036   -1.395560
     51          6           0       -6.803328   -2.281377   -2.484855
     52          6           0       -7.878039   -1.714963   -1.574373
     53          6           0       -8.248408   -0.241186   -1.938512
     54          6           0       -9.730232   -0.134478   -2.402414
     55          6           0       -9.915024    0.497005   -3.725101
     56          6           0      -10.622439    0.592323   -1.343193
     57          6           0      -12.140643    0.169789   -1.332613
     58          6           0      -13.076892    1.229233   -0.617779
     59          6           0      -14.069852    0.487216    0.271458
     60          6           0      -15.304477   -0.133116   -0.539262
     61          6           0      -14.631209    1.514560    1.268660
     62          6           0      -13.829393    1.616947    2.509173
     63          6           0      -13.657442    2.989878    3.037248
     64          6           0      -12.243467    3.242843    3.760806
     65          6           0      -12.402929    4.061008    5.112265
     66          6           0      -11.172159    3.898632    2.944421
     67          1           0        2.870504    3.210274   -1.727709
     68          1           0        9.082846    3.835302    0.013016
     69          1           0        9.095177   -2.370507    1.730155
     70          1           0        1.275076   -1.291507   -1.100513
     71          1           0        0.986026    1.563098   -0.560681
     72          1           0        0.923007   -0.299042   -2.877911
     73          1           0        2.020679    1.133858   -3.014895
     74          1           0        0.300779    1.459544   -2.769229
     75          1           0        0.538107    0.504949    1.334044
     76          1           0        0.763427   -1.285352    1.398853
     77          1           0       -1.129206   -0.059646   -0.583502
     78          1           0       -1.600064    0.090924    1.061623
     79          1           0        4.189873    6.384892   -0.850578
     80          1           0        3.263218    5.193827   -1.784774
     81          1           0        4.419084    6.197406   -2.585085
     82          1           0        7.763948    7.895990   -1.663338
     83          1           0        6.118538    7.470231   -1.160224
     84          1           0        6.855607    6.851325   -2.763585
     85          1           0       10.376989    2.265330    1.550665
     86          1           0       10.799955   -0.434855    0.386764
     87          1           0       12.073393    2.739716    0.064199
     88          1           0       10.980735    2.419142   -1.261114
     89          1           0       12.068620    1.071282   -0.520902
     90          1           0        9.700861   -0.081291    3.002875
     91          1           0       11.281983    0.750043    2.863230
     92          1           0       12.535285   -1.266582    2.859580
     93          1           0       11.169416   -2.269974    2.213843
     94          1           0       11.164737   -1.777797    3.856125
     95          1           0        7.611771   -5.302870    0.559305
     96          1           0        6.838134   -5.422795    2.209220
     97          1           0        8.343423   -4.591819    1.987635
     98          1           0        2.380025   -3.370254    1.734700
     99          1           0       -0.784110   -5.106962   -0.561596
    100          1           0        0.499326   -5.266186   -1.801610
    101          1           0       -0.312655   -3.662332   -1.390404
    102          1           0       -3.815368   -3.623823    0.312140
    103          1           0       -3.027330   -4.114740   -1.298237
    104          1           0       -4.346182   -1.762463   -1.907950
    105          1           0       -6.190575   -4.919424   -0.384578
    106          1           0       -5.866923   -5.245273   -2.069942
    107          1           0       -7.440750   -4.706183   -1.536353
    108          1           0       -7.281792   -2.955569   -3.195971
    109          1           0       -6.279490   -1.518622   -3.061983
    110          1           0       -7.346325   -1.694665   -0.623631
    111          1           0       -8.745709   -2.370012   -1.497166
    112          1           0       -7.619994    0.147469   -2.740026
    113          1           0       -8.104640    0.481420   -1.135699
    114          1           0      -10.137724   -1.139864   -2.510000
    115          1           0       -9.027419    0.950018   -4.167212
    116          1           0      -10.647665    1.301433   -3.669255
    117          1           0      -10.322298   -0.260116   -4.394796
    118          1           0      -10.663034    1.667465   -1.514726
    119          1           0      -10.311081    0.463816   -0.306162
    120          1           0      -12.312266   -0.830748   -0.935570
    121          1           0      -12.431585    0.024287   -2.372987
    122          1           0      -13.534282    1.918794   -1.327961
    123          1           0      -12.430025    1.792504    0.055789
    124          1           0      -13.592008   -0.241909    0.925869
    125          1           0      -16.266187    0.094145   -0.078041
    126          1           0      -15.091068   -1.199029   -0.613262
    127          1           0      -15.312935    0.237869   -1.564229
    128          1           0      -15.597549    1.083848    1.531648
    129          1           0      -14.701242    2.514410    0.840444
    130          1           0      -12.819439    1.221790    2.407720
    131          1           0      -14.200818    0.995382    3.324443
    132          1           0      -14.440761    3.211893    3.761427
    133          1           0      -13.560183    3.697408    2.214398
    134          1           0      -11.875750    2.278739    4.111405
    135          1           0      -12.878639    3.419089    5.853379
    136          1           0      -12.985968    4.964627    4.934696
    137          1           0      -11.392983    4.226077    5.486852
    138          1           0      -10.934430    4.845399    3.427835
    139          1           0      -11.459428    4.098199    1.910891
    140          1           0      -10.295957    3.262823    3.067057
 ---------------------------------------------------------------------

 SCF Done:  E(RPBE1PBE) =  -3005.34279889     A.U. after   16 cycles

 Excitation energies and oscillator strengths:

 Excited State   1:      Singlet-A      1.8277 eV  678.37 nm  f=0.3446  <S**2>=0.000
     245 -> 248       -0.17914
     246 -> 247        0.69210
     246 <- 247       -0.10693
 This state for optimization and/or second-order correction.
 Total Energy, E(TD-HF/TD-DFT) =  -3005.27563346
 Copying the excited state density for this state as the 1-particle RhoCI density.

 Excited State   2:      Singlet-A      2.1817 eV  568.28 nm  f=0.1225  <S**2>=0.000
     245 -> 247        0.65565
     246 -> 248        0.25703

 Excited State   3:      Singlet-A      2.9045 eV  426.88 nm  f=0.0003  <S**2>=0.000
     240 -> 247        0.13232
     241 -> 247        0.64508
     241 -> 249       -0.16999
     242 -> 247        0.13658

 Excited State   4:      Singlet-A      2.9904 eV  414.61 nm  f=0.0011  <S**2>=0.000
     243 -> 247        0.67343
     243 -> 249        0.10895

 Excited State   5:      Singlet-A      3.0827 eV  402.19 nm  f=0.0025  <S**2>=0.000
     240 -> 247       -0.19116
     241 -> 247       -0.10253
     242 -> 247        0.65846

 The electronic state is 1-A.
 Alpha  occ. eigenvalues --  -46.92265 -19.26479 -19.25089 -19.20874 -19.19660
 Alpha  occ. eigenvalues --  -19.18884 -19.18309 -14.41656 -14.41477 -14.39325
 Alpha  occ. eigenvalues --  -14.39237 -10.37116 -10.36558 -10.31729 -10.31138
 Alpha  occ. eigenvalues --  -10.30718 -10.29313 -10.29252 -10.28897 -10.28129
 Alpha  occ. eigenvalues --  -10.28113 -10.28029 -10.27995 -10.27444 -10.26992
 Alpha  occ. eigenvalues --  -10.26219 -10.26134 -10.26021 -10.25994 -10.25676
 Alpha  occ. eigenvalues --  -10.25617 -10.25613 -10.25513 -10.25505 -10.25260
 Alpha  occ. eigenvalues --  -10.25237 -10.25075 -10.24392 -10.24294 -10.24265
 Alpha  occ. eigenvalues --  -10.23968 -10.23747 -10.23615 -10.23469 -10.23455
 Alpha  occ. eigenvalues --  -10.23446 -10.23331 -10.23225 -10.23143 -10.23106
 Alpha  occ. eigenvalues --  -10.23029 -10.22991 -10.22952 -10.22897 -10.22706
 Alpha  occ. eigenvalues --  -10.22704 -10.22524 -10.22408 -10.22043 -10.21898
 Alpha  occ. eigenvalues --  -10.21879 -10.21648 -10.21578 -10.21419 -10.21237
 Alpha  occ. eigenvalues --  -10.21204  -3.14317  -1.87168  -1.86694  -1.86537
 Alpha  occ. eigenvalues --   -1.11233  -1.10475  -1.04410  -1.03453  -1.03383
 Alpha  occ. eigenvalues --   -1.00552  -0.98647  -0.97742  -0.97193  -0.96402
 Alpha  occ. eigenvalues --   -0.87239  -0.85064  -0.84802  -0.84441  -0.83683
 Alpha  occ. eigenvalues --   -0.83099  -0.82356  -0.81670  -0.81620  -0.80975
 Alpha  occ. eigenvalues --   -0.80740  -0.80077  -0.78895  -0.78029  -0.77607
 Alpha  occ. eigenvalues --   -0.77240  -0.76370  -0.75867  -0.75236  -0.74587
 Alpha  occ. eigenvalues --   -0.74315  -0.72735  -0.72362  -0.71411  -0.70453
 Alpha  occ. eigenvalues --   -0.70264  -0.69351  -0.69169  -0.68807  -0.68336
 Alpha  occ. eigenvalues --   -0.67430  -0.67075  -0.65839  -0.65082  -0.64077
 Alpha  occ. eigenvalues --   -0.63105  -0.62155  -0.61305  -0.60597  -0.60100
 Alpha  occ. eigenvalues --   -0.59726  -0.59400  -0.59322  -0.58870  -0.58209
 Alpha  occ. eigenvalues --   -0.58133  -0.57697  -0.56394  -0.56126  -0.54743
 Alpha  occ. eigenvalues --   -0.54424  -0.54219  -0.53758  -0.53265  -0.52668
 Alpha  occ. eigenvalues --   -0.51945  -0.51829  -0.50617  -0.50491  -0.50001
 Alpha  occ. eigenvalues --   -0.49609  -0.49320  -0.49066  -0.48785  -0.48732
 Alpha  occ. eigenvalues --   -0.48356  -0.48204  -0.47927  -0.47701  -0.47488
 Alpha  occ. eigenvalues --   -0.47298  -0.47244  -0.47046  -0.46431  -0.46130
 Alpha  occ. eigenvalues --   -0.46015  -0.45706  -0.45641  -0.45387  -0.45131
 Alpha  occ. eigenvalues --   -0.44950  -0.44899  -0.44791  -0.44694  -0.44337
 Alpha  occ. eigenvalues --   -0.44095  -0.43887  -0.43782  -0.43759  -0.43463
 Alpha  occ. eigenvalues --   -0.43381  -0.43250  -0.43038  -0.42750  -0.42616
 Alpha  occ. eigenvalues --   -0.42469  -0.42016  -0.41757  -0.41602  -0.41369
 Alpha  occ. eigenvalues --   -0.41207  -0.41057  -0.40850  -0.40767  -0.40558
 Alpha  occ. eigenvalues --   -0.40505  -0.40403  -0.40100  -0.39884  -0.39682
 Alpha  occ. eigenvalues --   -0.39525  -0.39363  -0.39106  -0.38804  -0.38596
 Alpha  occ. eigenvalues --   -0.38506  -0.38154  -0.38087  -0.37902  -0.37661
 Alpha  occ. eigenvalues --   -0.37613  -0.37367  -0.37154  -0.37123  -0.36911
 Alpha  occ. eigenvalues --   -0.36624  -0.36473  -0.36244  -0.36063  -0.36022
 Alpha  occ. eigenvalues --   -0.35575  -0.35514  -0.35399  -0.35371  -0.35164
 Alpha  occ. eigenvalues --   -0.34802  -0.34172  -0.34149  -0.33861  -0.33488
 Alpha  occ. eigenvalues --   -0.33234  -0.33139  -0.32816  -0.32726  -0.32189
 Alpha  occ. eigenvalues --   -0.31857  -0.31771  -0.31727  -0.31309  -0.31059
 Alpha  occ. eigenvalues --   -0.30772  -0.30706  -0.29765  -0.29712  -0.29355
 Alpha  occ. eigenvalues --   -0.28964  -0.28482  -0.28383  -0.26877  -0.25863
 Alpha  occ. eigenvalues --   -0.25560  -0.25446  -0.25203  -0.24461  -0.20853
 Alpha  occ. eigenvalues --   -0.18814
 Alpha virt. eigenvalues --   -0.11269  -0.05201  -0.03840  -0.02017  -0.00384
 Alpha virt. eigenvalues --    0.00214   0.00484   0.00724   0.01435   0.03102
 Alpha virt. eigenvalues --    0.03940   0.04768   0.05281   0.05651   0.05683

 Mulliken charges:
               1
     1  Mg   0.964058
     2  C   -0.021041
     3  C   -0.051203
     4  C   -0.038703
     5  C   -0.098409
     6  N   -0.354027
     7  C    0.021317
     8  C   -0.081398
     9  C   -0.180298
    10  C    0.081992
    11  C    0.025153
    12  C    0.033669
    13  C    0.002419
    14  C    0.227907
    15  O   -0.301304
    16  O   -0.381578
    17  N   -0.541928
    18  C    0.165280
    19  C   -0.186488
    20  C   -0.086067
    21  C    0.186337
    22  C    0.042373
    23  C    0.040033
    24  O   -0.271322
    25  C   -0.000254
    26  N   -0.390518
    27  C    0.022891
    28  C   -0.145469
    29  C   -0.089302
    30  C    0.116714
    31  C    0.031052
    32  C   -0.017755
    33  C   -0.065173
    34  N   -0.485857
    35  C    0.135228
    36  C   -0.209159
    37  C    0.045141
    38  C    0.147203
    39  C    0.078161
    40  C    0.072160
    41  O   -0.226198
    42  C   -0.093727
    43  C    0.285906
    44  O   -0.235721
    45  O   -0.361224
    46  C    0.112484
    47  C    0.275602
    48  C   -0.186082
    49  C   -0.237002
    50  C    0.013542
    51  C    0.023316
    52  C   -0.045932
    53  C    0.036582
    54  C   -0.225995
    55  C    0.012180
    56  C   -0.038322
    57  C   -0.047463
    58  C    0.003603
    59  C   -0.265717
    60  C   -0.001868
    61  C    0.035039
    62  C   -0.051932
    63  C    0.013806
    64  C   -0.294646
    65  C   -0.045217
    66  C    0.012453
    67  H    0.007154
    68  H    0.029924
    69  H    0.006102
    70  H    0.062855
    71  H    0.041887
    72  H    0.059885
    73  H    0.042986
    74  H    0.046370
    75  H    0.041253
    76  H    0.059932
    77  H    0.043372
    78  H    0.069917
    79  H    0.057993
    80  H    0.024980
    81  H    0.059583
    82  H    0.053560
    83  H    0.054057
    84  H    0.073738
    85  H    0.052525
    86  H    0.040417
    87  H    0.042186
    88  H    0.069072
    89  H    0.047186
    90  H    0.044361
    91  H    0.046207
    92  H    0.050811
    93  H    0.049921
    94  H    0.042151
    95  H    0.075921
    96  H    0.063659
    97  H    0.018733
    98  H    0.098955
    99  H    0.054667
   100  H    0.067178
   101  H    0.052875
   102  H    0.093945
   103  H    0.064783
   104  H    0.040867
   105  H    0.045438
   106  H    0.060959
   107  H    0.036084
   108  H    0.025503
   109  H    0.033017
   110  H    0.036774
   111  H    0.042812
   112  H    0.013998
   113  H    0.027408
   114  H    0.032610
   115  H    0.030359
   116  H    0.027240
   117  H    0.032273
   118  H    0.030179
   119  H    0.029580
   120  H    0.024456
   121  H    0.013102
   122  H    0.037569
   123  H    0.028869
   124  H    0.037810
   125  H    0.041537
   126  H    0.037108
   127  H    0.031302
   128  H    0.017104
   129  H    0.025369
   130  H    0.020355
   131  H    0.022815
   132  H    0.029004
   133  H    0.018652
   134  H    0.030860
   135  H    0.031851
   136  H    0.048453
   137  H    0.034272
   138  H    0.028078
   139  H    0.037881
   140  H    0.038057
 Sum of Mulliken charges =  -0.00000

 Dipole moment (field-independent basis, Debye):
    X=             -3.4021    Y=              3.3015    Z=              0.2709  Tot=              4.7484
 Quadrupole moment (field-independent basis, Debye-Ang):
   XX=           -379.4351   YY=           -417.8462   ZZ=           -405.5387
   XY=              7.7795   XZ=             29.6288   YZ=              4.6157

 Normal termination of Gaussian 16 at Thu Apr 28 06:05:56 2022.
