 Gaussian 16, Revision A.03,
 Gaussian 16:  ES64L-G16RevA.03 25-Dec-2016

 --------------------------------
 #p wB97XD/Def2SVP td=(nstates=5)
 --------------------------------

 ----------------------------------------------------
 step_1451_chromophore_7 TDDFT with wB97XD functional
 ----------------------------------------------------
 Symbolic Z-matrix:
 Charge =  0 Multiplicity = 1

                         Standard orientation:
 ---------------------------------------------------------------------
 Center     Atomic      Atomic             Coordinates (Angstroms)
 Number     Number       Type             X           Y           Z
 ---------------------------------------------------------------------
      1         12           0        5.945496    0.686400    0.210557
      2          6           0        3.511401   -1.954753    0.612421
      3          6           0        3.541449    2.551186   -1.172497
      4          6           0        8.355364    3.034762   -0.138097
      5          6           0        8.440705   -1.688810    1.183396
      6          7           0        3.678007    0.318330   -0.103698
      7          6           0        2.914976   -0.760609    0.132609
      8          6           0        1.472792   -0.510561   -0.365457
      9          6           0        1.570566    0.807905   -1.085864
     10          6           0        3.070455    1.260971   -0.884046
     11          6           0        1.098025    0.737847   -2.590573
     12          6           0        0.461007   -0.435192    0.788055
     13          6           0       -0.993568   -0.520692    0.393795
     14          6           0       -1.761779   -1.878888    0.410660
     15          8           0       -1.794707   -2.707513    1.354413
     16          8           0       -2.476630   -2.141850   -0.720570
     17          7           0        5.951007    2.583473   -0.441090
     18          6           0        4.815823    3.206481   -0.878187
     19          6           0        5.194662    4.578452   -1.149989
     20          6           0        6.618183    4.686355   -1.005924
     21          6           0        7.056799    3.379101   -0.523273
     22          6           0        4.242440    5.653151   -1.657153
     23          6           0        7.553948    5.853169   -1.280007
     24          8           0        8.790400    5.739562   -1.300874
     25          6           0        6.990750    7.130088   -1.718512
     26          7           0        8.122410    0.623543    0.171323
     27          6           0        8.856779    1.786061    0.181616
     28          6           0       10.340366    1.603323    0.685846
     29          6           0       10.247229    0.120792    1.143980
     30          6           0        8.865040   -0.401380    0.737798
     31          6           0       11.457560    1.965093   -0.392269
     32          6           0       10.689926   -0.107803    2.545043
     33          6           0       11.459614   -1.442470    2.861460
     34          7           0        6.034662   -1.354529    0.716194
     35          6           0        7.138569   -2.182779    1.108995
     36          6           0        6.620377   -3.558857    1.293551
     37          6           0        5.280156   -3.512177    1.048910
     38          6           0        4.939730   -2.159547    0.803159
     39          6           0        7.390919   -4.803175    1.502939
     40          6           0        4.135805   -4.299822    0.928181
     41          8           0        4.172411   -5.524149    0.995211
     42          6           0        2.962615   -3.342197    0.813186
     43          6           0        2.218858   -3.906571   -0.418153
     44          8           0        2.525885   -3.744023   -1.572501
     45          8           0        1.017659   -4.434874    0.033691
     46          6           0        0.067664   -4.620837   -1.036519
     47          6           0       -3.447811   -3.329071   -0.671517
     48          6           0       -4.563462   -2.733132   -1.463364
     49          6           0       -5.868282   -3.182956   -1.686097
     50          6           0       -6.370621   -4.554036   -1.395560
     51          6           0       -6.803328   -2.281377   -2.484855
     52          6           0       -7.878039   -1.714963   -1.574373
     53          6           0       -8.248408   -0.241186   -1.938512
     54          6           0       -9.730232   -0.134478   -2.402414
     55          6           0       -9.915024    0.497005   -3.725101
     56          6           0      -10.622439    0.592323   -1.343193
     57          6           0      -12.140643    0.169789   -1.332613
     58          6           0      -13.076892    1.229233   -0.617779
     59          6           0      -14.069852    0.487216    0.271458
     60          6           0      -15.304477   -0.133116   -0.539262
     61          6           0      -14.631209    1.514560    1.268660
     62          6           0      -13.829393    1.616947    2.509173
     63          6           0      -13.657442    2.989878    3.037248
     64          6           0      -12.243467    3.242843    3.760806
     65          6           0      -12.402929    4.061008    5.112265
     66          6           0      -11.172159    3.898632    2.944421
     67          1           0        2.870504    3.210274   -1.727709
     68          1           0        9.082846    3.835302    0.013016
     69          1           0        9.095177   -2.370507    1.730155
     70          1           0        1.275076   -1.291507   -1.100513
     71          1           0        0.986026    1.563098   -0.560681
     72          1           0        0.923007   -0.299042   -2.877911
     73          1           0        2.020679    1.133858   -3.014895
     74          1           0        0.300779    1.459544   -2.769229
     75          1           0        0.538107    0.504949    1.334044
     76          1           0        0.763427   -1.285352    1.398853
     77          1           0       -1.129206   -0.059646   -0.583502
     78          1           0       -1.600064    0.090924    1.061623
     79          1           0        4.189873    6.384892   -0.850578
     80          1           0        3.263218    5.193827   -1.784774
     81          1           0        4.419084    6.197406   -2.585085
     82          1           0        7.763948    7.895990   -1.663338
     83          1           0        6.118538    7.470231   -1.160224
     84          1           0        6.855607    6.851325   -2.763585
     85          1           0       10.376989    2.265330    1.550665
     86          1           0       10.799955   -0.434855    0.386764
     87          1           0       12.073393    2.739716    0.064199
     88          1           0       10.980735    2.419142   -1.261114
     89          1           0       12.068620    1.071282   -0.520902
     90          1           0        9.700861   -0.081291    3.002875
     91          1           0       11.281983    0.750043    2.863230
     92          1           0       12.535285   -1.266582    2.859580
     93          1           0       11.169416   -2.269974    2.213843
     94          1           0       11.164737   -1.777797    3.856125
     95          1           0        7.611771   -5.302870    0.559305
     96          1           0        6.838134   -5.422795    2.209220
     97          1           0        8.343423   -4.591819    1.987635
     98          1           0        2.380025   -3.370254    1.734700
     99          1           0       -0.784110   -5.106962   -0.561596
    100          1           0        0.499326   -5.266186   -1.801610
    101          1           0       -0.312655   -3.662332   -1.390404
    102          1           0       -3.815368   -3.623823    0.312140
    103          1           0       -3.027330   -4.114740   -1.298237
    104          1           0       -4.346182   -1.762463   -1.907950
    105          1           0       -6.190575   -4.919424   -0.384578
    106          1           0       -5.866923   -5.245273   -2.069942
    107          1           0       -7.440750   -4.706183   -1.536353
    108          1           0       -7.281792   -2.955569   -3.195971
    109          1           0       -6.279490   -1.518622   -3.061983
    110          1           0       -7.346325   -1.694665   -0.623631
    111          1           0       -8.745709   -2.370012   -1.497166
    112          1           0       -7.619994    0.147469   -2.740026
    113          1           0       -8.104640    0.481420   -1.135699
    114          1           0      -10.137724   -1.139864   -2.510000
    115          1           0       -9.027419    0.950018   -4.167212
    116          1           0      -10.647665    1.301433   -3.669255
    117          1           0      -10.322298   -0.260116   -4.394796
    118          1           0      -10.663034    1.667465   -1.514726
    119          1           0      -10.311081    0.463816   -0.306162
    120          1           0      -12.312266   -0.830748   -0.935570
    121          1           0      -12.431585    0.024287   -2.372987
    122          1           0      -13.534282    1.918794   -1.327961
    123          1           0      -12.430025    1.792504    0.055789
    124          1           0      -13.592008   -0.241909    0.925869
    125          1           0      -16.266187    0.094145   -0.078041
    126          1           0      -15.091068   -1.199029   -0.613262
    127          1           0      -15.312935    0.237869   -1.564229
    128          1           0      -15.597549    1.083848    1.531648
    129          1           0      -14.701242    2.514410    0.840444
    130          1           0      -12.819439    1.221790    2.407720
    131          1           0      -14.200818    0.995382    3.324443
    132          1           0      -14.440761    3.211893    3.761427
    133          1           0      -13.560183    3.697408    2.214398
    134          1           0      -11.875750    2.278739    4.111405
    135          1           0      -12.878639    3.419089    5.853379
    136          1           0      -12.985968    4.964627    4.934696
    137          1           0      -11.392983    4.226077    5.486852
    138          1           0      -10.934430    4.845399    3.427835
    139          1           0      -11.459428    4.098199    1.910891
    140          1           0      -10.295957    3.262823    3.067057
 ---------------------------------------------------------------------

 SCF Done:  E(RwB97XD) =  -3007.85044660     A.U. after   19 cycles

 Excitation energies and oscillator strengths:

 Excited State   1:      Singlet-A      1.6209 eV  764.90 nm  f=0.3571  <S**2>=0.000
     245 -> 248       -0.18922
     246 -> 247        0.68329
     245 <- 248       -0.12093
 This state for optimization and/or second-order correction.
 Total Energy, E(TD-HF/TD-DFT) =  -3007.79087902
 Copying the excited state density for this state as the 1-particle RhoCI density.

 Excited State   2:      Singlet-A      2.1203 eV  584.75 nm  f=0.1197  <S**2>=0.000
     245 -> 247        0.64243
     246 -> 248        0.28508

 Excited State   3:      Singlet-A      3.3675 eV  368.18 nm  f=0.0006  <S**2>=0.000
     240 -> 247        0.50840
     240 -> 249       -0.31459
     240 -> 250        0.15919
     241 -> 247       -0.27124
     243 -> 247        0.12099

 Excited State   4:      Singlet-A      3.4161 eV  362.94 nm  f=0.0227  <S**2>=0.000
     240 -> 247        0.25846
     240 -> 249       -0.11301
     241 -> 247        0.45619
     243 -> 247       -0.39551
     246 -> 248       -0.14851

 Excited State   5:      Singlet-A      3.5069 eV  353.55 nm  f=0.3603  <S**2>=0.000
     241 -> 247       -0.17374
     243 -> 247       -0.39023
     245 -> 247       -0.19427
     246 -> 248        0.51032

 The electronic state is 1-A.
 Alpha  occ. eigenvalues --  -46.95194 -19.31016 -19.29752 -19.25694 -19.24326
 Alpha  occ. eigenvalues --  -19.23989 -19.22866 -14.46805 -14.46472 -14.44396
 Alpha  occ. eigenvalues --  -14.44017 -10.43905 -10.43480 -10.38337 -10.38249
 Alpha  occ. eigenvalues --  -10.37239 -10.35808 -10.35739 -10.35015 -10.34786
 Alpha  occ. eigenvalues --  -10.34619 -10.34104 -10.34078 -10.33614 -10.33474
 Alpha  occ. eigenvalues --  -10.32680 -10.32572 -10.32522 -10.32452 -10.32102
 Alpha  occ. eigenvalues --  -10.31921 -10.31867 -10.31681 -10.31667 -10.31666
 Alpha  occ. eigenvalues --  -10.31651 -10.31613 -10.30656 -10.30575 -10.30350
 Alpha  occ. eigenvalues --  -10.30304 -10.30219 -10.29937 -10.29918 -10.29838
 Alpha  occ. eigenvalues --  -10.29812 -10.29776 -10.29634 -10.29532 -10.29492
 Alpha  occ. eigenvalues --  -10.29362 -10.29283 -10.29274 -10.29269 -10.29079
 Alpha  occ. eigenvalues --  -10.29056 -10.28890 -10.28786 -10.28467 -10.28299
 Alpha  occ. eigenvalues --  -10.28295 -10.28259 -10.27992 -10.27852 -10.27599
 Alpha  occ. eigenvalues --  -10.27584  -3.21113  -1.94713  -1.94239  -1.94075
 Alpha  occ. eigenvalues --   -1.18733  -1.17860  -1.12162  -1.10919  -1.10647
 Alpha  occ. eigenvalues --   -1.07915  -1.06027  -1.05008  -1.04639  -1.03850
 Alpha  occ. eigenvalues --   -0.95037  -0.92729  -0.92459  -0.92099  -0.91295
 Alpha  occ. eigenvalues --   -0.90764  -0.89920  -0.89387  -0.89281  -0.88630
 Alpha  occ. eigenvalues --   -0.88235  -0.87710  -0.86537  -0.85677  -0.85263
 Alpha  occ. eigenvalues --   -0.84858  -0.83934  -0.83526  -0.82976  -0.82189
 Alpha  occ. eigenvalues --   -0.81983  -0.80446  -0.79888  -0.79002  -0.78148
 Alpha  occ. eigenvalues --   -0.77950  -0.76913  -0.76859  -0.76496  -0.75997
 Alpha  occ. eigenvalues --   -0.75046  -0.74713  -0.73365  -0.72701  -0.71710
 Alpha  occ. eigenvalues --   -0.70672  -0.69797  -0.68744  -0.68199  -0.67589
 Alpha  occ. eigenvalues --   -0.67268  -0.66972  -0.66806  -0.66358  -0.65900
 Alpha  occ. eigenvalues --   -0.65615  -0.65361  -0.63918  -0.63753  -0.62265
 Alpha  occ. eigenvalues --   -0.61841  -0.61658  -0.61168  -0.60798  -0.60211
 Alpha  occ. eigenvalues --   -0.59485  -0.59249  -0.58031  -0.57973  -0.57408
 Alpha  occ. eigenvalues --   -0.56990  -0.56700  -0.56556  -0.56223  -0.56179
 Alpha  occ. eigenvalues --   -0.55742  -0.55581  -0.55302  -0.55069  -0.54874
 Alpha  occ. eigenvalues --   -0.54650  -0.54630  -0.54426  -0.53788  -0.53630
 Alpha  occ. eigenvalues --   -0.53380  -0.53131  -0.53021  -0.52640  -0.52455
 Alpha  occ. eigenvalues --   -0.52292  -0.52249  -0.52200  -0.52059  -0.51632
 Alpha  occ. eigenvalues --   -0.51377  -0.51203  -0.51136  -0.50964  -0.50737
 Alpha  occ. eigenvalues --   -0.50677  -0.50534  -0.50318  -0.50037  -0.49841
 Alpha  occ. eigenvalues --   -0.49715  -0.49230  -0.48963  -0.48821  -0.48657
 Alpha  occ. eigenvalues --   -0.48476  -0.48283  -0.48110  -0.47997  -0.47726
 Alpha  occ. eigenvalues --   -0.47669  -0.47637  -0.47413  -0.47114  -0.46861
 Alpha  occ. eigenvalues --   -0.46815  -0.46586  -0.46346  -0.45952  -0.45758
 Alpha  occ. eigenvalues --   -0.45659  -0.45303  -0.45216  -0.45055  -0.44909
 Alpha  occ. eigenvalues --   -0.44771  -0.44299  -0.44270  -0.44254  -0.43893
 Alpha  occ. eigenvalues --   -0.43738  -0.43596  -0.43419  -0.43144  -0.43079
 Alpha  occ. eigenvalues --   -0.42619  -0.42543  -0.42497  -0.42452  -0.42107
 Alpha  occ. eigenvalues --   -0.41851  -0.41207  -0.41177  -0.40923  -0.40427
 Alpha  occ. eigenvalues --   -0.40311  -0.40048  -0.39920  -0.39667  -0.39264
 Alpha  occ. eigenvalues --   -0.38970  -0.38824  -0.38710  -0.38388  -0.38092
 Alpha  occ. eigenvalues --   -0.37768  -0.37620  -0.36889  -0.36612  -0.36158
 Alpha  occ. eigenvalues --   -0.35805  -0.35533  -0.35137  -0.33490  -0.32991
 Alpha  occ. eigenvalues --   -0.32573  -0.32200  -0.31718  -0.31197  -0.25831
 Alpha  occ. eigenvalues --   -0.22985
 Alpha virt. eigenvalues --   -0.07154   0.00192   0.02425   0.04553   0.06105
 Alpha virt. eigenvalues --    0.06407   0.07206   0.07405   0.08233   0.09358
 Alpha virt. eigenvalues --    0.10452   0.11671   0.12121   0.12355   0.12418

 Mulliken charges:
               1
     1  Mg   0.954808
     2  C   -0.033366
     3  C   -0.065040
     4  C   -0.054289
     5  C   -0.108130
     6  N   -0.320289
     7  C   -0.007149
     8  C   -0.049620
     9  C   -0.160248
    10  C    0.069407
    11  C    0.038613
    12  C    0.048432
    13  C    0.019589
    14  C    0.211203
    15  O   -0.297517
    16  O   -0.378970
    17  N   -0.507268
    18  C    0.149898
    19  C   -0.175768
    20  C   -0.081658
    21  C    0.172992
    22  C    0.054894
    23  C    0.038562
    24  O   -0.267817
    25  C    0.010158
    26  N   -0.357976
    27  C    0.008659
    28  C   -0.122919
    29  C   -0.064803
    30  C    0.106037
    31  C    0.043124
    32  C    0.002220
    33  C   -0.049860
    34  N   -0.454104
    35  C    0.131229
    36  C   -0.203083
    37  C    0.052207
    38  C    0.134295
    39  C    0.087613
    40  C    0.053544
    41  O   -0.213310
    42  C   -0.053405
    43  C    0.262878
    44  O   -0.229940
    45  O   -0.359269
    46  C    0.131590
    47  C    0.288746
    48  C   -0.197255
    49  C   -0.215171
    50  C    0.022286
    51  C    0.038719
    52  C   -0.026917
    53  C    0.049429
    54  C   -0.194533
    55  C    0.020385
    56  C   -0.016579
    57  C   -0.035627
    58  C    0.021341
    59  C   -0.233839
    60  C    0.009305
    61  C    0.054523
    62  C   -0.036059
    63  C    0.029276
    64  C   -0.266946
    65  C   -0.028802
    66  C    0.023118
    67  H   -0.000866
    68  H    0.025644
    69  H   -0.007765
    70  H    0.043252
    71  H    0.030285
    72  H    0.055104
    73  H    0.034592
    74  H    0.041653
    75  H    0.035950
    76  H    0.048081
    77  H    0.035762
    78  H    0.065522
    79  H    0.050393
    80  H    0.018401
    81  H    0.053904
    82  H    0.051661
    83  H    0.048956
    84  H    0.067328
    85  H    0.041342
    86  H    0.025577
    87  H    0.036572
    88  H    0.063983
    89  H    0.040712
    90  H    0.032621
    91  H    0.039705
    92  H    0.046606
    93  H    0.043257
    94  H    0.036698
    95  H    0.073534
    96  H    0.060628
    97  H    0.014545
    98  H    0.094837
    99  H    0.051165
   100  H    0.064330
   101  H    0.042965
   102  H    0.090408
   103  H    0.059309
   104  H    0.036440
   105  H    0.040641
   106  H    0.055555
   107  H    0.031657
   108  H    0.016747
   109  H    0.025953
   110  H    0.025495
   111  H    0.034868
   112  H    0.003371
   113  H    0.020505
   114  H    0.017830
   115  H    0.025328
   116  H    0.020047
   117  H    0.027449
   118  H    0.018816
   119  H    0.019613
   120  H    0.015394
   121  H    0.002849
   122  H    0.031085
   123  H    0.012093
   124  H    0.025332
   125  H    0.036128
   126  H    0.031249
   127  H    0.025033
   128  H    0.007446
   129  H    0.015127
   130  H    0.006134
   131  H    0.016025
   132  H    0.021961
   133  H    0.005485
   134  H    0.018525
   135  H    0.025589
   136  H    0.041934
   137  H    0.027315
   138  H    0.021360
   139  H    0.032575
   140  H    0.032846
 Sum of Mulliken charges =  -0.00000

 Dipole moment (field-independent basis, Debye):
    X=             -3.4506    Y=              2.7560    Z=              0.4394  Tot=              4.4379
 Quadrupole moment (field-independent basis, Debye-Ang):
   XX=           -379.5474   YY=           -416.8862   ZZ=           -405.1548
   XY=              4.5745   XZ=             30.7195   YZ=              4.5883

 Normal termination of Gaussian 16 at Thu Apr 28 06:29:30 2022.
