 Gaussian 16, Revision A.03,
 Gaussian 16:  ES64L-G16RevA.03 25-Dec-2016

 --------------------
 #p ZINDO=(nstates=5)
 --------------------

 -----------------------------
 step_1451_chromophore_7 ZINDO
 -----------------------------
 Symbolic Z-matrix:
 Charge =  0 Multiplicity = 1

                         Standard orientation:
 ---------------------------------------------------------------------
 Center     Atomic      Atomic             Coordinates (Angstroms)
 Number     Number       Type             X           Y           Z
 ---------------------------------------------------------------------
      1         12           0        5.945496    0.686400    0.210557
      2          6           0        3.511401   -1.954753    0.612421
      3          6           0        3.541449    2.551186   -1.172497
      4          6           0        8.355364    3.034762   -0.138097
      5          6           0        8.440705   -1.688810    1.183396
      6          7           0        3.678007    0.318330   -0.103698
      7          6           0        2.914976   -0.760609    0.132609
      8          6           0        1.472792   -0.510561   -0.365457
      9          6           0        1.570566    0.807905   -1.085864
     10          6           0        3.070455    1.260971   -0.884046
     11          6           0        1.098025    0.737847   -2.590573
     12          6           0        0.461007   -0.435192    0.788055
     13          6           0       -0.993568   -0.520692    0.393795
     14          6           0       -1.761779   -1.878888    0.410660
     15          8           0       -1.794707   -2.707513    1.354413
     16          8           0       -2.476630   -2.141850   -0.720570
     17          7           0        5.951007    2.583473   -0.441090
     18          6           0        4.815823    3.206481   -0.878187
     19          6           0        5.194662    4.578452   -1.149989
     20          6           0        6.618183    4.686355   -1.005924
     21          6           0        7.056799    3.379101   -0.523273
     22          6           0        4.242440    5.653151   -1.657153
     23          6           0        7.553948    5.853169   -1.280007
     24          8           0        8.790400    5.739562   -1.300874
     25          6           0        6.990750    7.130088   -1.718512
     26          7           0        8.122410    0.623543    0.171323
     27          6           0        8.856779    1.786061    0.181616
     28          6           0       10.340366    1.603323    0.685846
     29          6           0       10.247229    0.120792    1.143980
     30          6           0        8.865040   -0.401380    0.737798
     31          6           0       11.457560    1.965093   -0.392269
     32          6           0       10.689926   -0.107803    2.545043
     33          6           0       11.459614   -1.442470    2.861460
     34          7           0        6.034662   -1.354529    0.716194
     35          6           0        7.138569   -2.182779    1.108995
     36          6           0        6.620377   -3.558857    1.293551
     37          6           0        5.280156   -3.512177    1.048910
     38          6           0        4.939730   -2.159547    0.803159
     39          6           0        7.390919   -4.803175    1.502939
     40          6           0        4.135805   -4.299822    0.928181
     41          8           0        4.172411   -5.524149    0.995211
     42          6           0        2.962615   -3.342197    0.813186
     43          6           0        2.218858   -3.906571   -0.418153
     44          8           0        2.525885   -3.744023   -1.572501
     45          8           0        1.017659   -4.434874    0.033691
     46          6           0        0.067664   -4.620837   -1.036519
     47          6           0       -3.447811   -3.329071   -0.671517
     48          6           0       -4.563462   -2.733132   -1.463364
     49          6           0       -5.868282   -3.182956   -1.686097
     50          6           0       -6.370621   -4.554036   -1.395560
     51          6           0       -6.803328   -2.281377   -2.484855
     52          6           0       -7.878039   -1.714963   -1.574373
     53          6           0       -8.248408   -0.241186   -1.938512
     54          6           0       -9.730232   -0.134478   -2.402414
     55          6           0       -9.915024    0.497005   -3.725101
     56          6           0      -10.622439    0.592323   -1.343193
     57          6           0      -12.140643    0.169789   -1.332613
     58          6           0      -13.076892    1.229233   -0.617779
     59          6           0      -14.069852    0.487216    0.271458
     60          6           0      -15.304477   -0.133116   -0.539262
     61          6           0      -14.631209    1.514560    1.268660
     62          6           0      -13.829393    1.616947    2.509173
     63          6           0      -13.657442    2.989878    3.037248
     64          6           0      -12.243467    3.242843    3.760806
     65          6           0      -12.402929    4.061008    5.112265
     66          6           0      -11.172159    3.898632    2.944421
     67          1           0        2.870504    3.210274   -1.727709
     68          1           0        9.082846    3.835302    0.013016
     69          1           0        9.095177   -2.370507    1.730155
     70          1           0        1.275076   -1.291507   -1.100513
     71          1           0        0.986026    1.563098   -0.560681
     72          1           0        0.923007   -0.299042   -2.877911
     73          1           0        2.020679    1.133858   -3.014895
     74          1           0        0.300779    1.459544   -2.769229
     75          1           0        0.538107    0.504949    1.334044
     76          1           0        0.763427   -1.285352    1.398853
     77          1           0       -1.129206   -0.059646   -0.583502
     78          1           0       -1.600064    0.090924    1.061623
     79          1           0        4.189873    6.384892   -0.850578
     80          1           0        3.263218    5.193827   -1.784774
     81          1           0        4.419084    6.197406   -2.585085
     82          1           0        7.763948    7.895990   -1.663338
     83          1           0        6.118538    7.470231   -1.160224
     84          1           0        6.855607    6.851325   -2.763585
     85          1           0       10.376989    2.265330    1.550665
     86          1           0       10.799955   -0.434855    0.386764
     87          1           0       12.073393    2.739716    0.064199
     88          1           0       10.980735    2.419142   -1.261114
     89          1           0       12.068620    1.071282   -0.520902
     90          1           0        9.700861   -0.081291    3.002875
     91          1           0       11.281983    0.750043    2.863230
     92          1           0       12.535285   -1.266582    2.859580
     93          1           0       11.169416   -2.269974    2.213843
     94          1           0       11.164737   -1.777797    3.856125
     95          1           0        7.611771   -5.302870    0.559305
     96          1           0        6.838134   -5.422795    2.209220
     97          1           0        8.343423   -4.591819    1.987635
     98          1           0        2.380025   -3.370254    1.734700
     99          1           0       -0.784110   -5.106962   -0.561596
    100          1           0        0.499326   -5.266186   -1.801610
    101          1           0       -0.312655   -3.662332   -1.390404
    102          1           0       -3.815368   -3.623823    0.312140
    103          1           0       -3.027330   -4.114740   -1.298237
    104          1           0       -4.346182   -1.762463   -1.907950
    105          1           0       -6.190575   -4.919424   -0.384578
    106          1           0       -5.866923   -5.245273   -2.069942
    107          1           0       -7.440750   -4.706183   -1.536353
    108          1           0       -7.281792   -2.955569   -3.195971
    109          1           0       -6.279490   -1.518622   -3.061983
    110          1           0       -7.346325   -1.694665   -0.623631
    111          1           0       -8.745709   -2.370012   -1.497166
    112          1           0       -7.619994    0.147469   -2.740026
    113          1           0       -8.104640    0.481420   -1.135699
    114          1           0      -10.137724   -1.139864   -2.510000
    115          1           0       -9.027419    0.950018   -4.167212
    116          1           0      -10.647665    1.301433   -3.669255
    117          1           0      -10.322298   -0.260116   -4.394796
    118          1           0      -10.663034    1.667465   -1.514726
    119          1           0      -10.311081    0.463816   -0.306162
    120          1           0      -12.312266   -0.830748   -0.935570
    121          1           0      -12.431585    0.024287   -2.372987
    122          1           0      -13.534282    1.918794   -1.327961
    123          1           0      -12.430025    1.792504    0.055789
    124          1           0      -13.592008   -0.241909    0.925869
    125          1           0      -16.266187    0.094145   -0.078041
    126          1           0      -15.091068   -1.199029   -0.613262
    127          1           0      -15.312935    0.237869   -1.564229
    128          1           0      -15.597549    1.083848    1.531648
    129          1           0      -14.701242    2.514410    0.840444
    130          1           0      -12.819439    1.221790    2.407720
    131          1           0      -14.200818    0.995382    3.324443
    132          1           0      -14.440761    3.211893    3.761427
    133          1           0      -13.560183    3.697408    2.214398
    134          1           0      -11.875750    2.278739    4.111405
    135          1           0      -12.878639    3.419089    5.853379
    136          1           0      -12.985968    4.964627    4.934696
    137          1           0      -11.392983    4.226077    5.486852
    138          1           0      -10.934430    4.845399    3.427835
    139          1           0      -11.459428    4.098199    1.910891
    140          1           0      -10.295957    3.262823    3.067057
 ---------------------------------------------------------------------

 SCF Done:  E(RZINDO/S) =  -474.295628863     A.U. after   19 cycles

 Excitation energies and oscillator strengths:

 Excited State   1:      Singlet-A      1.2713 eV  975.28 nm  f=0.5355  <S**2>=0.000
     175 ->178         0.18499
     176 ->177         0.66563
 This state for optimization and/or second-order correction.
 Total Energy, E(CIS/TDA) =  -474.248910817
 Copying the excited state density for this state as the 1-particle RhoCI density.

 Excited State   2:      Singlet-A      1.8837 eV  658.19 nm  f=0.0491  <S**2>=0.000
     175 ->177         0.55540
     176 ->178        -0.40728

 Excited State   3:      Singlet-A      2.7641 eV  448.56 nm  f=0.0009  <S**2>=0.000
     168 ->177         0.37256
     168 ->179        -0.42327
     168 ->181         0.11381
     168 ->183        -0.10719
     168 ->186         0.15485
     170 ->177        -0.15841
     170 ->179         0.13566

 Excited State   4:      Singlet-A      2.9514 eV  420.09 nm  f=1.0624  <S**2>=0.000
     175 ->177         0.35905
     176 ->178         0.51298
     176 ->179         0.22728

 Excited State   5:      Singlet-A      3.0486 eV  406.70 nm  f=0.0105  <S**2>=0.000
     169 ->179         0.10460
     169 ->181         0.18424
     169 ->187         0.10248
     171 ->177         0.20017
     171 ->179         0.14878
     171 ->181         0.35017
     171 ->186        -0.14855
     171 ->187         0.15336
     172 ->177         0.10090
     172 ->181         0.10454
     176 ->179         0.28153
     176 ->181         0.11927

 The electronic state is 1-A.
 Alpha  occ. eigenvalues --   -1.83649  -1.80066  -1.79285  -1.73244  -1.71946
 Alpha  occ. eigenvalues --   -1.70007  -1.66603  -1.62310  -1.60310  -1.58161
 Alpha  occ. eigenvalues --   -1.55488  -1.52353  -1.49841  -1.49333  -1.47191
 Alpha  occ. eigenvalues --   -1.44786  -1.42764  -1.39210  -1.39149  -1.37586
 Alpha  occ. eigenvalues --   -1.35649  -1.34228  -1.33356  -1.30823  -1.27833
 Alpha  occ. eigenvalues --   -1.27362  -1.25376  -1.22003  -1.20803  -1.18008
 Alpha  occ. eigenvalues --   -1.17253  -1.15432  -1.14824  -1.14138  -1.12917
 Alpha  occ. eigenvalues --   -1.12510  -1.10728  -1.09621  -1.04462  -1.04224
 Alpha  occ. eigenvalues --   -1.02966  -1.01133  -0.98324  -0.97872  -0.97099
 Alpha  occ. eigenvalues --   -0.96153  -0.94040  -0.93301  -0.92547  -0.92205
 Alpha  occ. eigenvalues --   -0.90955  -0.90542  -0.89123  -0.88557  -0.85540
 Alpha  occ. eigenvalues --   -0.85317  -0.85036  -0.83654  -0.82567  -0.79961
 Alpha  occ. eigenvalues --   -0.79338  -0.79068  -0.77196  -0.76992  -0.76640
 Alpha  occ. eigenvalues --   -0.76553  -0.75984  -0.74572  -0.73835  -0.73540
 Alpha  occ. eigenvalues --   -0.72779  -0.71943  -0.71530  -0.70732  -0.70122
 Alpha  occ. eigenvalues --   -0.70029  -0.69690  -0.68922  -0.68532  -0.67427
 Alpha  occ. eigenvalues --   -0.67045  -0.66721  -0.66329  -0.65943  -0.65681
 Alpha  occ. eigenvalues --   -0.65519  -0.64921  -0.64760  -0.64644  -0.64195
 Alpha  occ. eigenvalues --   -0.63745  -0.62767  -0.62426  -0.62078  -0.61718
 Alpha  occ. eigenvalues --   -0.61472  -0.60712  -0.60413  -0.60169  -0.59964
 Alpha  occ. eigenvalues --   -0.59533  -0.59406  -0.59204  -0.59137  -0.58364
 Alpha  occ. eigenvalues --   -0.58150  -0.57804  -0.57537  -0.56542  -0.56509
 Alpha  occ. eigenvalues --   -0.56259  -0.55808  -0.55130  -0.55020  -0.54628
 Alpha  occ. eigenvalues --   -0.54462  -0.53605  -0.53137  -0.52827  -0.52622
 Alpha  occ. eigenvalues --   -0.52505  -0.52430  -0.52113  -0.51767  -0.51644
 Alpha  occ. eigenvalues --   -0.51066  -0.51061  -0.50801  -0.50587  -0.50201
 Alpha  occ. eigenvalues --   -0.50022  -0.49891  -0.49750  -0.49130  -0.48689
 Alpha  occ. eigenvalues --   -0.48562  -0.48510  -0.48079  -0.48007  -0.47627
 Alpha  occ. eigenvalues --   -0.47372  -0.47296  -0.47208  -0.46612  -0.46408
 Alpha  occ. eigenvalues --   -0.46308  -0.45566  -0.45367  -0.45164  -0.45051
 Alpha  occ. eigenvalues --   -0.44430  -0.44403  -0.44219  -0.43990  -0.43354
 Alpha  occ. eigenvalues --   -0.42880  -0.42700  -0.42486  -0.42118  -0.41974
 Alpha  occ. eigenvalues --   -0.41649  -0.41547  -0.41297  -0.39021  -0.38801
 Alpha  occ. eigenvalues --   -0.38182  -0.36998  -0.35216  -0.34455  -0.33951
 Alpha  occ. eigenvalues --   -0.33737  -0.32183  -0.31574  -0.30967  -0.26337
 Alpha  occ. eigenvalues --   -0.21703
 Alpha virt. eigenvalues --   -0.08309  -0.01985  -0.00687   0.01378   0.01671
 Alpha virt. eigenvalues --    0.02419   0.02741   0.03078   0.04122   0.04778
 Alpha virt. eigenvalues --    0.06324   0.07076   0.07550   0.07712   0.07921

 Mulliken charges:
               1
     1  Mg   0.428998
     2  C   -0.082214
     3  C   -0.072036
     4  C   -0.043150
     5  C   -0.062824
     6  N   -0.295594
     7  C    0.164467
     8  C    0.012800
     9  C   -0.005946
    10  C    0.090659
    11  C   -0.067174
    12  C   -0.009800
    13  C    0.014579
    14  C    0.459342
    15  O   -0.539621
    16  O   -0.271992
    17  N   -0.303583
    18  C    0.074022
    19  C   -0.019311
    20  C   -0.068717
    21  C    0.116970
    22  C   -0.050484
    23  C    0.331928
    24  O   -0.556587
    25  C   -0.030011
    26  N   -0.263750
    27  C    0.095570
    28  C   -0.013464
    29  C    0.008562
    30  C    0.156400
    31  C   -0.052175
    32  C   -0.027800
    33  C   -0.059390
    34  N   -0.344486
    35  C    0.107031
    36  C    0.070613
    37  C   -0.034607
    38  C    0.138203
    39  C   -0.032857
    40  C    0.343458
    41  O   -0.523611
    42  C    0.065532
    43  C    0.486484
    44  O   -0.510128
    45  O   -0.267477
    46  C    0.077129
    47  C    0.112157
    48  C   -0.109472
    49  C   -0.014361
    50  C   -0.035971
    51  C   -0.017611
    52  C   -0.028877
    53  C   -0.037031
    54  C   -0.006453
    55  C   -0.050710
    56  C   -0.038181
    57  C   -0.051796
    58  C   -0.029587
    59  C   -0.018546
    60  C   -0.064997
    61  C   -0.036835
    62  C   -0.028199
    63  C   -0.037421
    64  C   -0.028726
    65  C   -0.063282
    66  C   -0.052667
    67  H    0.025430
    68  H    0.047444
    69  H    0.039532
    70  H    0.044111
    71  H    0.021779
    72  H    0.037053
    73  H    0.027729
    74  H    0.025831
    75  H    0.031588
    76  H    0.027638
    77  H    0.031101
    78  H    0.040994
    79  H    0.024113
    80  H    0.014310
    81  H    0.030630
    82  H    0.032831
    83  H    0.035266
    84  H    0.054432
    85  H    0.032553
    86  H    0.024932
    87  H    0.019494
    88  H    0.042469
    89  H    0.028279
    90  H    0.024673
    91  H    0.025473
    92  H    0.026334
    93  H    0.024129
    94  H    0.015017
    95  H    0.048707
    96  H    0.039808
    97  H    0.013749
    98  H    0.063400
    99  H    0.026657
   100  H    0.051724
   101  H    0.040521
   102  H    0.075783
   103  H    0.056366
   104  H    0.030836
   105  H    0.023781
   106  H    0.028492
   107  H    0.018956
   108  H    0.013476
   109  H    0.027997
   110  H    0.017753
   111  H    0.031959
   112  H    0.018328
   113  H    0.020314
   114  H    0.018448
   115  H    0.018578
   116  H    0.014309
   117  H    0.014045
   118  H    0.018572
   119  H    0.013627
   120  H    0.019769
   121  H    0.009666
   122  H    0.030567
   123  H    0.015049
   124  H    0.030511
   125  H    0.028593
   126  H    0.016790
   127  H    0.018155
   128  H    0.014149
   129  H    0.024288
   130  H    0.012657
   131  H    0.011936
   132  H    0.023347
   133  H    0.021692
   134  H    0.013007
   135  H    0.010811
   136  H    0.026281
   137  H    0.017698
   138  H    0.016183
   139  H    0.022942
   140  H    0.019166
 Sum of Mulliken charges =  -0.00000

 Dipole moment (field-independent basis, Debye):
    X=             -4.3172    Y=              2.2487    Z=              1.6238  Tot=              5.1314
 N-N= 4.229917594479D+03 E-N= 0.000000000000D+00  KE=-9.134446071931D+03
 Leave Link  601 at Thu Apr 28 06:41:13 2022, MaxMem=  6710886400 cpu:               0.8 elap:               0.0
 (Enter /sw/apps/gaussian-16.0/g16/l9999.exe)
 1\1\GINC-BP1-COMPUTE155\SP\RZINDO CIS\STO-3G\C55H74Mg1N4O6\OF15641\28-
 Apr-2022\0\\#p ZINDO=(nstates=5)\\step_1451_chromophore_7 ZINDO\\0,1\M
 g,0,25.667,0.171,30.076\C,0,27.871,0.402,32.931\C,0,23.083,0.253,32.19
 4\C,0,23.747,-0.1,27.304\C,0,28.575,-0.472,28.09\N,0,25.548,0.447,32.3
 75\C,0,26.51,0.537,33.307\C,0,25.879,0.602,34.717\C,0,24.416,0.354,34.
 462\C,0,24.301,0.234,32.891\C,0,23.839,-0.878,35.263\C,0,26.098,1.964,
 35.393\C,0,25.811,2.017,36.874\C,0,26.944,1.821,37.929\O,0,28.054,2.40

 Normal termination of Gaussian 16 at Thu Apr 28 06:41:14 2022.
