 Gaussian 16, Revision A.03,
 Gaussian 16:  ES64L-G16RevA.03 25-Dec-2016

 ------------------------------
 #p blyp/Def2SVP td=(nstates=5)
 ------------------------------

 --------------------------------------------------
 step_651_chromophore_15 TDDFT with blyp functional
 --------------------------------------------------
 Symbolic Z-matrix:
 Charge =  0 Multiplicity = 1

                         Standard orientation:
 ---------------------------------------------------------------------
 Center     Atomic      Atomic             Coordinates (Angstroms)
 Number     Number       Type             X           Y           Z
 ---------------------------------------------------------------------
      1         12           0       -4.630542    0.979068    0.285076
      2          6           0       -4.104500   -2.479861    0.518917
      3          6           0       -1.190184    1.389024    0.066830
      4          6           0       -5.221024    4.152867    0.206829
      5          6           0       -8.057620    0.275803    0.727617
      6          7           0       -2.869733   -0.422243    0.127503
      7          6           0       -2.926813   -1.774547    0.270487
      8          6           0       -1.653717   -2.382350   -0.042365
      9          6           0       -0.643061   -1.219592    0.318582
     10          6           0       -1.578493    0.024328    0.126010
     11          6           0       -0.093687   -1.163890    1.708953
     12          6           0       -1.564647   -2.758321   -1.552541
     13          6           0       -0.585409   -3.832513   -2.057802
     14          6           0        0.783347   -4.026280   -1.401212
     15          8           0        0.934531   -4.367479   -0.259350
     16          8           0        1.795218   -3.762440   -2.269726
     17          7           0       -3.388576    2.542751   -0.025305
     18          6           0       -1.996897    2.493494   -0.043900
     19          6           0       -1.532903    3.907568   -0.163493
     20          6           0       -2.707559    4.723749   -0.202131
     21          6           0       -3.843792    3.822915   -0.007613
     22          6           0       -0.103993    4.300439   -0.288142
     23          6           0       -2.825277    6.255576   -0.464745
     24          8           0       -3.900380    6.831536   -0.434937
     25          6           0       -1.632669    7.064922   -0.885952
     26          7           0       -6.401771    2.033340    0.385498
     27          6           0       -6.358941    3.372398    0.366387
     28          6           0       -7.790253    4.008445    0.376950
     29          6           0       -8.660494    2.758720    0.426665
     30          6           0       -7.651561    1.610411    0.464965
     31          6           0       -7.993055    5.000367    1.514763
     32          6           0       -9.617796    2.473814   -0.758575
     33          6           0      -11.122964    2.309583   -0.533017
     34          7           0       -5.861175   -0.719140    0.594452
     35          6           0       -7.226695   -0.858174    0.742597
     36          6           0       -7.647591   -2.273314    0.832215
     37          6           0       -6.387784   -2.930256    0.774906
     38          6           0       -5.356814   -1.934951    0.637659
     39          6           0       -9.044337   -2.818896    0.831223
     40          6           0       -5.811373   -4.197307    0.829616
     41          8           0       -6.262425   -5.318517    0.801499
     42          6           0       -4.361794   -3.941066    0.918201
     43          6           0       -3.582280   -4.935734    0.261062
     44          8           0       -3.809765   -5.360366   -0.855472
     45          8           0       -2.680710   -5.397649    1.180686
     46          6           0       -1.729306   -6.402210    0.764474
     47          6           0        3.167347   -4.002632   -1.791763
     48          6           0        3.984080   -2.726051   -2.061823
     49          6           0        5.273728   -2.443832   -1.733645
     50          6           0        6.161168   -3.440261   -0.961750
     51          6           0        5.869992   -0.977953   -1.947609
     52          6           0        7.362506   -0.726625   -2.014904
     53          6           0        7.655002   -0.261521   -3.464949
     54          6           0        7.808558    1.284534   -3.486953
     55          6           0        7.043849    1.965490   -4.677381
     56          6           0        9.283245    1.745600   -3.418430
     57          6           0        9.735351    2.555577   -2.206354
     58          6           0       10.642276    1.578932   -1.334584
     59          6           0       10.519651    1.797090    0.209526
     60          6           0       11.677133    2.567968    0.809567
     61          6           0       10.282955    0.499559    1.049427
     62          6           0        9.885556    0.882080    2.443430
     63          6           0       10.811349    0.066544    3.419669
     64          6           0       10.959023    0.709601    4.812155
     65          6           0       12.149169    0.124173    5.547777
     66          6           0        9.654166    0.571215    5.623795
     67          1           0       -0.122333    1.611492    0.126369
     68          1           0       -5.520781    5.201739    0.168790
     69          1           0       -9.126932    0.172690    0.925391
     70          1           0       -1.330377   -3.261648    0.515072
     71          1           0        0.175505   -1.070248   -0.386088
     72          1           0        0.693151   -0.416610    1.804839
     73          1           0        0.295504   -2.156566    1.938137
     74          1           0       -0.903517   -0.888374    2.385217
     75          1           0       -1.293945   -1.877742   -2.135351
     76          1           0       -2.563576   -2.989019   -1.923343
     77          1           0       -0.484629   -3.484298   -3.085213
     78          1           0       -1.134007   -4.763807   -2.198198
     79          1           0        0.583033    3.617359    0.210505
     80          1           0        0.181779    5.229274    0.205507
     81          1           0        0.088044    4.426204   -1.353481
     82          1           0       -0.976116    6.482808   -1.531921
     83          1           0       -1.088815    7.614468   -0.116162
     84          1           0       -2.085302    7.863170   -1.473507
     85          1           0       -8.068031    4.693563   -0.424372
     86          1           0       -9.312704    2.746920    1.300310
     87          1           0       -7.018612    5.152568    1.980326
     88          1           0       -8.661183    4.521188    2.229982
     89          1           0       -8.440537    5.934294    1.174531
     90          1           0       -9.401422    1.598888   -1.370631
     91          1           0       -9.508646    3.338246   -1.414024
     92          1           0      -11.492804    1.579153   -1.251782
     93          1           0      -11.623809    3.259921   -0.717493
     94          1           0      -11.422248    1.932578    0.445708
     95          1           0       -9.780006   -2.021928    0.939904
     96          1           0       -9.151231   -3.503367    1.672410
     97          1           0       -9.171025   -3.364789   -0.103342
     98          1           0       -4.101029   -4.008489    1.975048
     99          1           0       -2.097479   -7.394015    1.026469
    100          1           0       -0.845115   -6.240653    1.381981
    101          1           0       -1.389682   -6.382378   -0.270585
    102          1           0        3.668777   -4.834753   -2.285762
    103          1           0        3.237731   -4.305009   -0.746840
    104          1           0        3.413218   -1.940804   -2.556783
    105          1           0        6.954892   -3.797049   -1.618712
    106          1           0        5.675163   -4.331453   -0.563690
    107          1           0        6.479489   -2.751612   -0.179691
    108          1           0        5.632309   -0.488463   -1.003415
    109          1           0        5.308122   -0.550171   -2.777968
    110          1           0        7.935377   -1.637963   -1.843555
    111          1           0        7.568896   -0.005638   -1.223752
    112          1           0        7.002712   -0.598019   -4.269485
    113          1           0        8.599066   -0.749123   -3.709064
    114          1           0        7.357243    1.727870   -2.598902
    115          1           0        7.365615    3.006372   -4.685505
    116          1           0        5.966223    1.833036   -4.574391
    117          1           0        7.418564    1.509267   -5.592841
    118          1           0        9.455819    2.380628   -4.287928
    119          1           0        9.880071    0.845116   -3.563324
    120          1           0        8.783535    2.806882   -1.738586
    121          1           0       10.273937    3.417254   -2.602126
    122          1           0       11.669258    1.740552   -1.660257
    123          1           0       10.382020    0.550451   -1.584493
    124          1           0        9.668946    2.477571    0.238019
    125          1           0       11.399405    3.122200    1.705824
    126          1           0       12.193164    3.137397    0.037057
    127          1           0       12.449261    1.864588    1.122465
    128          1           0       11.193784   -0.083837    0.910763
    129          1           0        9.383265   -0.036696    0.746709
    130          1           0        8.912376    0.456638    2.689336
    131          1           0        9.969371    1.931693    2.725708
    132          1           0       11.799274   -0.047509    2.974348
    133          1           0       10.543116   -0.956180    3.683671
    134          1           0       11.055041    1.790868    4.711212
    135          1           0       12.715881    0.981139    5.910228
    136          1           0       12.872205   -0.226443    4.810777
    137          1           0       12.027183   -0.531583    6.409979
    138          1           0        8.929638    0.178005    4.910009
    139          1           0        9.227675    1.498195    6.006886
    140          1           0        9.709766   -0.036358    6.527805
 ---------------------------------------------------------------------

 SCF Done:  E(RB-LYP) =  -3007.35994217     A.U. after   21 cycles

 Excitation energies and oscillator strengths:

 Excited State   1:      Singlet-A      1.8082 eV  685.69 nm  f=0.2331  <S**2>=0.000
     244 -> 247        0.17581
     245 -> 247        0.17234
     245 -> 248        0.17600
     246 -> 247        0.64482
     246 <- 247       -0.13492
 This state for optimization and/or second-order correction.
 Total Energy, E(TD-HF/TD-DFT) =  -3007.29349374
 Copying the excited state density for this state as the 1-particle RhoCI density.

 Excited State   2:      Singlet-A      1.8846 eV  657.87 nm  f=0.0854  <S**2>=0.000
     244 -> 247        0.48611
     245 -> 247        0.43825
     246 -> 247       -0.23774

 Excited State   3:      Singlet-A      2.0955 eV  591.68 nm  f=0.0459  <S**2>=0.000
     244 -> 247        0.46286
     245 -> 247       -0.44657
     246 -> 248        0.26611

 Excited State   4:      Singlet-A      2.1649 eV  572.70 nm  f=0.0000  <S**2>=0.000
     243 -> 247        0.70577

 Excited State   5:      Singlet-A      2.4070 eV  515.11 nm  f=0.0000  <S**2>=0.000
     242 -> 247        0.70698

 The electronic state is 1-A.
 Alpha  occ. eigenvalues --  -46.26459 -18.83254 -18.81842 -18.77785 -18.76048
 Alpha  occ. eigenvalues --  -18.75704 -18.74281 -14.02951 -14.02858 -14.01045
 Alpha  occ. eigenvalues --  -14.00543 -10.05024 -10.02562 -10.00155  -9.98720
 Alpha  occ. eigenvalues --   -9.97436  -9.96725  -9.96310  -9.96063  -9.95965
 Alpha  occ. eigenvalues --   -9.95930  -9.95904  -9.95641  -9.95392  -9.94053
 Alpha  occ. eigenvalues --   -9.93808  -9.93725  -9.93659  -9.93421  -9.93418
 Alpha  occ. eigenvalues --   -9.93240  -9.93222  -9.93190  -9.93034  -9.93023
 Alpha  occ. eigenvalues --   -9.92991  -9.92915  -9.92898  -9.92747  -9.92664
 Alpha  occ. eigenvalues --   -9.92618  -9.92384  -9.92195  -9.92141  -9.92053
 Alpha  occ. eigenvalues --   -9.91964  -9.91895  -9.91846  -9.91812  -9.91759
 Alpha  occ. eigenvalues --   -9.91736  -9.91727  -9.91715  -9.91641  -9.91604
 Alpha  occ. eigenvalues --   -9.91584  -9.91547  -9.91519  -9.91403  -9.91384
 Alpha  occ. eigenvalues --   -9.90918  -9.90873  -9.90598  -9.90584  -9.90501
 Alpha  occ. eigenvalues --   -9.90200  -2.91203  -1.71645  -1.71091  -1.70899
 Alpha  occ. eigenvalues --   -0.99307  -0.97534  -0.91883  -0.91557  -0.91259
 Alpha  occ. eigenvalues --   -0.89721  -0.87476  -0.86490  -0.85686  -0.84616
 Alpha  occ. eigenvalues --   -0.76299  -0.73910  -0.73390  -0.72659  -0.72590
 Alpha  occ. eigenvalues --   -0.72096  -0.71884  -0.71149  -0.70784  -0.70357
 Alpha  occ. eigenvalues --   -0.69730  -0.69563  -0.68720  -0.67879  -0.67457
 Alpha  occ. eigenvalues --   -0.66919  -0.66196  -0.65384  -0.65257  -0.64769
 Alpha  occ. eigenvalues --   -0.64483  -0.62897  -0.62494  -0.61901  -0.60798
 Alpha  occ. eigenvalues --   -0.60604  -0.60470  -0.59861  -0.59528  -0.58922
 Alpha  occ. eigenvalues --   -0.58571  -0.57584  -0.56568  -0.55641  -0.54151
 Alpha  occ. eigenvalues --   -0.53940  -0.53868  -0.52493  -0.52200  -0.51484
 Alpha  occ. eigenvalues --   -0.51448  -0.50972  -0.50561  -0.50509  -0.50274
 Alpha  occ. eigenvalues --   -0.50233  -0.49460  -0.48591  -0.48506  -0.46837
 Alpha  occ. eigenvalues --   -0.46664  -0.46271  -0.45835  -0.45490  -0.44684
 Alpha  occ. eigenvalues --   -0.44231  -0.43738  -0.43069  -0.42866  -0.42487
 Alpha  occ. eigenvalues --   -0.42196  -0.42084  -0.41796  -0.41663  -0.41574
 Alpha  occ. eigenvalues --   -0.41267  -0.40978  -0.40660  -0.40276  -0.40144
 Alpha  occ. eigenvalues --   -0.39872  -0.39808  -0.39719  -0.39599  -0.39499
 Alpha  occ. eigenvalues --   -0.39076  -0.38811  -0.38458  -0.38378  -0.38209
 Alpha  occ. eigenvalues --   -0.38191  -0.38102  -0.37998  -0.37965  -0.37833
 Alpha  occ. eigenvalues --   -0.37178  -0.36799  -0.36756  -0.36696  -0.36508
 Alpha  occ. eigenvalues --   -0.36237  -0.36182  -0.36094  -0.35861  -0.35704
 Alpha  occ. eigenvalues --   -0.35518  -0.35354  -0.35184  -0.35074  -0.34932
 Alpha  occ. eigenvalues --   -0.34683  -0.34610  -0.34567  -0.34324  -0.34080
 Alpha  occ. eigenvalues --   -0.33859  -0.33848  -0.33490  -0.33405  -0.33166
 Alpha  occ. eigenvalues --   -0.32709  -0.32539  -0.32335  -0.32119  -0.32099
 Alpha  occ. eigenvalues --   -0.32055  -0.31764  -0.31706  -0.31600  -0.31558
 Alpha  occ. eigenvalues --   -0.31409  -0.31159  -0.31126  -0.30660  -0.30474
 Alpha  occ. eigenvalues --   -0.30293  -0.30246  -0.29907  -0.29807  -0.29601
 Alpha  occ. eigenvalues --   -0.29557  -0.29432  -0.29185  -0.29002  -0.28854
 Alpha  occ. eigenvalues --   -0.28813  -0.28708  -0.28584  -0.27928  -0.27825
 Alpha  occ. eigenvalues --   -0.27698  -0.27505  -0.27149  -0.26877  -0.26504
 Alpha  occ. eigenvalues --   -0.26301  -0.26168  -0.26064  -0.25986  -0.25307
 Alpha  occ. eigenvalues --   -0.25228  -0.24685  -0.24577  -0.23787  -0.23582
 Alpha  occ. eigenvalues --   -0.23118  -0.22978  -0.21866  -0.21205  -0.20620
 Alpha  occ. eigenvalues --   -0.20205  -0.19866  -0.18896  -0.18016  -0.16991
 Alpha  occ. eigenvalues --   -0.15366
 Alpha virt. eigenvalues --   -0.11021  -0.06731  -0.05991  -0.04136  -0.03129
 Alpha virt. eigenvalues --   -0.02058  -0.01675  -0.01296  -0.00702   0.00005
 Alpha virt. eigenvalues --    0.01280   0.01338   0.01787   0.02762   0.02856

 Mulliken charges:
               1
     1  Mg   0.695575
     2  C    0.018656
     3  C   -0.075594
     4  C   -0.026406
     5  C   -0.098010
     6  N   -0.191919
     7  C   -0.103607
     8  C    0.036996
     9  C   -0.000022
    10  C   -0.011326
    11  C    0.161214
    12  C    0.082883
    13  C    0.134268
    14  C    0.090700
    15  O   -0.178593
    16  O   -0.251978
    17  N   -0.325233
    18  C    0.161906
    19  C   -0.148363
    20  C    0.040888
    21  C    0.111992
    22  C    0.147990
    23  C   -0.060326
    24  O   -0.158662
    25  C    0.121892
    26  N   -0.194486
    27  C    0.019583
    28  C   -0.001060
    29  C    0.065574
    30  C   -0.001807
    31  C    0.125205
    32  C    0.066476
    33  C    0.054218
    34  N   -0.215528
    35  C    0.123977
    36  C   -0.177451
    37  C    0.065777
    38  C    0.082761
    39  C    0.191615
    40  C   -0.085120
    41  O   -0.112926
    42  C    0.131374
    43  C    0.060117
    44  O   -0.169410
    45  O   -0.268690
    46  C    0.220403
    47  C    0.299229
    48  C   -0.117916
    49  C   -0.149945
    50  C    0.127219
    51  C    0.096519
    52  C    0.061421
    53  C    0.114595
    54  C   -0.087842
    55  C    0.095725
    56  C    0.081760
    57  C    0.089468
    58  C    0.088941
    59  C   -0.084213
    60  C    0.118720
    61  C    0.126683
    62  C    0.107799
    63  C    0.019336
    64  C   -0.086010
    65  C    0.138773
    66  C    0.095900
    67  H   -0.071500
    68  H   -0.047131
    69  H   -0.067102
    70  H   -0.020926
    71  H   -0.040943
    72  H   -0.012441
    73  H    0.004593
    74  H   -0.011965
    75  H   -0.027154
    76  H   -0.008157
    77  H   -0.022216
    78  H    0.021110
    79  H   -0.008066
    80  H   -0.007207
    81  H    0.020768
    82  H   -0.009078
    83  H    0.018578
    84  H   -0.009283
    85  H   -0.016804
    86  H   -0.029863
    87  H   -0.001482
    88  H   -0.026502
    89  H   -0.005662
    90  H   -0.008540
    91  H   -0.033272
    92  H   -0.012688
    93  H   -0.007265
    94  H   -0.009118
    95  H   -0.019510
    96  H    0.009646
    97  H    0.022641
    98  H    0.003188
    99  H    0.009759
   100  H    0.012925
   101  H    0.012008
   102  H    0.004262
   103  H    0.010923
   104  H   -0.038407
   105  H    0.015478
   106  H   -0.013588
   107  H    0.006177
   108  H   -0.019509
   109  H   -0.007836
   110  H   -0.028103
   111  H   -0.004133
   112  H   -0.027655
   113  H   -0.045137
   114  H   -0.043366
   115  H   -0.015355
   116  H   -0.006777
   117  H   -0.013622
   118  H   -0.057361
   119  H   -0.036590
   120  H   -0.026642
   121  H   -0.021139
   122  H   -0.036214
   123  H   -0.028371
   124  H   -0.047174
   125  H   -0.008884
   126  H   -0.021870
   127  H   -0.033623
   128  H   -0.014182
   129  H   -0.041161
   130  H   -0.027356
   131  H   -0.015531
   132  H   -0.034240
   133  H   -0.032590
   134  H   -0.039488
   135  H   -0.035625
   136  H   -0.036748
   137  H   -0.003387
   138  H   -0.025437
   139  H   -0.023564
   140  H   -0.019206
 Sum of Mulliken charges =  -0.00000

 Dipole moment (field-independent basis, Debye):
    X=              4.9581    Y=              3.1477    Z=             -0.0719  Tot=              5.8733
 Quadrupole moment (field-independent basis, Debye-Ang):
   XX=           -377.9360   YY=           -437.4029   ZZ=           -406.2667
   XY=            -26.9532   XZ=             -7.7113   YZ=              1.0665

 Normal termination of Gaussian 16 at Sat Apr 30 07:44:54 2022.
