 Gaussian 16, Revision A.03,
 Gaussian 16:  ES64L-G16RevA.03 25-Dec-2016

 -----------------------------------
 #p cam-b3lyp/Def2SVP td=(nstates=5)
 -----------------------------------

 -------------------------------------------------------
 step_651_chromophore_15 TDDFT with cam-b3lyp functional
 -------------------------------------------------------
 Symbolic Z-matrix:
 Charge =  0 Multiplicity = 1

                         Standard orientation:
 ---------------------------------------------------------------------
 Center     Atomic      Atomic             Coordinates (Angstroms)
 Number     Number       Type             X           Y           Z
 ---------------------------------------------------------------------
      1         12           0       -4.630542    0.979068    0.285076
      2          6           0       -4.104500   -2.479861    0.518917
      3          6           0       -1.190184    1.389024    0.066830
      4          6           0       -5.221024    4.152867    0.206829
      5          6           0       -8.057620    0.275803    0.727617
      6          7           0       -2.869733   -0.422243    0.127503
      7          6           0       -2.926813   -1.774547    0.270487
      8          6           0       -1.653717   -2.382350   -0.042365
      9          6           0       -0.643061   -1.219592    0.318582
     10          6           0       -1.578493    0.024328    0.126010
     11          6           0       -0.093687   -1.163890    1.708953
     12          6           0       -1.564647   -2.758321   -1.552541
     13          6           0       -0.585409   -3.832513   -2.057802
     14          6           0        0.783347   -4.026280   -1.401212
     15          8           0        0.934531   -4.367479   -0.259350
     16          8           0        1.795218   -3.762440   -2.269726
     17          7           0       -3.388576    2.542751   -0.025305
     18          6           0       -1.996897    2.493494   -0.043900
     19          6           0       -1.532903    3.907568   -0.163493
     20          6           0       -2.707559    4.723749   -0.202131
     21          6           0       -3.843792    3.822915   -0.007613
     22          6           0       -0.103993    4.300439   -0.288142
     23          6           0       -2.825277    6.255576   -0.464745
     24          8           0       -3.900380    6.831536   -0.434937
     25          6           0       -1.632669    7.064922   -0.885952
     26          7           0       -6.401771    2.033340    0.385498
     27          6           0       -6.358941    3.372398    0.366387
     28          6           0       -7.790253    4.008445    0.376950
     29          6           0       -8.660494    2.758720    0.426665
     30          6           0       -7.651561    1.610411    0.464965
     31          6           0       -7.993055    5.000367    1.514763
     32          6           0       -9.617796    2.473814   -0.758575
     33          6           0      -11.122964    2.309583   -0.533017
     34          7           0       -5.861175   -0.719140    0.594452
     35          6           0       -7.226695   -0.858174    0.742597
     36          6           0       -7.647591   -2.273314    0.832215
     37          6           0       -6.387784   -2.930256    0.774906
     38          6           0       -5.356814   -1.934951    0.637659
     39          6           0       -9.044337   -2.818896    0.831223
     40          6           0       -5.811373   -4.197307    0.829616
     41          8           0       -6.262425   -5.318517    0.801499
     42          6           0       -4.361794   -3.941066    0.918201
     43          6           0       -3.582280   -4.935734    0.261062
     44          8           0       -3.809765   -5.360366   -0.855472
     45          8           0       -2.680710   -5.397649    1.180686
     46          6           0       -1.729306   -6.402210    0.764474
     47          6           0        3.167347   -4.002632   -1.791763
     48          6           0        3.984080   -2.726051   -2.061823
     49          6           0        5.273728   -2.443832   -1.733645
     50          6           0        6.161168   -3.440261   -0.961750
     51          6           0        5.869992   -0.977953   -1.947609
     52          6           0        7.362506   -0.726625   -2.014904
     53          6           0        7.655002   -0.261521   -3.464949
     54          6           0        7.808558    1.284534   -3.486953
     55          6           0        7.043849    1.965490   -4.677381
     56          6           0        9.283245    1.745600   -3.418430
     57          6           0        9.735351    2.555577   -2.206354
     58          6           0       10.642276    1.578932   -1.334584
     59          6           0       10.519651    1.797090    0.209526
     60          6           0       11.677133    2.567968    0.809567
     61          6           0       10.282955    0.499559    1.049427
     62          6           0        9.885556    0.882080    2.443430
     63          6           0       10.811349    0.066544    3.419669
     64          6           0       10.959023    0.709601    4.812155
     65          6           0       12.149169    0.124173    5.547777
     66          6           0        9.654166    0.571215    5.623795
     67          1           0       -0.122333    1.611492    0.126369
     68          1           0       -5.520781    5.201739    0.168790
     69          1           0       -9.126932    0.172690    0.925391
     70          1           0       -1.330377   -3.261648    0.515072
     71          1           0        0.175505   -1.070248   -0.386088
     72          1           0        0.693151   -0.416610    1.804839
     73          1           0        0.295504   -2.156566    1.938137
     74          1           0       -0.903517   -0.888374    2.385217
     75          1           0       -1.293945   -1.877742   -2.135351
     76          1           0       -2.563576   -2.989019   -1.923343
     77          1           0       -0.484629   -3.484298   -3.085213
     78          1           0       -1.134007   -4.763807   -2.198198
     79          1           0        0.583033    3.617359    0.210505
     80          1           0        0.181779    5.229274    0.205507
     81          1           0        0.088044    4.426204   -1.353481
     82          1           0       -0.976116    6.482808   -1.531921
     83          1           0       -1.088815    7.614468   -0.116162
     84          1           0       -2.085302    7.863170   -1.473507
     85          1           0       -8.068031    4.693563   -0.424372
     86          1           0       -9.312704    2.746920    1.300310
     87          1           0       -7.018612    5.152568    1.980326
     88          1           0       -8.661183    4.521188    2.229982
     89          1           0       -8.440537    5.934294    1.174531
     90          1           0       -9.401422    1.598888   -1.370631
     91          1           0       -9.508646    3.338246   -1.414024
     92          1           0      -11.492804    1.579153   -1.251782
     93          1           0      -11.623809    3.259921   -0.717493
     94          1           0      -11.422248    1.932578    0.445708
     95          1           0       -9.780006   -2.021928    0.939904
     96          1           0       -9.151231   -3.503367    1.672410
     97          1           0       -9.171025   -3.364789   -0.103342
     98          1           0       -4.101029   -4.008489    1.975048
     99          1           0       -2.097479   -7.394015    1.026469
    100          1           0       -0.845115   -6.240653    1.381981
    101          1           0       -1.389682   -6.382378   -0.270585
    102          1           0        3.668777   -4.834753   -2.285762
    103          1           0        3.237731   -4.305009   -0.746840
    104          1           0        3.413218   -1.940804   -2.556783
    105          1           0        6.954892   -3.797049   -1.618712
    106          1           0        5.675163   -4.331453   -0.563690
    107          1           0        6.479489   -2.751612   -0.179691
    108          1           0        5.632309   -0.488463   -1.003415
    109          1           0        5.308122   -0.550171   -2.777968
    110          1           0        7.935377   -1.637963   -1.843555
    111          1           0        7.568896   -0.005638   -1.223752
    112          1           0        7.002712   -0.598019   -4.269485
    113          1           0        8.599066   -0.749123   -3.709064
    114          1           0        7.357243    1.727870   -2.598902
    115          1           0        7.365615    3.006372   -4.685505
    116          1           0        5.966223    1.833036   -4.574391
    117          1           0        7.418564    1.509267   -5.592841
    118          1           0        9.455819    2.380628   -4.287928
    119          1           0        9.880071    0.845116   -3.563324
    120          1           0        8.783535    2.806882   -1.738586
    121          1           0       10.273937    3.417254   -2.602126
    122          1           0       11.669258    1.740552   -1.660257
    123          1           0       10.382020    0.550451   -1.584493
    124          1           0        9.668946    2.477571    0.238019
    125          1           0       11.399405    3.122200    1.705824
    126          1           0       12.193164    3.137397    0.037057
    127          1           0       12.449261    1.864588    1.122465
    128          1           0       11.193784   -0.083837    0.910763
    129          1           0        9.383265   -0.036696    0.746709
    130          1           0        8.912376    0.456638    2.689336
    131          1           0        9.969371    1.931693    2.725708
    132          1           0       11.799274   -0.047509    2.974348
    133          1           0       10.543116   -0.956180    3.683671
    134          1           0       11.055041    1.790868    4.711212
    135          1           0       12.715881    0.981139    5.910228
    136          1           0       12.872205   -0.226443    4.810777
    137          1           0       12.027183   -0.531583    6.409979
    138          1           0        8.929638    0.178005    4.910009
    139          1           0        9.227675    1.498195    6.006886
    140          1           0        9.709766   -0.036358    6.527805
 ---------------------------------------------------------------------

 SCF Done:  E(RCAM-B3LYP) =  -3007.17054593     A.U. after   17 cycles

 Excitation energies and oscillator strengths:

 Excited State   1:      Singlet-A      1.7238 eV  719.24 nm  f=0.3774  <S**2>=0.000
     245 -> 248        0.18974
     246 -> 247        0.68296
     245 <- 248        0.10996
 This state for optimization and/or second-order correction.
 Total Energy, E(TD-HF/TD-DFT) =  -3007.10719688
 Copying the excited state density for this state as the 1-particle RhoCI density.

 Excited State   2:      Singlet-A      2.2863 eV  542.30 nm  f=0.0659  <S**2>=0.000
     245 -> 247        0.61203
     246 -> 248       -0.34488

 Excited State   3:      Singlet-A      3.4069 eV  363.92 nm  f=0.3538  <S**2>=0.000
     241 -> 247        0.30115
     241 -> 249        0.13986
     241 -> 250       -0.12082
     243 -> 247        0.29860
     245 -> 247        0.23020
     246 -> 248        0.44460

 Excited State   4:      Singlet-A      3.5180 eV  352.43 nm  f=0.3628  <S**2>=0.000
     240 -> 247        0.13486
     241 -> 247       -0.25897
     241 -> 249       -0.17625
     241 -> 250        0.13650
     242 -> 247        0.23124
     243 -> 247       -0.27930
     245 -> 247        0.22636
     246 -> 248        0.40096

 Excited State   5:      Singlet-A      3.6021 eV  344.20 nm  f=0.0005  <S**2>=0.000
     241 -> 247       -0.39002
     243 -> 247        0.53919

 The electronic state is 1-A.
 Alpha  occ. eigenvalues --  -46.87961 -19.26092 -19.24781 -19.20734 -19.19125
 Alpha  occ. eigenvalues --  -19.19003 -19.17456 -14.41863 -14.41645 -14.39517
 Alpha  occ. eigenvalues --  -14.38987 -10.40251 -10.37948 -10.35430 -10.32775
 Alpha  occ. eigenvalues --  -10.32586 -10.30783 -10.30680 -10.30439 -10.30360
 Alpha  occ. eigenvalues --  -10.30346 -10.30328 -10.29966 -10.29710 -10.28712
 Alpha  occ. eigenvalues --  -10.28443 -10.28018 -10.27911 -10.27391 -10.27297
 Alpha  occ. eigenvalues --  -10.27187 -10.27156 -10.27110 -10.27093 -10.27082
 Alpha  occ. eigenvalues --  -10.27061 -10.26984 -10.26862 -10.26672 -10.26452
 Alpha  occ. eigenvalues --  -10.26432 -10.26384 -10.25998 -10.25990 -10.25970
 Alpha  occ. eigenvalues --  -10.25903 -10.25824 -10.25816 -10.25797 -10.25445
 Alpha  occ. eigenvalues --  -10.25424 -10.25349 -10.25334 -10.25327 -10.25283
 Alpha  occ. eigenvalues --  -10.25281 -10.25223 -10.25202 -10.25060 -10.25023
 Alpha  occ. eigenvalues --  -10.24618 -10.24475 -10.24359 -10.24249 -10.24200
 Alpha  occ. eigenvalues --  -10.24082  -3.16617  -1.91535  -1.91082  -1.90914
 Alpha  occ. eigenvalues --   -1.17771  -1.16082  -1.10381  -1.09665  -1.09404
 Alpha  occ. eigenvalues --   -1.07721  -1.05214  -1.04233  -1.03313  -1.02135
 Alpha  occ. eigenvalues --   -0.93506  -0.90793  -0.90218  -0.89353  -0.89278
 Alpha  occ. eigenvalues --   -0.88818  -0.88582  -0.87757  -0.87358  -0.87019
 Alpha  occ. eigenvalues --   -0.86339  -0.85908  -0.85042  -0.84081  -0.83599
 Alpha  occ. eigenvalues --   -0.82994  -0.82251  -0.81449  -0.81134  -0.80685
 Alpha  occ. eigenvalues --   -0.80276  -0.78627  -0.78205  -0.77435  -0.76201
 Alpha  occ. eigenvalues --   -0.76026  -0.75870  -0.75132  -0.74825  -0.74116
 Alpha  occ. eigenvalues --   -0.73667  -0.72619  -0.71439  -0.70402  -0.68784
 Alpha  occ. eigenvalues --   -0.68490  -0.68457  -0.66867  -0.66643  -0.65653
 Alpha  occ. eigenvalues --   -0.65486  -0.65089  -0.64754  -0.64394  -0.64301
 Alpha  occ. eigenvalues --   -0.64176  -0.63452  -0.62391  -0.62380  -0.60499
 Alpha  occ. eigenvalues --   -0.60357  -0.59755  -0.59249  -0.58985  -0.58132
 Alpha  occ. eigenvalues --   -0.57763  -0.57123  -0.56270  -0.55825  -0.55713
 Alpha  occ. eigenvalues --   -0.55531  -0.55422  -0.55223  -0.54761  -0.54382
 Alpha  occ. eigenvalues --   -0.53886  -0.53814  -0.53480  -0.52921  -0.52772
 Alpha  occ. eigenvalues --   -0.52590  -0.52523  -0.52321  -0.52305  -0.52042
 Alpha  occ. eigenvalues --   -0.51909  -0.51316  -0.50978  -0.50822  -0.50749
 Alpha  occ. eigenvalues --   -0.50532  -0.50444  -0.50395  -0.50216  -0.50176
 Alpha  occ. eigenvalues --   -0.49504  -0.49337  -0.49093  -0.48859  -0.48713
 Alpha  occ. eigenvalues --   -0.48639  -0.48579  -0.48291  -0.48120  -0.48043
 Alpha  occ. eigenvalues --   -0.47665  -0.47393  -0.47366  -0.47068  -0.47042
 Alpha  occ. eigenvalues --   -0.46756  -0.46626  -0.46447  -0.46307  -0.46008
 Alpha  occ. eigenvalues --   -0.45712  -0.45447  -0.45352  -0.45097  -0.44744
 Alpha  occ. eigenvalues --   -0.44547  -0.44313  -0.44058  -0.43982  -0.43721
 Alpha  occ. eigenvalues --   -0.43493  -0.43343  -0.43281  -0.43142  -0.43056
 Alpha  occ. eigenvalues --   -0.43002  -0.42797  -0.42506  -0.42170  -0.42036
 Alpha  occ. eigenvalues --   -0.41870  -0.41553  -0.41482  -0.41459  -0.41122
 Alpha  occ. eigenvalues --   -0.40744  -0.40618  -0.40398  -0.40058  -0.39952
 Alpha  occ. eigenvalues --   -0.39797  -0.39680  -0.39600  -0.39037  -0.38700
 Alpha  occ. eigenvalues --   -0.38592  -0.38454  -0.38114  -0.37659  -0.37408
 Alpha  occ. eigenvalues --   -0.37343  -0.37155  -0.37012  -0.36667  -0.36189
 Alpha  occ. eigenvalues --   -0.36032  -0.35902  -0.35138  -0.34978  -0.34047
 Alpha  occ. eigenvalues --   -0.33998  -0.33969  -0.32827  -0.31254  -0.30935
 Alpha  occ. eigenvalues --   -0.30184  -0.30004  -0.29578  -0.29512  -0.23915
 Alpha  occ. eigenvalues --   -0.20544
 Alpha virt. eigenvalues --   -0.08002  -0.01682   0.00485   0.02817   0.03913
 Alpha virt. eigenvalues --    0.04803   0.05103   0.05614   0.05815   0.06759
 Alpha virt. eigenvalues --    0.07702   0.08438   0.08769   0.09144   0.09203

 Mulliken charges:
               1
     1  Mg   0.832543
     2  C   -0.013900
     3  C   -0.087007
     4  C   -0.045982
     5  C   -0.098737
     6  N   -0.258791
     7  C   -0.048711
     8  C   -0.032736
     9  C   -0.050903
    10  C    0.004080
    11  C    0.106080
    12  C    0.037379
    13  C    0.067095
    14  C    0.166806
    15  O   -0.220443
    16  O   -0.317770
    17  N   -0.415534
    18  C    0.168499
    19  C   -0.153361
    20  C   -0.029541
    21  C    0.137191
    22  C    0.087319
    23  C    0.021379
    24  O   -0.198864
    25  C    0.039333
    26  N   -0.273674
    27  C    0.035149
    28  C   -0.051766
    29  C    0.006383
    30  C    0.016261
    31  C    0.067209
    32  C    0.010359
    33  C   -0.005112
    34  N   -0.305463
    35  C    0.121797
    36  C   -0.164433
    37  C   -0.016345
    38  C    0.117944
    39  C    0.143505
    40  C    0.018731
    41  O   -0.152490
    42  C    0.046186
    43  C    0.149317
    44  O   -0.205377
    45  O   -0.332254
    46  C    0.182424
    47  C    0.269976
    48  C   -0.141712
    49  C   -0.167761
    50  C    0.064277
    51  C    0.047163
    52  C    0.007236
    53  C    0.054447
    54  C   -0.141830
    55  C    0.043223
    56  C    0.026674
    57  C    0.036112
    58  C    0.039092
    59  C   -0.140002
    60  C    0.059551
    61  C    0.074884
    62  C    0.046252
    63  C   -0.028284
    64  C   -0.143035
    65  C    0.072686
    66  C    0.037765
    67  H   -0.035173
    68  H   -0.007484
    69  H   -0.032829
    70  H    0.016025
    71  H   -0.006497
    72  H    0.011809
    73  H    0.028884
    74  H    0.012781
    75  H    0.002505
    76  H    0.025246
    77  H    0.014916
    78  H    0.050214
    79  H    0.019339
    80  H    0.020365
    81  H    0.046337
    82  H    0.018989
    83  H    0.047932
    84  H    0.025669
    85  H    0.018067
    86  H    0.005338
    87  H    0.024352
    88  H   -0.001064
    89  H    0.018975
    90  H    0.021591
    91  H   -0.004124
    92  H    0.011744
    93  H    0.015975
    94  H    0.011622
    95  H    0.005287
    96  H    0.036239
    97  H    0.048841
    98  H    0.050018
    99  H    0.033134
   100  H    0.036201
   101  H    0.032645
   102  H    0.030001
   103  H    0.042048
   104  H   -0.004149
   105  H    0.038022
   106  H    0.011394
   107  H    0.027593
   108  H    0.009681
   109  H    0.017352
   110  H    0.001296
   111  H    0.019576
   112  H    0.003014
   113  H   -0.014472
   114  H   -0.013866
   115  H    0.007999
   116  H    0.015810
   117  H    0.008806
   118  H   -0.024818
   119  H   -0.008074
   120  H   -0.000466
   121  H    0.007588
   122  H   -0.007077
   123  H   -0.002327
   124  H   -0.015078
   125  H    0.014327
   126  H    0.003972
   127  H   -0.009786
   128  H    0.013069
   129  H   -0.013388
   130  H    0.001489
   131  H    0.010995
   132  H   -0.008823
   133  H   -0.003701
   134  H   -0.008344
   135  H   -0.009161
   136  H   -0.010111
   137  H    0.021022
   138  H   -0.002760
   139  H    0.001535
   140  H    0.005460
 Sum of Mulliken charges =  -0.00000

 Dipole moment (field-independent basis, Debye):
    X=              5.2761    Y=              3.6025    Z=             -0.0865  Tot=              6.3893
 Quadrupole moment (field-independent basis, Debye-Ang):
   XX=           -375.8289   YY=           -434.1651   ZZ=           -406.2698
   XY=            -27.7540   XZ=             -7.8724   YZ=              0.3474

 Normal termination of Gaussian 16 at Sat Apr 30 06:48:20 2022.
