 Gaussian 16, Revision A.03,
 Gaussian 16:  ES64L-G16RevA.03 25-Dec-2016

 ---------------------------------
 #p PBE1PBE/Def2SVP td=(nstates=5)
 ---------------------------------

 -----------------------------------------------------
 step_651_chromophore_15 TDDFT with PBE1PBE functional
 -----------------------------------------------------
 Symbolic Z-matrix:
 Charge =  0 Multiplicity = 1

                         Standard orientation:
 ---------------------------------------------------------------------
 Center     Atomic      Atomic             Coordinates (Angstroms)
 Number     Number       Type             X           Y           Z
 ---------------------------------------------------------------------
      1         12           0       -4.630542    0.979068    0.285076
      2          6           0       -4.104500   -2.479861    0.518917
      3          6           0       -1.190184    1.389024    0.066830
      4          6           0       -5.221024    4.152867    0.206829
      5          6           0       -8.057620    0.275803    0.727617
      6          7           0       -2.869733   -0.422243    0.127503
      7          6           0       -2.926813   -1.774547    0.270487
      8          6           0       -1.653717   -2.382350   -0.042365
      9          6           0       -0.643061   -1.219592    0.318582
     10          6           0       -1.578493    0.024328    0.126010
     11          6           0       -0.093687   -1.163890    1.708953
     12          6           0       -1.564647   -2.758321   -1.552541
     13          6           0       -0.585409   -3.832513   -2.057802
     14          6           0        0.783347   -4.026280   -1.401212
     15          8           0        0.934531   -4.367479   -0.259350
     16          8           0        1.795218   -3.762440   -2.269726
     17          7           0       -3.388576    2.542751   -0.025305
     18          6           0       -1.996897    2.493494   -0.043900
     19          6           0       -1.532903    3.907568   -0.163493
     20          6           0       -2.707559    4.723749   -0.202131
     21          6           0       -3.843792    3.822915   -0.007613
     22          6           0       -0.103993    4.300439   -0.288142
     23          6           0       -2.825277    6.255576   -0.464745
     24          8           0       -3.900380    6.831536   -0.434937
     25          6           0       -1.632669    7.064922   -0.885952
     26          7           0       -6.401771    2.033340    0.385498
     27          6           0       -6.358941    3.372398    0.366387
     28          6           0       -7.790253    4.008445    0.376950
     29          6           0       -8.660494    2.758720    0.426665
     30          6           0       -7.651561    1.610411    0.464965
     31          6           0       -7.993055    5.000367    1.514763
     32          6           0       -9.617796    2.473814   -0.758575
     33          6           0      -11.122964    2.309583   -0.533017
     34          7           0       -5.861175   -0.719140    0.594452
     35          6           0       -7.226695   -0.858174    0.742597
     36          6           0       -7.647591   -2.273314    0.832215
     37          6           0       -6.387784   -2.930256    0.774906
     38          6           0       -5.356814   -1.934951    0.637659
     39          6           0       -9.044337   -2.818896    0.831223
     40          6           0       -5.811373   -4.197307    0.829616
     41          8           0       -6.262425   -5.318517    0.801499
     42          6           0       -4.361794   -3.941066    0.918201
     43          6           0       -3.582280   -4.935734    0.261062
     44          8           0       -3.809765   -5.360366   -0.855472
     45          8           0       -2.680710   -5.397649    1.180686
     46          6           0       -1.729306   -6.402210    0.764474
     47          6           0        3.167347   -4.002632   -1.791763
     48          6           0        3.984080   -2.726051   -2.061823
     49          6           0        5.273728   -2.443832   -1.733645
     50          6           0        6.161168   -3.440261   -0.961750
     51          6           0        5.869992   -0.977953   -1.947609
     52          6           0        7.362506   -0.726625   -2.014904
     53          6           0        7.655002   -0.261521   -3.464949
     54          6           0        7.808558    1.284534   -3.486953
     55          6           0        7.043849    1.965490   -4.677381
     56          6           0        9.283245    1.745600   -3.418430
     57          6           0        9.735351    2.555577   -2.206354
     58          6           0       10.642276    1.578932   -1.334584
     59          6           0       10.519651    1.797090    0.209526
     60          6           0       11.677133    2.567968    0.809567
     61          6           0       10.282955    0.499559    1.049427
     62          6           0        9.885556    0.882080    2.443430
     63          6           0       10.811349    0.066544    3.419669
     64          6           0       10.959023    0.709601    4.812155
     65          6           0       12.149169    0.124173    5.547777
     66          6           0        9.654166    0.571215    5.623795
     67          1           0       -0.122333    1.611492    0.126369
     68          1           0       -5.520781    5.201739    0.168790
     69          1           0       -9.126932    0.172690    0.925391
     70          1           0       -1.330377   -3.261648    0.515072
     71          1           0        0.175505   -1.070248   -0.386088
     72          1           0        0.693151   -0.416610    1.804839
     73          1           0        0.295504   -2.156566    1.938137
     74          1           0       -0.903517   -0.888374    2.385217
     75          1           0       -1.293945   -1.877742   -2.135351
     76          1           0       -2.563576   -2.989019   -1.923343
     77          1           0       -0.484629   -3.484298   -3.085213
     78          1           0       -1.134007   -4.763807   -2.198198
     79          1           0        0.583033    3.617359    0.210505
     80          1           0        0.181779    5.229274    0.205507
     81          1           0        0.088044    4.426204   -1.353481
     82          1           0       -0.976116    6.482808   -1.531921
     83          1           0       -1.088815    7.614468   -0.116162
     84          1           0       -2.085302    7.863170   -1.473507
     85          1           0       -8.068031    4.693563   -0.424372
     86          1           0       -9.312704    2.746920    1.300310
     87          1           0       -7.018612    5.152568    1.980326
     88          1           0       -8.661183    4.521188    2.229982
     89          1           0       -8.440537    5.934294    1.174531
     90          1           0       -9.401422    1.598888   -1.370631
     91          1           0       -9.508646    3.338246   -1.414024
     92          1           0      -11.492804    1.579153   -1.251782
     93          1           0      -11.623809    3.259921   -0.717493
     94          1           0      -11.422248    1.932578    0.445708
     95          1           0       -9.780006   -2.021928    0.939904
     96          1           0       -9.151231   -3.503367    1.672410
     97          1           0       -9.171025   -3.364789   -0.103342
     98          1           0       -4.101029   -4.008489    1.975048
     99          1           0       -2.097479   -7.394015    1.026469
    100          1           0       -0.845115   -6.240653    1.381981
    101          1           0       -1.389682   -6.382378   -0.270585
    102          1           0        3.668777   -4.834753   -2.285762
    103          1           0        3.237731   -4.305009   -0.746840
    104          1           0        3.413218   -1.940804   -2.556783
    105          1           0        6.954892   -3.797049   -1.618712
    106          1           0        5.675163   -4.331453   -0.563690
    107          1           0        6.479489   -2.751612   -0.179691
    108          1           0        5.632309   -0.488463   -1.003415
    109          1           0        5.308122   -0.550171   -2.777968
    110          1           0        7.935377   -1.637963   -1.843555
    111          1           0        7.568896   -0.005638   -1.223752
    112          1           0        7.002712   -0.598019   -4.269485
    113          1           0        8.599066   -0.749123   -3.709064
    114          1           0        7.357243    1.727870   -2.598902
    115          1           0        7.365615    3.006372   -4.685505
    116          1           0        5.966223    1.833036   -4.574391
    117          1           0        7.418564    1.509267   -5.592841
    118          1           0        9.455819    2.380628   -4.287928
    119          1           0        9.880071    0.845116   -3.563324
    120          1           0        8.783535    2.806882   -1.738586
    121          1           0       10.273937    3.417254   -2.602126
    122          1           0       11.669258    1.740552   -1.660257
    123          1           0       10.382020    0.550451   -1.584493
    124          1           0        9.668946    2.477571    0.238019
    125          1           0       11.399405    3.122200    1.705824
    126          1           0       12.193164    3.137397    0.037057
    127          1           0       12.449261    1.864588    1.122465
    128          1           0       11.193784   -0.083837    0.910763
    129          1           0        9.383265   -0.036696    0.746709
    130          1           0        8.912376    0.456638    2.689336
    131          1           0        9.969371    1.931693    2.725708
    132          1           0       11.799274   -0.047509    2.974348
    133          1           0       10.543116   -0.956180    3.683671
    134          1           0       11.055041    1.790868    4.711212
    135          1           0       12.715881    0.981139    5.910228
    136          1           0       12.872205   -0.226443    4.810777
    137          1           0       12.027183   -0.531583    6.409979
    138          1           0        8.929638    0.178005    4.910009
    139          1           0        9.227675    1.498195    6.006886
    140          1           0        9.709766   -0.036358    6.527805
 ---------------------------------------------------------------------

 SCF Done:  E(RPBE1PBE) =  -3005.35988051     A.U. after   15 cycles

 Excitation energies and oscillator strengths:

 Excited State   1:      Singlet-A      1.8769 eV  660.58 nm  f=0.3620  <S**2>=0.000
     245 -> 248        0.18196
     246 -> 247        0.69030
     246 <- 247       -0.10407
 This state for optimization and/or second-order correction.
 Total Energy, E(TD-HF/TD-DFT) =  -3005.29090596
 Copying the excited state density for this state as the 1-particle RhoCI density.

 Excited State   2:      Singlet-A      2.2832 eV  543.04 nm  f=0.0776  <S**2>=0.000
     245 -> 247        0.63180
     246 -> 248       -0.30628

 Excited State   3:      Singlet-A      2.9600 eV  418.86 nm  f=0.0079  <S**2>=0.000
     242 -> 247       -0.13218
     243 -> 247        0.64710
     243 -> 249        0.14292
     243 -> 250       -0.10155
     246 -> 248        0.13183

 Excited State   4:      Singlet-A      3.2347 eV  383.30 nm  f=0.0104  <S**2>=0.000
     242 -> 247        0.66925
     243 -> 247        0.13634

 Excited State   5:      Singlet-A      3.2714 eV  378.99 nm  f=0.2532  <S**2>=0.000
     241 -> 247        0.35725
     243 -> 247       -0.11181
     245 -> 247        0.20962
     246 -> 248        0.50560
     246 -> 249       -0.17004
     246 -> 250       -0.10270

 The electronic state is 1-A.
 Alpha  occ. eigenvalues --  -46.91347 -19.26793 -19.25427 -19.20976 -19.19323
 Alpha  occ. eigenvalues --  -19.19181 -19.17663 -14.41355 -14.41138 -14.39175
 Alpha  occ. eigenvalues --  -14.38602 -10.37254 -10.34905 -10.32546 -10.30205
 Alpha  occ. eigenvalues --  -10.29638 -10.28559 -10.28171 -10.28098 -10.28033
 Alpha  occ. eigenvalues --  -10.28021 -10.27881 -10.27674 -10.27407 -10.26384
 Alpha  occ. eigenvalues --  -10.26078 -10.25653 -10.25607 -10.25180 -10.24933
 Alpha  occ. eigenvalues --  -10.24932 -10.24909 -10.24906 -10.24819 -10.24789
 Alpha  occ. eigenvalues --  -10.24652 -10.24514 -10.24511 -10.24100 -10.24072
 Alpha  occ. eigenvalues --  -10.24014 -10.23775 -10.23581 -10.23553 -10.23532
 Alpha  occ. eigenvalues --  -10.23524 -10.23470 -10.23461 -10.23249 -10.23151
 Alpha  occ. eigenvalues --  -10.23000 -10.22991 -10.22892 -10.22872 -10.22794
 Alpha  occ. eigenvalues --  -10.22771 -10.22769 -10.22729 -10.22638 -10.22437
 Alpha  occ. eigenvalues --  -10.22204 -10.22034 -10.21862 -10.21843 -10.21588
 Alpha  occ. eigenvalues --  -10.21477  -3.13581  -1.86442  -1.85966  -1.85802
 Alpha  occ. eigenvalues --   -1.12583  -1.10829  -1.05088  -1.04383  -1.04277
 Alpha  occ. eigenvalues --   -1.02522  -0.99852  -0.98843  -0.97962  -0.96802
 Alpha  occ. eigenvalues --   -0.87882  -0.84890  -0.84325  -0.83636  -0.83532
 Alpha  occ. eigenvalues --   -0.82996  -0.82870  -0.81887  -0.81678  -0.81279
 Alpha  occ. eigenvalues --   -0.80607  -0.80130  -0.79245  -0.78373  -0.77888
 Alpha  occ. eigenvalues --   -0.77199  -0.76511  -0.75614  -0.75418  -0.75011
 Alpha  occ. eigenvalues --   -0.74475  -0.72922  -0.72483  -0.71754  -0.70448
 Alpha  occ. eigenvalues --   -0.70234  -0.69954  -0.69511  -0.68951  -0.68332
 Alpha  occ. eigenvalues --   -0.67949  -0.67060  -0.65914  -0.64710  -0.63266
 Alpha  occ. eigenvalues --   -0.62849  -0.62697  -0.61231  -0.60965  -0.59932
 Alpha  occ. eigenvalues --   -0.59916  -0.59552  -0.59248  -0.58883  -0.58676
 Alpha  occ. eigenvalues --   -0.58421  -0.57607  -0.56897  -0.56607  -0.55015
 Alpha  occ. eigenvalues --   -0.54813  -0.54310  -0.53751  -0.53575  -0.52680
 Alpha  occ. eigenvalues --   -0.52244  -0.51622  -0.50861  -0.50308  -0.50104
 Alpha  occ. eigenvalues --   -0.50056  -0.49876  -0.49765  -0.49194  -0.48762
 Alpha  occ. eigenvalues --   -0.48434  -0.48298  -0.47993  -0.47630  -0.47274
 Alpha  occ. eigenvalues --   -0.47144  -0.46942  -0.46856  -0.46778  -0.46597
 Alpha  occ. eigenvalues --   -0.46418  -0.45909  -0.45538  -0.45367  -0.45273
 Alpha  occ. eigenvalues --   -0.45123  -0.44987  -0.44972  -0.44794  -0.44716
 Alpha  occ. eigenvalues --   -0.44091  -0.43895  -0.43656  -0.43466  -0.43318
 Alpha  occ. eigenvalues --   -0.43235  -0.43143  -0.42926  -0.42749  -0.42647
 Alpha  occ. eigenvalues --   -0.42331  -0.42093  -0.41996  -0.41745  -0.41630
 Alpha  occ. eigenvalues --   -0.41412  -0.41300  -0.41181  -0.41041  -0.40691
 Alpha  occ. eigenvalues --   -0.40433  -0.40117  -0.40110  -0.39904  -0.39448
 Alpha  occ. eigenvalues --   -0.39287  -0.39022  -0.38806  -0.38766  -0.38495
 Alpha  occ. eigenvalues --   -0.38194  -0.38149  -0.38052  -0.37895  -0.37869
 Alpha  occ. eigenvalues --   -0.37711  -0.37656  -0.37170  -0.36939  -0.36812
 Alpha  occ. eigenvalues --   -0.36622  -0.36346  -0.36247  -0.36236  -0.36024
 Alpha  occ. eigenvalues --   -0.35498  -0.35443  -0.35303  -0.34990  -0.34910
 Alpha  occ. eigenvalues --   -0.34693  -0.34555  -0.34531  -0.33917  -0.33528
 Alpha  occ. eigenvalues --   -0.33402  -0.33332  -0.32999  -0.32451  -0.32396
 Alpha  occ. eigenvalues --   -0.32246  -0.32033  -0.31997  -0.31543  -0.31229
 Alpha  occ. eigenvalues --   -0.30994  -0.30819  -0.30020  -0.29841  -0.29206
 Alpha  occ. eigenvalues --   -0.29165  -0.28948  -0.28046  -0.26588  -0.25954
 Alpha  occ. eigenvalues --   -0.25593  -0.25313  -0.24872  -0.24774  -0.20799
 Alpha  occ. eigenvalues --   -0.18234
 Alpha virt. eigenvalues --   -0.10530  -0.05116  -0.03722  -0.01568   0.00196
 Alpha virt. eigenvalues --    0.01011   0.01302   0.01441   0.01554   0.02715
 Alpha virt. eigenvalues --    0.04226   0.04248   0.04846   0.05703   0.05787

 Mulliken charges:
               1
     1  Mg   0.985865
     2  C   -0.017563
     3  C   -0.081926
     4  C   -0.037678
     5  C   -0.081190
     6  N   -0.361655
     7  C    0.030818
     8  C   -0.118770
     9  C   -0.132172
    10  C    0.047347
    11  C    0.050979
    12  C    0.000049
    13  C   -0.008441
    14  C    0.236326
    15  O   -0.255055
    16  O   -0.350952
    17  N   -0.535967
    18  C    0.191920
    19  C   -0.184239
    20  C   -0.078524
    21  C    0.171616
    22  C    0.028792
    23  C    0.074265
    24  O   -0.235633
    25  C   -0.033236
    26  N   -0.390039
    27  C    0.061332
    28  C   -0.123306
    29  C   -0.069856
    30  C    0.051324
    31  C    0.012139
    32  C   -0.044653
    33  C   -0.076098
    34  N   -0.436573
    35  C    0.132501
    36  C   -0.163963
    37  C   -0.067194
    38  C    0.168851
    39  C    0.088523
    40  C    0.115248
    41  O   -0.202555
    42  C   -0.071571
    43  C    0.247947
    44  O   -0.244225
    45  O   -0.367396
    46  C    0.125447
    47  C    0.230720
    48  C   -0.152768
    49  C   -0.207429
    50  C   -0.003022
    51  C   -0.012733
    52  C   -0.059658
    53  C   -0.002856
    54  C   -0.221878
    55  C   -0.022565
    56  C   -0.023359
    57  C   -0.030291
    58  C   -0.012859
    59  C   -0.228018
    60  C    0.001157
    61  C    0.014403
    62  C   -0.020013
    63  C   -0.085176
    64  C   -0.235255
    65  C    0.011752
    66  C   -0.018622
    67  H   -0.002569
    68  H    0.024895
    69  H    0.000635
    70  H    0.057721
    71  H    0.030232
    72  H    0.040175
    73  H    0.057121
    74  H    0.041434
    75  H    0.034881
    76  H    0.058065
    77  H    0.048178
    78  H    0.081016
    79  H    0.045409
    80  H    0.048588
    81  H    0.073856
    82  H    0.046071
    83  H    0.073448
    84  H    0.053163
    85  H    0.053114
    86  H    0.042298
    87  H    0.052253
    88  H    0.027266
    89  H    0.045768
    90  H    0.053636
    91  H    0.029803
    92  H    0.039704
    93  H    0.043943
    94  H    0.037832
    95  H    0.032321
    96  H    0.063480
    97  H    0.075566
    98  H    0.088875
    99  H    0.055771
   100  H    0.057564
   101  H    0.055522
   102  H    0.056927
   103  H    0.066933
   104  H    0.025709
   105  H    0.065317
   106  H    0.038579
   107  H    0.055830
   108  H    0.043559
   109  H    0.047776
   110  H    0.033646
   111  H    0.053378
   112  H    0.034674
   113  H    0.018440
   114  H    0.024687
   115  H    0.036816
   116  H    0.043858
   117  H    0.037569
   118  H    0.008810
   119  H    0.023661
   120  H    0.031019
   121  H    0.039748
   122  H    0.025811
   123  H    0.031301
   124  H    0.025043
   125  H    0.041131
   126  H    0.032654
   127  H    0.019030
   128  H    0.043788
   129  H    0.022816
   130  H    0.034917
   131  H    0.041989
   132  H    0.023960
   133  H    0.030140
   134  H    0.029483
   135  H    0.019768
   136  H    0.017921
   137  H    0.046945
   138  H    0.025620
   139  H    0.029016
   140  H    0.032309
 Sum of Mulliken charges =  -0.00000

 Dipole moment (field-independent basis, Debye):
    X=              5.2426    Y=              3.6336    Z=             -0.1077  Tot=              6.3796
 Quadrupole moment (field-independent basis, Debye-Ang):
   XX=           -369.6430   YY=           -431.4539   ZZ=           -403.7813
   XY=            -28.6121   XZ=             -7.8008   YZ=              0.2499

 Normal termination of Gaussian 16 at Sat Apr 30 07:08:22 2022.
