 Gaussian 16, Revision A.03,
 Gaussian 16:  ES64L-G16RevA.03 25-Dec-2016

 --------------------------------
 #p wB97XD/Def2SVP td=(nstates=5)
 --------------------------------

 ----------------------------------------------------
 step_651_chromophore_15 TDDFT with wB97XD functional
 ----------------------------------------------------
 Symbolic Z-matrix:
 Charge =  0 Multiplicity = 1

                         Standard orientation:
 ---------------------------------------------------------------------
 Center     Atomic      Atomic             Coordinates (Angstroms)
 Number     Number       Type             X           Y           Z
 ---------------------------------------------------------------------
      1         12           0       -4.630542    0.979068    0.285076
      2          6           0       -4.104500   -2.479861    0.518917
      3          6           0       -1.190184    1.389024    0.066830
      4          6           0       -5.221024    4.152867    0.206829
      5          6           0       -8.057620    0.275803    0.727617
      6          7           0       -2.869733   -0.422243    0.127503
      7          6           0       -2.926813   -1.774547    0.270487
      8          6           0       -1.653717   -2.382350   -0.042365
      9          6           0       -0.643061   -1.219592    0.318582
     10          6           0       -1.578493    0.024328    0.126010
     11          6           0       -0.093687   -1.163890    1.708953
     12          6           0       -1.564647   -2.758321   -1.552541
     13          6           0       -0.585409   -3.832513   -2.057802
     14          6           0        0.783347   -4.026280   -1.401212
     15          8           0        0.934531   -4.367479   -0.259350
     16          8           0        1.795218   -3.762440   -2.269726
     17          7           0       -3.388576    2.542751   -0.025305
     18          6           0       -1.996897    2.493494   -0.043900
     19          6           0       -1.532903    3.907568   -0.163493
     20          6           0       -2.707559    4.723749   -0.202131
     21          6           0       -3.843792    3.822915   -0.007613
     22          6           0       -0.103993    4.300439   -0.288142
     23          6           0       -2.825277    6.255576   -0.464745
     24          8           0       -3.900380    6.831536   -0.434937
     25          6           0       -1.632669    7.064922   -0.885952
     26          7           0       -6.401771    2.033340    0.385498
     27          6           0       -6.358941    3.372398    0.366387
     28          6           0       -7.790253    4.008445    0.376950
     29          6           0       -8.660494    2.758720    0.426665
     30          6           0       -7.651561    1.610411    0.464965
     31          6           0       -7.993055    5.000367    1.514763
     32          6           0       -9.617796    2.473814   -0.758575
     33          6           0      -11.122964    2.309583   -0.533017
     34          7           0       -5.861175   -0.719140    0.594452
     35          6           0       -7.226695   -0.858174    0.742597
     36          6           0       -7.647591   -2.273314    0.832215
     37          6           0       -6.387784   -2.930256    0.774906
     38          6           0       -5.356814   -1.934951    0.637659
     39          6           0       -9.044337   -2.818896    0.831223
     40          6           0       -5.811373   -4.197307    0.829616
     41          8           0       -6.262425   -5.318517    0.801499
     42          6           0       -4.361794   -3.941066    0.918201
     43          6           0       -3.582280   -4.935734    0.261062
     44          8           0       -3.809765   -5.360366   -0.855472
     45          8           0       -2.680710   -5.397649    1.180686
     46          6           0       -1.729306   -6.402210    0.764474
     47          6           0        3.167347   -4.002632   -1.791763
     48          6           0        3.984080   -2.726051   -2.061823
     49          6           0        5.273728   -2.443832   -1.733645
     50          6           0        6.161168   -3.440261   -0.961750
     51          6           0        5.869992   -0.977953   -1.947609
     52          6           0        7.362506   -0.726625   -2.014904
     53          6           0        7.655002   -0.261521   -3.464949
     54          6           0        7.808558    1.284534   -3.486953
     55          6           0        7.043849    1.965490   -4.677381
     56          6           0        9.283245    1.745600   -3.418430
     57          6           0        9.735351    2.555577   -2.206354
     58          6           0       10.642276    1.578932   -1.334584
     59          6           0       10.519651    1.797090    0.209526
     60          6           0       11.677133    2.567968    0.809567
     61          6           0       10.282955    0.499559    1.049427
     62          6           0        9.885556    0.882080    2.443430
     63          6           0       10.811349    0.066544    3.419669
     64          6           0       10.959023    0.709601    4.812155
     65          6           0       12.149169    0.124173    5.547777
     66          6           0        9.654166    0.571215    5.623795
     67          1           0       -0.122333    1.611492    0.126369
     68          1           0       -5.520781    5.201739    0.168790
     69          1           0       -9.126932    0.172690    0.925391
     70          1           0       -1.330377   -3.261648    0.515072
     71          1           0        0.175505   -1.070248   -0.386088
     72          1           0        0.693151   -0.416610    1.804839
     73          1           0        0.295504   -2.156566    1.938137
     74          1           0       -0.903517   -0.888374    2.385217
     75          1           0       -1.293945   -1.877742   -2.135351
     76          1           0       -2.563576   -2.989019   -1.923343
     77          1           0       -0.484629   -3.484298   -3.085213
     78          1           0       -1.134007   -4.763807   -2.198198
     79          1           0        0.583033    3.617359    0.210505
     80          1           0        0.181779    5.229274    0.205507
     81          1           0        0.088044    4.426204   -1.353481
     82          1           0       -0.976116    6.482808   -1.531921
     83          1           0       -1.088815    7.614468   -0.116162
     84          1           0       -2.085302    7.863170   -1.473507
     85          1           0       -8.068031    4.693563   -0.424372
     86          1           0       -9.312704    2.746920    1.300310
     87          1           0       -7.018612    5.152568    1.980326
     88          1           0       -8.661183    4.521188    2.229982
     89          1           0       -8.440537    5.934294    1.174531
     90          1           0       -9.401422    1.598888   -1.370631
     91          1           0       -9.508646    3.338246   -1.414024
     92          1           0      -11.492804    1.579153   -1.251782
     93          1           0      -11.623809    3.259921   -0.717493
     94          1           0      -11.422248    1.932578    0.445708
     95          1           0       -9.780006   -2.021928    0.939904
     96          1           0       -9.151231   -3.503367    1.672410
     97          1           0       -9.171025   -3.364789   -0.103342
     98          1           0       -4.101029   -4.008489    1.975048
     99          1           0       -2.097479   -7.394015    1.026469
    100          1           0       -0.845115   -6.240653    1.381981
    101          1           0       -1.389682   -6.382378   -0.270585
    102          1           0        3.668777   -4.834753   -2.285762
    103          1           0        3.237731   -4.305009   -0.746840
    104          1           0        3.413218   -1.940804   -2.556783
    105          1           0        6.954892   -3.797049   -1.618712
    106          1           0        5.675163   -4.331453   -0.563690
    107          1           0        6.479489   -2.751612   -0.179691
    108          1           0        5.632309   -0.488463   -1.003415
    109          1           0        5.308122   -0.550171   -2.777968
    110          1           0        7.935377   -1.637963   -1.843555
    111          1           0        7.568896   -0.005638   -1.223752
    112          1           0        7.002712   -0.598019   -4.269485
    113          1           0        8.599066   -0.749123   -3.709064
    114          1           0        7.357243    1.727870   -2.598902
    115          1           0        7.365615    3.006372   -4.685505
    116          1           0        5.966223    1.833036   -4.574391
    117          1           0        7.418564    1.509267   -5.592841
    118          1           0        9.455819    2.380628   -4.287928
    119          1           0        9.880071    0.845116   -3.563324
    120          1           0        8.783535    2.806882   -1.738586
    121          1           0       10.273937    3.417254   -2.602126
    122          1           0       11.669258    1.740552   -1.660257
    123          1           0       10.382020    0.550451   -1.584493
    124          1           0        9.668946    2.477571    0.238019
    125          1           0       11.399405    3.122200    1.705824
    126          1           0       12.193164    3.137397    0.037057
    127          1           0       12.449261    1.864588    1.122465
    128          1           0       11.193784   -0.083837    0.910763
    129          1           0        9.383265   -0.036696    0.746709
    130          1           0        8.912376    0.456638    2.689336
    131          1           0        9.969371    1.931693    2.725708
    132          1           0       11.799274   -0.047509    2.974348
    133          1           0       10.543116   -0.956180    3.683671
    134          1           0       11.055041    1.790868    4.711212
    135          1           0       12.715881    0.981139    5.910228
    136          1           0       12.872205   -0.226443    4.810777
    137          1           0       12.027183   -0.531583    6.409979
    138          1           0        8.929638    0.178005    4.910009
    139          1           0        9.227675    1.498195    6.006886
    140          1           0        9.709766   -0.036358    6.527805
 ---------------------------------------------------------------------

 SCF Done:  E(RwB97XD) =  -3007.86880236     A.U. after   19 cycles

 Excitation energies and oscillator strengths:

 Excited State   1:      Singlet-A      1.6647 eV  744.80 nm  f=0.3748  <S**2>=0.000
     245 -> 248        0.19556
     246 -> 247        0.68075
     245 <- 248        0.11948
 This state for optimization and/or second-order correction.
 Total Energy, E(TD-HF/TD-DFT) =  -3007.80762680
 Copying the excited state density for this state as the 1-particle RhoCI density.

 Excited State   2:      Singlet-A      2.2295 eV  556.12 nm  f=0.0636  <S**2>=0.000
     245 -> 247        0.61068
     246 -> 248       -0.34653

 Excited State   3:      Singlet-A      3.4183 eV  362.71 nm  f=0.3976  <S**2>=0.000
     241 -> 247        0.24828
     241 -> 249        0.11231
     243 -> 247        0.31216
     243 -> 249        0.11536
     245 -> 247        0.24157
     246 -> 248        0.46305

 Excited State   4:      Singlet-A      3.5339 eV  350.84 nm  f=0.3295  <S**2>=0.000
     241 -> 247       -0.11981
     241 -> 249       -0.17595
     241 -> 250        0.11758
     242 -> 247       -0.32463
     242 -> 249       -0.10156
     242 -> 250        0.10135
     243 -> 247       -0.30882
     245 -> 247        0.21048
     246 -> 248        0.37639

 Excited State   5:      Singlet-A      3.6251 eV  342.02 nm  f=0.0031  <S**2>=0.000
     241 -> 247       -0.36797
     242 -> 247       -0.23125
     242 -> 249       -0.13893
     243 -> 247        0.50191

 The electronic state is 1-A.
 Alpha  occ. eigenvalues --  -46.94305 -19.31331 -19.30012 -19.25630 -19.24078
 Alpha  occ. eigenvalues --  -19.24009 -19.22527 -14.46461 -14.46207 -14.44117
 Alpha  occ. eigenvalues --  -14.43590 -10.44036 -10.41792 -10.39389 -10.36680
 Alpha  occ. eigenvalues --  -10.36566 -10.34810 -10.34435 -10.34420 -10.34385
 Alpha  occ. eigenvalues --  -10.34377 -10.34339 -10.33996 -10.33752 -10.32852
 Alpha  occ. eigenvalues --  -10.32603 -10.32012 -10.31941 -10.31416 -10.31290
 Alpha  occ. eigenvalues --  -10.31281 -10.31211 -10.31127 -10.31109 -10.31100
 Alpha  occ. eigenvalues --  -10.31048 -10.31035 -10.30844 -10.30512 -10.30486
 Alpha  occ. eigenvalues --  -10.30385 -10.30266 -10.30024 -10.29921 -10.29879
 Alpha  occ. eigenvalues --  -10.29850 -10.29844 -10.29809 -10.29727 -10.29432
 Alpha  occ. eigenvalues --  -10.29351 -10.29274 -10.29233 -10.29231 -10.29169
 Alpha  occ. eigenvalues --  -10.29140 -10.29135 -10.29071 -10.28999 -10.28866
 Alpha  occ. eigenvalues --  -10.28556 -10.28426 -10.28311 -10.28179 -10.28013
 Alpha  occ. eigenvalues --  -10.27899  -3.20376  -1.93989  -1.93515  -1.93347
 Alpha  occ. eigenvalues --   -1.19937  -1.18257  -1.12581  -1.11902  -1.11593
 Alpha  occ. eigenvalues --   -1.09927  -1.07208  -1.06240  -1.05345  -1.04167
 Alpha  occ. eigenvalues --   -0.95522  -0.92559  -0.91993  -0.91208  -0.91122
 Alpha  occ. eigenvalues --   -0.90641  -0.90484  -0.89544  -0.89272  -0.88953
 Alpha  occ. eigenvalues --   -0.88284  -0.87764  -0.86889  -0.85996  -0.85498
 Alpha  occ. eigenvalues --   -0.84841  -0.84164  -0.83352  -0.83044  -0.82639
 Alpha  occ. eigenvalues --   -0.82132  -0.80571  -0.80130  -0.79343  -0.78103
 Alpha  occ. eigenvalues --   -0.77906  -0.77648  -0.77076  -0.76642  -0.75977
 Alpha  occ. eigenvalues --   -0.75565  -0.74615  -0.73417  -0.72314  -0.70787
 Alpha  occ. eigenvalues --   -0.70393  -0.70334  -0.68810  -0.68574  -0.67535
 Alpha  occ. eigenvalues --   -0.67389  -0.67052  -0.66744  -0.66336  -0.66174
 Alpha  occ. eigenvalues --   -0.66081  -0.65270  -0.64354  -0.64234  -0.62461
 Alpha  occ. eigenvalues --   -0.62308  -0.61717  -0.61203  -0.60973  -0.60106
 Alpha  occ. eigenvalues --   -0.59756  -0.59047  -0.58256  -0.57737  -0.57568
 Alpha  occ. eigenvalues --   -0.57497  -0.57339  -0.57193  -0.56650  -0.56234
 Alpha  occ. eigenvalues --   -0.55791  -0.55706  -0.55390  -0.54856  -0.54673
 Alpha  occ. eigenvalues --   -0.54515  -0.54434  -0.54231  -0.54196  -0.53970
 Alpha  occ. eigenvalues --   -0.53799  -0.53232  -0.52905  -0.52766  -0.52626
 Alpha  occ. eigenvalues --   -0.52458  -0.52318  -0.52290  -0.52109  -0.52071
 Alpha  occ. eigenvalues --   -0.51432  -0.51268  -0.51001  -0.50820  -0.50595
 Alpha  occ. eigenvalues --   -0.50544  -0.50493  -0.50214  -0.49995  -0.49923
 Alpha  occ. eigenvalues --   -0.49600  -0.49321  -0.49251  -0.48982  -0.48903
 Alpha  occ. eigenvalues --   -0.48734  -0.48546  -0.48347  -0.48207  -0.47926
 Alpha  occ. eigenvalues --   -0.47626  -0.47308  -0.47287  -0.47046  -0.46630
 Alpha  occ. eigenvalues --   -0.46467  -0.46260  -0.45942  -0.45887  -0.45631
 Alpha  occ. eigenvalues --   -0.45342  -0.45264  -0.45208  -0.45022  -0.44952
 Alpha  occ. eigenvalues --   -0.44867  -0.44753  -0.44355  -0.44113  -0.43951
 Alpha  occ. eigenvalues --   -0.43738  -0.43479  -0.43410  -0.43353  -0.43081
 Alpha  occ. eigenvalues --   -0.42586  -0.42538  -0.42325  -0.41961  -0.41860
 Alpha  occ. eigenvalues --   -0.41682  -0.41551  -0.41523  -0.40914  -0.40550
 Alpha  occ. eigenvalues --   -0.40443  -0.40340  -0.40039  -0.39502  -0.39325
 Alpha  occ. eigenvalues --   -0.39255  -0.39106  -0.39017  -0.38515  -0.38167
 Alpha  occ. eigenvalues --   -0.38007  -0.37759  -0.36993  -0.36887  -0.36103
 Alpha  occ. eigenvalues --   -0.35996  -0.35812  -0.34978  -0.33263  -0.33045
 Alpha  occ. eigenvalues --   -0.32223  -0.32172  -0.31743  -0.31541  -0.25837
 Alpha  occ. eigenvalues --   -0.22343
 Alpha virt. eigenvalues --   -0.06351   0.00218   0.02548   0.04915   0.06902
 Alpha virt. eigenvalues --    0.07244   0.07723   0.08028   0.08127   0.09185
 Alpha virt. eigenvalues --    0.10947   0.10981   0.11644   0.12435   0.12500

 Mulliken charges:
               1
     1  Mg   0.975074
     2  C   -0.025747
     3  C   -0.096765
     4  C   -0.057745
     5  C   -0.103878
     6  N   -0.327806
     7  C   -0.004546
     8  C   -0.080122
     9  C   -0.102687
    10  C    0.028763
    11  C    0.058469
    12  C    0.003388
    13  C    0.008384
    14  C    0.222311
    15  O   -0.250640
    16  O   -0.349306
    17  N   -0.502136
    18  C    0.183896
    19  C   -0.171445
    20  C   -0.072724
    21  C    0.162028
    22  C    0.038596
    23  C    0.069667
    24  O   -0.230168
    25  C   -0.023849
    26  N   -0.353278
    27  C    0.055573
    28  C   -0.102173
    29  C   -0.044229
    30  C    0.043151
    31  C    0.022109
    32  C   -0.032231
    33  C   -0.060471
    34  N   -0.395529
    35  C    0.129734
    36  C   -0.168253
    37  C   -0.063643
    38  C    0.152299
    39  C    0.101768
    40  C    0.099688
    41  O   -0.191718
    42  C   -0.027678
    43  C    0.217547
    44  O   -0.234955
    45  O   -0.363292
    46  C    0.140983
    47  C    0.243616
    48  C   -0.161680
    49  C   -0.196489
    50  C    0.011886
    51  C    0.006156
    52  C   -0.037153
    53  C    0.013097
    54  C   -0.194955
    55  C   -0.005828
    56  C   -0.008804
    57  C   -0.011040
    58  C    0.001904
    59  C   -0.194118
    60  C    0.012473
    61  C    0.032945
    62  C   -0.001761
    63  C   -0.062282
    64  C   -0.205657
    65  C    0.022415
    66  C   -0.008242
    67  H   -0.009362
    68  H    0.019132
    69  H   -0.006933
    70  H    0.037093
    71  H    0.020536
    72  H    0.034677
    73  H    0.052551
    74  H    0.034379
    75  H    0.026263
    76  H    0.050643
    77  H    0.043263
    78  H    0.075128
    79  H    0.041727
    80  H    0.043197
    81  H    0.069028
    82  H    0.040256
    83  H    0.071316
    84  H    0.051252
    85  H    0.044030
    86  H    0.029292
    87  H    0.045017
    88  H    0.020870
    89  H    0.041524
    90  H    0.044683
    91  H    0.020869
    92  H    0.034127
    93  H    0.038122
    94  H    0.031254
    95  H    0.027063
    96  H    0.059213
    97  H    0.071425
    98  H    0.081218
    99  H    0.052771
   100  H    0.055402
   101  H    0.048431
   102  H    0.052272
   103  H    0.062000
   104  H    0.022745
   105  H    0.059665
   106  H    0.034400
   107  H    0.048300
   108  H    0.035273
   109  H    0.038053
   110  H    0.024659
   111  H    0.039032
   112  H    0.027028
   113  H    0.009698
   114  H    0.008211
   115  H    0.029719
   116  H    0.038320
   117  H    0.030231
   118  H    0.000520
   119  H    0.011736
   120  H    0.019178
   121  H    0.033858
   122  H    0.017907
   123  H    0.017194
   124  H    0.010268
   125  H    0.035249
   126  H    0.026693
   127  H    0.010563
   128  H    0.034148
   129  H    0.012724
   130  H    0.026251
   131  H    0.029981
   132  H    0.009755
   133  H    0.019999
   134  H    0.017426
   135  H    0.013633
   136  H    0.011290
   137  H    0.042510
   138  H    0.016305
   139  H    0.024051
   140  H    0.026807
 Sum of Mulliken charges =  -0.00000

 Dipole moment (field-independent basis, Debye):
    X=              5.3300    Y=              3.6640    Z=             -0.0849  Tot=              6.4684
 Quadrupole moment (field-independent basis, Debye-Ang):
   XX=           -370.4343   YY=           -429.9552   ZZ=           -403.3306
   XY=            -27.7353   XZ=             -7.8431   YZ=             -0.0645

 Normal termination of Gaussian 16 at Sat Apr 30 07:33:40 2022.
