 Gaussian 16, Revision A.03,
 Gaussian 16:  ES64L-G16RevA.03 25-Dec-2016

 --------------------
 #p ZINDO=(nstates=5)
 --------------------

 -----------------------------
 step_651_chromophore_15 ZINDO
 -----------------------------
 Symbolic Z-matrix:
 Charge =  0 Multiplicity = 1

                         Standard orientation:
 ---------------------------------------------------------------------
 Center     Atomic      Atomic             Coordinates (Angstroms)
 Number     Number       Type             X           Y           Z
 ---------------------------------------------------------------------
      1         12           0       -4.630542    0.979068    0.285076
      2          6           0       -4.104500   -2.479861    0.518917
      3          6           0       -1.190184    1.389024    0.066830
      4          6           0       -5.221024    4.152867    0.206829
      5          6           0       -8.057620    0.275803    0.727617
      6          7           0       -2.869733   -0.422243    0.127503
      7          6           0       -2.926813   -1.774547    0.270487
      8          6           0       -1.653717   -2.382350   -0.042365
      9          6           0       -0.643061   -1.219592    0.318582
     10          6           0       -1.578493    0.024328    0.126010
     11          6           0       -0.093687   -1.163890    1.708953
     12          6           0       -1.564647   -2.758321   -1.552541
     13          6           0       -0.585409   -3.832513   -2.057802
     14          6           0        0.783347   -4.026280   -1.401212
     15          8           0        0.934531   -4.367479   -0.259350
     16          8           0        1.795218   -3.762440   -2.269726
     17          7           0       -3.388576    2.542751   -0.025305
     18          6           0       -1.996897    2.493494   -0.043900
     19          6           0       -1.532903    3.907568   -0.163493
     20          6           0       -2.707559    4.723749   -0.202131
     21          6           0       -3.843792    3.822915   -0.007613
     22          6           0       -0.103993    4.300439   -0.288142
     23          6           0       -2.825277    6.255576   -0.464745
     24          8           0       -3.900380    6.831536   -0.434937
     25          6           0       -1.632669    7.064922   -0.885952
     26          7           0       -6.401771    2.033340    0.385498
     27          6           0       -6.358941    3.372398    0.366387
     28          6           0       -7.790253    4.008445    0.376950
     29          6           0       -8.660494    2.758720    0.426665
     30          6           0       -7.651561    1.610411    0.464965
     31          6           0       -7.993055    5.000367    1.514763
     32          6           0       -9.617796    2.473814   -0.758575
     33          6           0      -11.122964    2.309583   -0.533017
     34          7           0       -5.861175   -0.719140    0.594452
     35          6           0       -7.226695   -0.858174    0.742597
     36          6           0       -7.647591   -2.273314    0.832215
     37          6           0       -6.387784   -2.930256    0.774906
     38          6           0       -5.356814   -1.934951    0.637659
     39          6           0       -9.044337   -2.818896    0.831223
     40          6           0       -5.811373   -4.197307    0.829616
     41          8           0       -6.262425   -5.318517    0.801499
     42          6           0       -4.361794   -3.941066    0.918201
     43          6           0       -3.582280   -4.935734    0.261062
     44          8           0       -3.809765   -5.360366   -0.855472
     45          8           0       -2.680710   -5.397649    1.180686
     46          6           0       -1.729306   -6.402210    0.764474
     47          6           0        3.167347   -4.002632   -1.791763
     48          6           0        3.984080   -2.726051   -2.061823
     49          6           0        5.273728   -2.443832   -1.733645
     50          6           0        6.161168   -3.440261   -0.961750
     51          6           0        5.869992   -0.977953   -1.947609
     52          6           0        7.362506   -0.726625   -2.014904
     53          6           0        7.655002   -0.261521   -3.464949
     54          6           0        7.808558    1.284534   -3.486953
     55          6           0        7.043849    1.965490   -4.677381
     56          6           0        9.283245    1.745600   -3.418430
     57          6           0        9.735351    2.555577   -2.206354
     58          6           0       10.642276    1.578932   -1.334584
     59          6           0       10.519651    1.797090    0.209526
     60          6           0       11.677133    2.567968    0.809567
     61          6           0       10.282955    0.499559    1.049427
     62          6           0        9.885556    0.882080    2.443430
     63          6           0       10.811349    0.066544    3.419669
     64          6           0       10.959023    0.709601    4.812155
     65          6           0       12.149169    0.124173    5.547777
     66          6           0        9.654166    0.571215    5.623795
     67          1           0       -0.122333    1.611492    0.126369
     68          1           0       -5.520781    5.201739    0.168790
     69          1           0       -9.126932    0.172690    0.925391
     70          1           0       -1.330377   -3.261648    0.515072
     71          1           0        0.175505   -1.070248   -0.386088
     72          1           0        0.693151   -0.416610    1.804839
     73          1           0        0.295504   -2.156566    1.938137
     74          1           0       -0.903517   -0.888374    2.385217
     75          1           0       -1.293945   -1.877742   -2.135351
     76          1           0       -2.563576   -2.989019   -1.923343
     77          1           0       -0.484629   -3.484298   -3.085213
     78          1           0       -1.134007   -4.763807   -2.198198
     79          1           0        0.583033    3.617359    0.210505
     80          1           0        0.181779    5.229274    0.205507
     81          1           0        0.088044    4.426204   -1.353481
     82          1           0       -0.976116    6.482808   -1.531921
     83          1           0       -1.088815    7.614468   -0.116162
     84          1           0       -2.085302    7.863170   -1.473507
     85          1           0       -8.068031    4.693563   -0.424372
     86          1           0       -9.312704    2.746920    1.300310
     87          1           0       -7.018612    5.152568    1.980326
     88          1           0       -8.661183    4.521188    2.229982
     89          1           0       -8.440537    5.934294    1.174531
     90          1           0       -9.401422    1.598888   -1.370631
     91          1           0       -9.508646    3.338246   -1.414024
     92          1           0      -11.492804    1.579153   -1.251782
     93          1           0      -11.623809    3.259921   -0.717493
     94          1           0      -11.422248    1.932578    0.445708
     95          1           0       -9.780006   -2.021928    0.939904
     96          1           0       -9.151231   -3.503367    1.672410
     97          1           0       -9.171025   -3.364789   -0.103342
     98          1           0       -4.101029   -4.008489    1.975048
     99          1           0       -2.097479   -7.394015    1.026469
    100          1           0       -0.845115   -6.240653    1.381981
    101          1           0       -1.389682   -6.382378   -0.270585
    102          1           0        3.668777   -4.834753   -2.285762
    103          1           0        3.237731   -4.305009   -0.746840
    104          1           0        3.413218   -1.940804   -2.556783
    105          1           0        6.954892   -3.797049   -1.618712
    106          1           0        5.675163   -4.331453   -0.563690
    107          1           0        6.479489   -2.751612   -0.179691
    108          1           0        5.632309   -0.488463   -1.003415
    109          1           0        5.308122   -0.550171   -2.777968
    110          1           0        7.935377   -1.637963   -1.843555
    111          1           0        7.568896   -0.005638   -1.223752
    112          1           0        7.002712   -0.598019   -4.269485
    113          1           0        8.599066   -0.749123   -3.709064
    114          1           0        7.357243    1.727870   -2.598902
    115          1           0        7.365615    3.006372   -4.685505
    116          1           0        5.966223    1.833036   -4.574391
    117          1           0        7.418564    1.509267   -5.592841
    118          1           0        9.455819    2.380628   -4.287928
    119          1           0        9.880071    0.845116   -3.563324
    120          1           0        8.783535    2.806882   -1.738586
    121          1           0       10.273937    3.417254   -2.602126
    122          1           0       11.669258    1.740552   -1.660257
    123          1           0       10.382020    0.550451   -1.584493
    124          1           0        9.668946    2.477571    0.238019
    125          1           0       11.399405    3.122200    1.705824
    126          1           0       12.193164    3.137397    0.037057
    127          1           0       12.449261    1.864588    1.122465
    128          1           0       11.193784   -0.083837    0.910763
    129          1           0        9.383265   -0.036696    0.746709
    130          1           0        8.912376    0.456638    2.689336
    131          1           0        9.969371    1.931693    2.725708
    132          1           0       11.799274   -0.047509    2.974348
    133          1           0       10.543116   -0.956180    3.683671
    134          1           0       11.055041    1.790868    4.711212
    135          1           0       12.715881    0.981139    5.910228
    136          1           0       12.872205   -0.226443    4.810777
    137          1           0       12.027183   -0.531583    6.409979
    138          1           0        8.929638    0.178005    4.910009
    139          1           0        9.227675    1.498195    6.006886
    140          1           0        9.709766   -0.036358    6.527805
 ---------------------------------------------------------------------

 SCF Done:  E(RZINDO/S) =  -474.751072970     A.U. after   19 cycles

 Excitation energies and oscillator strengths:

 Excited State   1:      Singlet-A      1.2536 eV  989.01 nm  f=0.5979  <S**2>=0.000
     175 ->178        -0.20233
     176 ->177         0.66007
 This state for optimization and/or second-order correction.
 Total Energy, E(CIS/TDA) =  -474.705003496
 Copying the excited state density for this state as the 1-particle RhoCI density.

 Excited State   2:      Singlet-A      1.9300 eV  642.39 nm  f=0.0027  <S**2>=0.000
     175 ->177         0.48914
     176 ->178         0.49200

 Excited State   3:      Singlet-A      2.8833 eV  430.01 nm  f=0.0646  <S**2>=0.000
     169 ->179        -0.10171
     170 ->177         0.35001
     170 ->178        -0.10521
     170 ->179         0.34621
     170 ->180         0.26639
     170 ->186        -0.16753
     170 ->188        -0.13576
     170 ->200         0.12102
     175 ->177        -0.10239
     176 ->178         0.11425

 Excited State   4:      Singlet-A      2.9626 eV  418.50 nm  f=0.1071  <S**2>=0.000
     175 ->177         0.14559
     176 ->178        -0.17029
     176 ->179         0.62941

 Excited State   5:      Singlet-A      3.0409 eV  407.72 nm  f=0.8498  <S**2>=0.000
     168 ->177        -0.13726
     168 ->179         0.19552
     168 ->180        -0.21733
     168 ->186        -0.12822
     175 ->177         0.36766
     176 ->178        -0.36672
     176 ->179        -0.19438
     176 ->180         0.11977

 The electronic state is 1-A.
 Alpha  occ. eigenvalues --   -1.86642  -1.83299  -1.80741  -1.74610  -1.73546
 Alpha  occ. eigenvalues --   -1.71558  -1.66953  -1.63005  -1.61252  -1.58994
 Alpha  occ. eigenvalues --   -1.55185  -1.51478  -1.49052  -1.48219  -1.47856
 Alpha  occ. eigenvalues --   -1.46420  -1.42792  -1.41651  -1.39543  -1.39181
 Alpha  occ. eigenvalues --   -1.37893  -1.34089  -1.33745  -1.32669  -1.29408
 Alpha  occ. eigenvalues --   -1.27413  -1.25437  -1.21839  -1.20729  -1.19519
 Alpha  occ. eigenvalues --   -1.18426  -1.17281  -1.15666  -1.14781  -1.13514
 Alpha  occ. eigenvalues --   -1.12568  -1.10264  -1.09422  -1.05371  -1.04177
 Alpha  occ. eigenvalues --   -1.03641  -1.00942  -0.98103  -0.97309  -0.96834
 Alpha  occ. eigenvalues --   -0.95597  -0.94713  -0.94149  -0.92897  -0.91632
 Alpha  occ. eigenvalues --   -0.91290  -0.90323  -0.89223  -0.88214  -0.86388
 Alpha  occ. eigenvalues --   -0.85934  -0.85459  -0.83357  -0.83032  -0.81395
 Alpha  occ. eigenvalues --   -0.80230  -0.79178  -0.78668  -0.77734  -0.77272
 Alpha  occ. eigenvalues --   -0.76199  -0.75047  -0.74580  -0.73649  -0.73234
 Alpha  occ. eigenvalues --   -0.72940  -0.72636  -0.71557  -0.71125  -0.70773
 Alpha  occ. eigenvalues --   -0.70088  -0.69537  -0.69057  -0.68591  -0.68257
 Alpha  occ. eigenvalues --   -0.67854  -0.66912  -0.66564  -0.66060  -0.65893
 Alpha  occ. eigenvalues --   -0.65808  -0.65089  -0.64417  -0.63763  -0.63305
 Alpha  occ. eigenvalues --   -0.63138  -0.63104  -0.62843  -0.62087  -0.61704
 Alpha  occ. eigenvalues --   -0.61452  -0.61378  -0.60700  -0.60439  -0.60201
 Alpha  occ. eigenvalues --   -0.59754  -0.59215  -0.58439  -0.58194  -0.57815
 Alpha  occ. eigenvalues --   -0.57487  -0.57424  -0.57095  -0.56946  -0.56110
 Alpha  occ. eigenvalues --   -0.56019  -0.55293  -0.54876  -0.54749  -0.54322
 Alpha  occ. eigenvalues --   -0.54081  -0.53625  -0.53430  -0.52966  -0.52520
 Alpha  occ. eigenvalues --   -0.52321  -0.52143  -0.51880  -0.51817  -0.51411
 Alpha  occ. eigenvalues --   -0.51188  -0.51132  -0.50971  -0.50283  -0.49816
 Alpha  occ. eigenvalues --   -0.49612  -0.49385  -0.49259  -0.49123  -0.48677
 Alpha  occ. eigenvalues --   -0.48541  -0.48369  -0.48260  -0.47888  -0.47643
 Alpha  occ. eigenvalues --   -0.47458  -0.47327  -0.46682  -0.46506  -0.46142
 Alpha  occ. eigenvalues --   -0.45894  -0.45643  -0.45559  -0.45159  -0.45090
 Alpha  occ. eigenvalues --   -0.45061  -0.44805  -0.44342  -0.44266  -0.44171
 Alpha  occ. eigenvalues --   -0.43861  -0.43463  -0.42565  -0.42277  -0.42149
 Alpha  occ. eigenvalues --   -0.41620  -0.41146  -0.40951  -0.39202  -0.38965
 Alpha  occ. eigenvalues --   -0.37481  -0.36673  -0.35191  -0.34874  -0.34164
 Alpha  occ. eigenvalues --   -0.33004  -0.32521  -0.32181  -0.32055  -0.26609
 Alpha  occ. eigenvalues --   -0.21124
 Alpha virt. eigenvalues --   -0.07842  -0.02117  -0.00159   0.01684   0.02102
 Alpha virt. eigenvalues --    0.02933   0.03075   0.03493   0.04607   0.05262
 Alpha virt. eigenvalues --    0.06573   0.06692   0.07418   0.08363   0.08548

 Mulliken charges:
               1
     1  Mg   0.423476
     2  C   -0.059522
     3  C   -0.071042
     4  C   -0.065072
     5  C   -0.077115
     6  N   -0.292943
     7  C    0.151629
     8  C    0.018643
     9  C    0.003295
    10  C    0.112222
    11  C   -0.041113
    12  C   -0.014821
    13  C    0.000590
    14  C    0.480187
    15  O   -0.518973
    16  O   -0.262650
    17  N   -0.318899
    18  C    0.095126
    19  C    0.000051
    20  C   -0.056756
    21  C    0.133479
    22  C   -0.039017
    23  C    0.329377
    24  O   -0.519028
    25  C   -0.034441
    26  N   -0.246049
    27  C    0.118306
    28  C   -0.001798
    29  C    0.008226
    30  C    0.135586
    31  C   -0.054747
    32  C   -0.032960
    33  C   -0.056906
    34  N   -0.322559
    35  C    0.096517
    36  C    0.034607
    37  C   -0.063824
    38  C    0.127137
    39  C   -0.028277
    40  C    0.347234
    41  O   -0.524046
    42  C    0.061556
    43  C    0.496883
    44  O   -0.523635
    45  O   -0.271029
    46  C    0.073426
    47  C    0.105481
    48  C   -0.092654
    49  C   -0.025814
    50  C   -0.049074
    51  C   -0.025850
    52  C   -0.029608
    53  C   -0.032143
    54  C   -0.019219
    55  C   -0.060809
    56  C   -0.040894
    57  C   -0.042089
    58  C   -0.040437
    59  C   -0.020153
    60  C   -0.055374
    61  C   -0.028327
    62  C   -0.035686
    63  C   -0.043685
    64  C   -0.008024
    65  C   -0.062196
    66  C   -0.063601
    67  H    0.025824
    68  H    0.040643
    69  H    0.025989
    70  H    0.038823
    71  H    0.026029
    72  H    0.020704
    73  H    0.024249
    74  H    0.022219
    75  H    0.016906
    76  H    0.030489
    77  H    0.022382
    78  H    0.053375
    79  H    0.024137
    80  H    0.019802
    81  H    0.036016
    82  H    0.029456
    83  H    0.047902
    84  H    0.032953
    85  H    0.040759
    86  H    0.031706
    87  H    0.027727
    88  H    0.015174
    89  H    0.024939
    90  H    0.025640
    91  H    0.013119
    92  H    0.016017
    93  H    0.018546
    94  H    0.019773
    95  H    0.024349
    96  H    0.037555
    97  H    0.044768
    98  H    0.052598
    99  H    0.040017
   100  H    0.028077
   101  H    0.049447
   102  H    0.043676
   103  H    0.057333
   104  H    0.027718
   105  H    0.031376
   106  H    0.026246
   107  H    0.032457
   108  H    0.019676
   109  H    0.030606
   110  H    0.019786
   111  H    0.029520
   112  H    0.028404
   113  H    0.007720
   114  H    0.014694
   115  H    0.018753
   116  H    0.022187
   117  H    0.018267
   118  H    0.007040
   119  H    0.018102
   120  H    0.029305
   121  H    0.027903
   122  H    0.018939
   123  H    0.020666
   124  H    0.014373
   125  H    0.024760
   126  H    0.017385
   127  H    0.010126
   128  H    0.033040
   129  H    0.013964
   130  H    0.020181
   131  H    0.035876
   132  H    0.010376
   133  H    0.021650
   134  H    0.018245
   135  H    0.004069
   136  H    0.015632
   137  H    0.033559
   138  H    0.015577
   139  H    0.012526
   140  H    0.020005
 Sum of Mulliken charges =  -0.00000

 Dipole moment (field-independent basis, Debye):
    X=              6.0421    Y=              4.2633    Z=              0.6041  Tot=              7.4194
 N-N= 4.397510737300D+03 E-N= 0.000000000000D+00  KE=-9.469804817031D+03
 Leave Link  601 at Sat Apr 30 07:45:00 2022, MaxMem=  6710886400 cpu:               2.9 elap:               0.1
 (Enter /sw/apps/gaussian-16.0/g16/l9999.exe)
 1\1\GINC-BP1-COMPUTE150\SP\RZINDO CIS\STO-3G\C55H74Mg1N4O6\OF15641\30-
 Apr-2022\0\\#p ZINDO=(nstates=5)\\step_651_chromophore_15 ZINDO\\0,1\M
 g,0,46.075,34.792,28.16\C,0,44.675,32.966,30.806\C,0,46.436,37.476,30.
 332\C,0,47.231,36.423,25.624\C,0,45.403,31.98,26.141\N,0,45.752,35.102
 ,30.371\C,0,45.155,34.212,31.21\C,0,45.247,34.653,32.583\C,0,45.31,36.
 225,32.414\C,0,45.912,36.32,30.969\C,0,44.025,36.991,32.422\C,0,46.538
 ,34.107,33.265\C,0,46.65,33.986,34.795\C,0,45.973,35.,35.72\O,0,44.784

 Normal termination of Gaussian 16 at Sat Apr 30 07:45:00 2022.
