 Gaussian 16, Revision A.03,
 Gaussian 16:  ES64L-G16RevA.03 25-Dec-2016

 ------------------------------
 #p blyp/Def2SVP td=(nstates=5)
 ------------------------------

 --------------------------------------------------
 step_251_chromophore_22 TDDFT with blyp functional
 --------------------------------------------------
 Symbolic Z-matrix:
 Charge =  0 Multiplicity = 1

                         Standard orientation:
 ---------------------------------------------------------------------
 Center     Atomic      Atomic             Coordinates (Angstroms)
 Number     Number       Type             X           Y           Z
 ---------------------------------------------------------------------
      1         12           0       -6.235209    0.524406   -0.190141
      2          6           0       -3.800560   -2.014786    0.477975
      3          6           0       -4.000251    2.889474    0.907730
      4          6           0       -8.606898    2.924136   -0.345716
      5          6           0       -8.642912   -2.049183   -0.334927
      6          7           0       -4.152123    0.417083    0.581873
      7          6           0       -3.305384   -0.694737    0.714027
      8          6           0       -1.940296   -0.225992    1.148196
      9          6           0       -2.249416    1.211649    1.744605
     10          6           0       -3.617723    1.529129    1.072903
     11          6           0       -2.355678    1.074030    3.305255
     12          6           0       -0.843539   -0.315906    0.029099
     13          6           0        0.383877   -0.858059    0.566509
     14          6           0        1.458889   -1.330713   -0.536066
     15          8           0        1.233333   -1.837989   -1.613622
     16          8           0        2.700675   -1.339275    0.118115
     17          7           0       -6.158520    2.640255    0.079904
     18          6           0       -5.145171    3.411027    0.492615
     19          6           0       -5.534902    4.785463    0.416159
     20          6           0       -6.869967    4.838380    0.074583
     21          6           0       -7.304696    3.382892   -0.150142
     22          6           0       -4.599808    5.942492    0.891536
     23          6           0       -7.762045    6.072649   -0.170742
     24          8           0       -8.927180    5.909972   -0.431431
     25          6           0       -7.172791    7.463488   -0.177282
     26          7           0       -8.368770    0.411183   -0.048137
     27          6           0       -9.096810    1.573668   -0.276586
     28          6           0      -10.523571    1.254098   -0.584242
     29          6           0      -10.540738   -0.351911   -0.604756
     30          6           0       -9.089894   -0.706743   -0.379061
     31          6           0      -11.485341    1.904083    0.352128
     32          6           0      -11.160851   -1.078705   -1.920912
     33          6           0      -12.342187   -1.948543   -1.744363
     34          7           0       -6.278412   -1.606893   -0.031629
     35          6           0       -7.347150   -2.470831   -0.113140
     36          6           0       -6.803487   -3.894581   -0.012126
     37          6           0       -5.404715   -3.768882    0.105647
     38          6           0       -5.141097   -2.354755    0.141909
     39          6           0       -7.672287   -5.159771   -0.016036
     40          6           0       -4.223776   -4.539610    0.352288
     41          8           0       -4.066232   -5.778802    0.432224
     42          6           0       -3.157482   -3.447109    0.773879
     43          6           0       -1.853368   -3.828410    0.010859
     44          8           0       -1.520394   -3.220799   -1.023154
     45          8           0       -1.184561   -4.789276    0.694380
     46          6           0       -0.047373   -5.282269   -0.156421
     47          6           0        3.732026   -1.911594   -0.753545
     48          6           0        5.157546   -1.726191   -0.169168
     49          6           0        6.221662   -2.570401   -0.326749
     50          6           0        6.262212   -3.956645   -1.012452
     51          6           0        7.620543   -2.096083    0.103552
     52          6           0        8.002231   -0.788115   -0.622862
     53          6           0        8.382386    0.369621    0.343460
     54          6           0        9.907965    0.707660    0.516231
     55          6           0       10.494351    0.063622    1.826649
     56          6           0       10.108340    2.211861    0.392919
     57          6           0       10.760209    2.550536   -1.009914
     58          6           0       12.174147    3.118809   -0.945088
     59          6           0       13.179862    2.262791   -1.766993
     60          6           0       12.896062    2.417487   -3.304956
     61          6           0       14.602247    2.609014   -1.355220
     62          6           0       15.435703    1.394190   -0.881507
     63          6           0       15.482180    1.227339    0.637934
     64          6           0       15.156445   -0.207705    1.048540
     65          6           0       14.827243   -0.443664    2.544566
     66          6           0       16.394068   -1.071366    0.630576
     67          1           0       -3.238091    3.661035    1.038086
     68          1           0       -9.389053    3.683468   -0.419479
     69          1           0       -9.295059   -2.915331   -0.464108
     70          1           0       -1.672896   -0.849016    2.001381
     71          1           0       -1.461154    1.925335    1.507672
     72          1           0       -3.275689    0.594998    3.639311
     73          1           0       -2.232763    2.059466    3.752584
     74          1           0       -1.515685    0.477249    3.661493
     75          1           0       -0.573084    0.711958   -0.213842
     76          1           0       -1.209769   -0.825480   -0.862457
     77          1           0        0.205958   -1.806558    1.073542
     78          1           0        0.823016   -0.095146    1.209805
     79          1           0       -4.554853    6.591208    0.016797
     80          1           0       -3.581357    5.639778    1.134431
     81          1           0       -5.014477    6.410132    1.784445
     82          1           0       -7.958729    8.211569   -0.281690
     83          1           0       -6.560870    7.331493   -1.069547
     84          1           0       -6.604607    7.594289    0.743628
     85          1           0      -10.639072    1.644479   -1.595534
     86          1           0      -11.147934   -0.665089    0.244192
     87          1           0      -11.982249    2.660233   -0.254351
     88          1           0      -10.993683    2.471548    1.142144
     89          1           0      -12.202092    1.235530    0.829549
     90          1           0      -10.346742   -1.741295   -2.214558
     91          1           0      -11.281597   -0.317989   -2.691011
     92          1           0      -12.113623   -2.981526   -2.005381
     93          1           0      -12.928378   -1.524110   -2.558716
     94          1           0      -12.863311   -1.781961   -0.800623
     95          1           0       -7.857070   -5.390962    1.032417
     96          1           0       -7.177307   -6.005254   -0.493702
     97          1           0       -8.577201   -4.965475   -0.591829
     98          1           0       -3.067876   -3.595557    1.849132
     99          1           0       -0.340821   -5.920399   -0.989794
    100          1           0        0.735826   -5.807939    0.388845
    101          1           0        0.455935   -4.384420   -0.515661
    102          1           0        3.781147   -1.301486   -1.654761
    103          1           0        3.533372   -2.966457   -0.940879
    104          1           0        5.168483   -0.803862    0.412654
    105          1           0        6.301230   -4.753438   -0.270514
    106          1           0        7.131242   -3.910074   -1.668967
    107          1           0        5.291087   -4.082498   -1.489950
    108          1           0        8.352604   -2.826725   -0.242306
    109          1           0        7.682660   -2.144081    1.190940
    110          1           0        7.230476   -0.399882   -1.286876
    111          1           0        8.775465   -1.134964   -1.308337
    112          1           0        7.956941    0.224027    1.336155
    113          1           0        7.827417    1.218052   -0.057133
    114          1           0       10.408538    0.220721   -0.320479
    115          1           0        9.653192   -0.009286    2.516020
    116          1           0       11.330936    0.578043    2.299293
    117          1           0       10.772632   -0.950535    1.538486
    118          1           0       10.733021    2.550050    1.218971
    119          1           0        9.136868    2.701348    0.472327
    120          1           0       10.208082    3.385793   -1.439305
    121          1           0       10.719035    1.774640   -1.774704
    122          1           0       12.578372    3.167778    0.066630
    123          1           0       12.101262    4.100699   -1.411103
    124          1           0       12.917441    1.258042   -1.433480
    125          1           0       11.965666    2.958814   -3.479702
    126          1           0       12.780825    1.483642   -3.854405
    127          1           0       13.597129    3.091357   -3.797469
    128          1           0       14.632360    3.312989   -0.523894
    129          1           0       15.084373    3.009199   -2.247496
    130          1           0       16.436240    1.560360   -1.281372
    131          1           0       15.040980    0.526088   -1.409828
    132          1           0       14.755165    1.909815    1.077406
    133          1           0       16.473178    1.442213    1.037811
    134          1           0       14.392570   -0.531492    0.342064
    135          1           0       13.919981    0.122457    2.754533
    136          1           0       15.641682   -0.116947    3.191841
    137          1           0       14.686445   -1.508527    2.727330
    138          1           0       17.292720   -0.458269    0.563202
    139          1           0       16.136704   -1.709190   -0.214412
    140          1           0       16.662793   -1.771569    1.421869
 ---------------------------------------------------------------------

 SCF Done:  E(RB-LYP) =  -3007.35743852     A.U. after   21 cycles

 Excitation energies and oscillator strengths:

 Excited State   1:      Singlet-A      1.7587 eV  704.99 nm  f=0.2811  <S**2>=0.000
     245 -> 248        0.20069
     246 -> 247        0.68620
     246 <- 247       -0.14140
 This state for optimization and/or second-order correction.
 Total Energy, E(TD-HF/TD-DFT) =  -3007.29280875
 Copying the excited state density for this state as the 1-particle RhoCI density.

 Excited State   2:      Singlet-A      2.0331 eV  609.83 nm  f=0.0188  <S**2>=0.000
     245 -> 247        0.60585
     246 -> 248       -0.35059

 Excited State   3:      Singlet-A      2.1465 eV  577.62 nm  f=0.0009  <S**2>=0.000
     244 -> 247        0.70402

 Excited State   4:      Singlet-A      2.2307 eV  555.81 nm  f=0.0008  <S**2>=0.000
     243 -> 247        0.70638

 Excited State   5:      Singlet-A      2.3670 eV  523.79 nm  f=0.0002  <S**2>=0.000
     242 -> 247        0.70693

 The electronic state is 1-A.
 Alpha  occ. eigenvalues --  -46.27707 -18.82958 -18.81757 -18.77498 -18.76354
 Alpha  occ. eigenvalues --  -18.75845 -18.75653 -14.03179 -14.03035 -14.00746
 Alpha  occ. eigenvalues --  -14.00699 -10.03938 -10.03896 -10.00114  -9.99557
 Alpha  occ. eigenvalues --   -9.97462  -9.97195  -9.96573  -9.96520  -9.96399
 Alpha  occ. eigenvalues --   -9.96310  -9.96172  -9.95242  -9.94596  -9.94430
 Alpha  occ. eigenvalues --   -9.94296  -9.94168  -9.93951  -9.93922  -9.93670
 Alpha  occ. eigenvalues --   -9.93606  -9.93415  -9.93303  -9.93091  -9.93036
 Alpha  occ. eigenvalues --   -9.93035  -9.92805  -9.92641  -9.92528  -9.92452
 Alpha  occ. eigenvalues --   -9.92433  -9.92386  -9.92237  -9.92177  -9.91991
 Alpha  occ. eigenvalues --   -9.91915  -9.91699  -9.91625  -9.91623  -9.91576
 Alpha  occ. eigenvalues --   -9.91535  -9.91492  -9.91450  -9.91394  -9.91107
 Alpha  occ. eigenvalues --   -9.91104  -9.91058  -9.91040  -9.90985  -9.90913
 Alpha  occ. eigenvalues --   -9.90789  -9.90725  -9.90666  -9.90474  -9.90386
 Alpha  occ. eigenvalues --   -9.90378  -2.92152  -1.72568  -1.72025  -1.71875
 Alpha  occ. eigenvalues --   -0.97326  -0.97121  -0.92864  -0.90072  -0.89592
 Alpha  occ. eigenvalues --   -0.88907  -0.86089  -0.85202  -0.85059  -0.84054
 Alpha  occ. eigenvalues --   -0.74182  -0.73301  -0.72908  -0.72682  -0.71816
 Alpha  occ. eigenvalues --   -0.71753  -0.71565  -0.70664  -0.70630  -0.70370
 Alpha  occ. eigenvalues --   -0.69147  -0.68691  -0.67856  -0.67501  -0.66691
 Alpha  occ. eigenvalues --   -0.66198  -0.65993  -0.65018  -0.64561  -0.64460
 Alpha  occ. eigenvalues --   -0.63647  -0.62254  -0.61854  -0.61583  -0.60238
 Alpha  occ. eigenvalues --   -0.60048  -0.59962  -0.59603  -0.59373  -0.58997
 Alpha  occ. eigenvalues --   -0.57621  -0.57096  -0.56465  -0.54634  -0.54092
 Alpha  occ. eigenvalues --   -0.53678  -0.53362  -0.52551  -0.52090  -0.51156
 Alpha  occ. eigenvalues --   -0.50834  -0.50404  -0.50288  -0.50154  -0.49646
 Alpha  occ. eigenvalues --   -0.49179  -0.48613  -0.48385  -0.48164  -0.46225
 Alpha  occ. eigenvalues --   -0.46075  -0.45465  -0.44956  -0.44777  -0.43880
 Alpha  occ. eigenvalues --   -0.43456  -0.43240  -0.42681  -0.42312  -0.42234
 Alpha  occ. eigenvalues --   -0.42092  -0.41842  -0.41186  -0.41042  -0.40793
 Alpha  occ. eigenvalues --   -0.40662  -0.40575  -0.40305  -0.40276  -0.40093
 Alpha  occ. eigenvalues --   -0.39845  -0.39584  -0.39527  -0.39281  -0.39086
 Alpha  occ. eigenvalues --   -0.38878  -0.38600  -0.38376  -0.38099  -0.37900
 Alpha  occ. eigenvalues --   -0.37805  -0.37766  -0.37626  -0.37513  -0.37111
 Alpha  occ. eigenvalues --   -0.36863  -0.36673  -0.36637  -0.36526  -0.36441
 Alpha  occ. eigenvalues --   -0.36129  -0.36069  -0.35801  -0.35750  -0.35485
 Alpha  occ. eigenvalues --   -0.35315  -0.35089  -0.34625  -0.34533  -0.34406
 Alpha  occ. eigenvalues --   -0.34324  -0.34223  -0.34175  -0.34063  -0.34000
 Alpha  occ. eigenvalues --   -0.33673  -0.33575  -0.33322  -0.33098  -0.32944
 Alpha  occ. eigenvalues --   -0.32712  -0.32459  -0.32369  -0.32238  -0.32162
 Alpha  occ. eigenvalues --   -0.32028  -0.31752  -0.31751  -0.31624  -0.31204
 Alpha  occ. eigenvalues --   -0.31155  -0.30925  -0.30718  -0.30528  -0.30473
 Alpha  occ. eigenvalues --   -0.30192  -0.29932  -0.29848  -0.29716  -0.29638
 Alpha  occ. eigenvalues --   -0.29588  -0.29261  -0.28912  -0.28762  -0.28447
 Alpha  occ. eigenvalues --   -0.28383  -0.27836  -0.27735  -0.27691  -0.27514
 Alpha  occ. eigenvalues --   -0.27171  -0.27094  -0.26987  -0.26412  -0.26255
 Alpha  occ. eigenvalues --   -0.26068  -0.25794  -0.25642  -0.25529  -0.25275
 Alpha  occ. eigenvalues --   -0.25097  -0.24965  -0.23904  -0.23749  -0.23546
 Alpha  occ. eigenvalues --   -0.22868  -0.22038  -0.21881  -0.21166  -0.20818
 Alpha  occ. eigenvalues --   -0.20193  -0.19481  -0.18894  -0.18539  -0.17173
 Alpha  occ. eigenvalues --   -0.15037
 Alpha virt. eigenvalues --   -0.10783  -0.07265  -0.06394  -0.04452  -0.03057
 Alpha virt. eigenvalues --   -0.02891  -0.02277  -0.01937  -0.01407   0.00487
 Alpha virt. eigenvalues --    0.01477   0.01744   0.02171   0.02584   0.02822

 Mulliken charges:
               1
     1  Mg   0.683280
     2  C    0.071934
     3  C   -0.111691
     4  C   -0.036151
     5  C   -0.058155
     6  N   -0.200011
     7  C   -0.085480
     8  C    0.019587
     9  C   -0.043424
    10  C    0.094224
    11  C    0.124554
    12  C    0.187157
    13  C    0.067844
    14  C    0.105809
    15  O   -0.165414
    16  O   -0.291978
    17  N   -0.270158
    18  C    0.134444
    19  C   -0.135998
    20  C   -0.001144
    21  C    0.106892
    22  C    0.157466
    23  C   -0.094415
    24  O   -0.145282
    25  C    0.148346
    26  N   -0.250034
    27  C    0.001683
    28  C    0.011226
    29  C    0.038895
    30  C    0.048118
    31  C    0.143926
    32  C    0.060353
    33  C    0.095939
    34  N   -0.248687
    35  C    0.080547
    36  C   -0.185848
    37  C    0.113230
    38  C    0.047281
    39  C    0.165103
    40  C   -0.044994
    41  O   -0.160673
    42  C   -0.017903
    43  C    0.136317
    44  O   -0.198750
    45  O   -0.250644
    46  C    0.204752
    47  C    0.284169
    48  C   -0.092409
    49  C   -0.179729
    50  C    0.157581
    51  C    0.128506
    52  C    0.068830
    53  C    0.090124
    54  C   -0.088668
    55  C    0.100898
    56  C    0.148088
    57  C    0.066855
    58  C    0.070410
    59  C   -0.096236
    60  C    0.110360
    61  C    0.140394
    62  C    0.062667
    63  C    0.120701
    64  C   -0.126386
    65  C    0.123129
    66  C    0.102267
    67  H   -0.070266
    68  H   -0.038667
    69  H   -0.067332
    70  H   -0.041980
    71  H   -0.037379
    72  H    0.002489
    73  H   -0.013653
    74  H   -0.009920
    75  H   -0.041872
    76  H    0.022545
    77  H    0.009890
    78  H   -0.010045
    79  H    0.003780
    80  H   -0.017330
    81  H    0.024613
    82  H   -0.001171
    83  H    0.019899
    84  H    0.007516
    85  H   -0.018237
    86  H   -0.026288
    87  H   -0.007103
    88  H   -0.002683
    89  H   -0.010201
    90  H   -0.026961
    91  H   -0.023175
    92  H   -0.000468
    93  H   -0.015585
    94  H   -0.001662
    95  H    0.015584
    96  H    0.008074
    97  H   -0.007455
    98  H    0.019176
    99  H    0.028789
   100  H    0.005223
   101  H    0.025534
   102  H    0.004238
   103  H    0.003370
   104  H   -0.031549
   105  H    0.008450
   106  H    0.009143
   107  H   -0.020016
   108  H   -0.051759
   109  H   -0.005993
   110  H   -0.020530
   111  H   -0.035119
   112  H   -0.029643
   113  H   -0.038300
   114  H   -0.031133
   115  H   -0.023333
   116  H    0.002279
   117  H   -0.015412
   118  H   -0.042075
   119  H   -0.034092
   120  H   -0.047781
   121  H   -0.020994
   122  H   -0.029661
   123  H   -0.036710
   124  H   -0.033394
   125  H   -0.028280
   126  H   -0.009664
   127  H   -0.020189
   128  H   -0.032959
   129  H   -0.048002
   130  H   -0.041819
   131  H   -0.031750
   132  H   -0.040664
   133  H   -0.032266
   134  H   -0.034333
   135  H   -0.011828
   136  H   -0.016377
   137  H   -0.011347
   138  H   -0.018168
   139  H   -0.010665
   140  H   -0.038981
 Sum of Mulliken charges =  -0.00000

 Dipole moment (field-independent basis, Debye):
    X=              1.6612    Y=              3.0451    Z=              0.9960  Tot=              3.6090
 Quadrupole moment (field-independent basis, Debye-Ang):
   XX=           -380.2239   YY=           -412.8234   ZZ=           -406.2804
   XY=             -4.6504   XZ=              1.9477   YZ=              3.7889

 Normal termination of Gaussian 16 at Fri Apr 29 11:28:22 2022.
