 Gaussian 16, Revision A.03,
 Gaussian 16:  ES64L-G16RevA.03 25-Dec-2016

 -----------------------------------
 #p cam-b3lyp/Def2SVP td=(nstates=5)
 -----------------------------------

 -------------------------------------------------------
 step_251_chromophore_22 TDDFT with cam-b3lyp functional
 -------------------------------------------------------
 Symbolic Z-matrix:
 Charge =  0 Multiplicity = 1

                         Standard orientation:
 ---------------------------------------------------------------------
 Center     Atomic      Atomic             Coordinates (Angstroms)
 Number     Number       Type             X           Y           Z
 ---------------------------------------------------------------------
      1         12           0       -6.235209    0.524406   -0.190141
      2          6           0       -3.800560   -2.014786    0.477975
      3          6           0       -4.000251    2.889474    0.907730
      4          6           0       -8.606898    2.924136   -0.345716
      5          6           0       -8.642912   -2.049183   -0.334927
      6          7           0       -4.152123    0.417083    0.581873
      7          6           0       -3.305384   -0.694737    0.714027
      8          6           0       -1.940296   -0.225992    1.148196
      9          6           0       -2.249416    1.211649    1.744605
     10          6           0       -3.617723    1.529129    1.072903
     11          6           0       -2.355678    1.074030    3.305255
     12          6           0       -0.843539   -0.315906    0.029099
     13          6           0        0.383877   -0.858059    0.566509
     14          6           0        1.458889   -1.330713   -0.536066
     15          8           0        1.233333   -1.837989   -1.613622
     16          8           0        2.700675   -1.339275    0.118115
     17          7           0       -6.158520    2.640255    0.079904
     18          6           0       -5.145171    3.411027    0.492615
     19          6           0       -5.534902    4.785463    0.416159
     20          6           0       -6.869967    4.838380    0.074583
     21          6           0       -7.304696    3.382892   -0.150142
     22          6           0       -4.599808    5.942492    0.891536
     23          6           0       -7.762045    6.072649   -0.170742
     24          8           0       -8.927180    5.909972   -0.431431
     25          6           0       -7.172791    7.463488   -0.177282
     26          7           0       -8.368770    0.411183   -0.048137
     27          6           0       -9.096810    1.573668   -0.276586
     28          6           0      -10.523571    1.254098   -0.584242
     29          6           0      -10.540738   -0.351911   -0.604756
     30          6           0       -9.089894   -0.706743   -0.379061
     31          6           0      -11.485341    1.904083    0.352128
     32          6           0      -11.160851   -1.078705   -1.920912
     33          6           0      -12.342187   -1.948543   -1.744363
     34          7           0       -6.278412   -1.606893   -0.031629
     35          6           0       -7.347150   -2.470831   -0.113140
     36          6           0       -6.803487   -3.894581   -0.012126
     37          6           0       -5.404715   -3.768882    0.105647
     38          6           0       -5.141097   -2.354755    0.141909
     39          6           0       -7.672287   -5.159771   -0.016036
     40          6           0       -4.223776   -4.539610    0.352288
     41          8           0       -4.066232   -5.778802    0.432224
     42          6           0       -3.157482   -3.447109    0.773879
     43          6           0       -1.853368   -3.828410    0.010859
     44          8           0       -1.520394   -3.220799   -1.023154
     45          8           0       -1.184561   -4.789276    0.694380
     46          6           0       -0.047373   -5.282269   -0.156421
     47          6           0        3.732026   -1.911594   -0.753545
     48          6           0        5.157546   -1.726191   -0.169168
     49          6           0        6.221662   -2.570401   -0.326749
     50          6           0        6.262212   -3.956645   -1.012452
     51          6           0        7.620543   -2.096083    0.103552
     52          6           0        8.002231   -0.788115   -0.622862
     53          6           0        8.382386    0.369621    0.343460
     54          6           0        9.907965    0.707660    0.516231
     55          6           0       10.494351    0.063622    1.826649
     56          6           0       10.108340    2.211861    0.392919
     57          6           0       10.760209    2.550536   -1.009914
     58          6           0       12.174147    3.118809   -0.945088
     59          6           0       13.179862    2.262791   -1.766993
     60          6           0       12.896062    2.417487   -3.304956
     61          6           0       14.602247    2.609014   -1.355220
     62          6           0       15.435703    1.394190   -0.881507
     63          6           0       15.482180    1.227339    0.637934
     64          6           0       15.156445   -0.207705    1.048540
     65          6           0       14.827243   -0.443664    2.544566
     66          6           0       16.394068   -1.071366    0.630576
     67          1           0       -3.238091    3.661035    1.038086
     68          1           0       -9.389053    3.683468   -0.419479
     69          1           0       -9.295059   -2.915331   -0.464108
     70          1           0       -1.672896   -0.849016    2.001381
     71          1           0       -1.461154    1.925335    1.507672
     72          1           0       -3.275689    0.594998    3.639311
     73          1           0       -2.232763    2.059466    3.752584
     74          1           0       -1.515685    0.477249    3.661493
     75          1           0       -0.573084    0.711958   -0.213842
     76          1           0       -1.209769   -0.825480   -0.862457
     77          1           0        0.205958   -1.806558    1.073542
     78          1           0        0.823016   -0.095146    1.209805
     79          1           0       -4.554853    6.591208    0.016797
     80          1           0       -3.581357    5.639778    1.134431
     81          1           0       -5.014477    6.410132    1.784445
     82          1           0       -7.958729    8.211569   -0.281690
     83          1           0       -6.560870    7.331493   -1.069547
     84          1           0       -6.604607    7.594289    0.743628
     85          1           0      -10.639072    1.644479   -1.595534
     86          1           0      -11.147934   -0.665089    0.244192
     87          1           0      -11.982249    2.660233   -0.254351
     88          1           0      -10.993683    2.471548    1.142144
     89          1           0      -12.202092    1.235530    0.829549
     90          1           0      -10.346742   -1.741295   -2.214558
     91          1           0      -11.281597   -0.317989   -2.691011
     92          1           0      -12.113623   -2.981526   -2.005381
     93          1           0      -12.928378   -1.524110   -2.558716
     94          1           0      -12.863311   -1.781961   -0.800623
     95          1           0       -7.857070   -5.390962    1.032417
     96          1           0       -7.177307   -6.005254   -0.493702
     97          1           0       -8.577201   -4.965475   -0.591829
     98          1           0       -3.067876   -3.595557    1.849132
     99          1           0       -0.340821   -5.920399   -0.989794
    100          1           0        0.735826   -5.807939    0.388845
    101          1           0        0.455935   -4.384420   -0.515661
    102          1           0        3.781147   -1.301486   -1.654761
    103          1           0        3.533372   -2.966457   -0.940879
    104          1           0        5.168483   -0.803862    0.412654
    105          1           0        6.301230   -4.753438   -0.270514
    106          1           0        7.131242   -3.910074   -1.668967
    107          1           0        5.291087   -4.082498   -1.489950
    108          1           0        8.352604   -2.826725   -0.242306
    109          1           0        7.682660   -2.144081    1.190940
    110          1           0        7.230476   -0.399882   -1.286876
    111          1           0        8.775465   -1.134964   -1.308337
    112          1           0        7.956941    0.224027    1.336155
    113          1           0        7.827417    1.218052   -0.057133
    114          1           0       10.408538    0.220721   -0.320479
    115          1           0        9.653192   -0.009286    2.516020
    116          1           0       11.330936    0.578043    2.299293
    117          1           0       10.772632   -0.950535    1.538486
    118          1           0       10.733021    2.550050    1.218971
    119          1           0        9.136868    2.701348    0.472327
    120          1           0       10.208082    3.385793   -1.439305
    121          1           0       10.719035    1.774640   -1.774704
    122          1           0       12.578372    3.167778    0.066630
    123          1           0       12.101262    4.100699   -1.411103
    124          1           0       12.917441    1.258042   -1.433480
    125          1           0       11.965666    2.958814   -3.479702
    126          1           0       12.780825    1.483642   -3.854405
    127          1           0       13.597129    3.091357   -3.797469
    128          1           0       14.632360    3.312989   -0.523894
    129          1           0       15.084373    3.009199   -2.247496
    130          1           0       16.436240    1.560360   -1.281372
    131          1           0       15.040980    0.526088   -1.409828
    132          1           0       14.755165    1.909815    1.077406
    133          1           0       16.473178    1.442213    1.037811
    134          1           0       14.392570   -0.531492    0.342064
    135          1           0       13.919981    0.122457    2.754533
    136          1           0       15.641682   -0.116947    3.191841
    137          1           0       14.686445   -1.508527    2.727330
    138          1           0       17.292720   -0.458269    0.563202
    139          1           0       16.136704   -1.709190   -0.214412
    140          1           0       16.662793   -1.771569    1.421869
 ---------------------------------------------------------------------

 SCF Done:  E(RCAM-B3LYP) =  -3007.14309636     A.U. after   16 cycles

 Excitation energies and oscillator strengths:

 Excited State   1:      Singlet-A      1.7183 eV  721.55 nm  f=0.3493  <S**2>=0.000
     245 -> 248       -0.18790
     246 -> 247        0.68223
     245 <- 248       -0.10727
 This state for optimization and/or second-order correction.
 Total Energy, E(TD-HF/TD-DFT) =  -3007.07995011
 Copying the excited state density for this state as the 1-particle RhoCI density.

 Excited State   2:      Singlet-A      2.2682 eV  546.62 nm  f=0.0061  <S**2>=0.000
     245 -> 247        0.54902
     246 -> 248        0.43657

 Excited State   3:      Singlet-A      3.3105 eV  374.51 nm  f=0.8157  <S**2>=0.000
     245 -> 247       -0.42185
     246 -> 248        0.54523
     245 <- 247        0.10473

 Excited State   4:      Singlet-A      3.5765 eV  346.66 nm  f=0.0408  <S**2>=0.000
     241 -> 247        0.31993
     241 -> 249        0.27581
     241 -> 251       -0.13732
     242 -> 247        0.13045
     242 -> 249        0.15729
     243 -> 247        0.21041
     246 -> 249        0.37763
     246 -> 250       -0.13741

 Excited State   5:      Singlet-A      3.6093 eV  343.51 nm  f=0.0235  <S**2>=0.000
     241 -> 247       -0.22000
     241 -> 249       -0.20723
     242 -> 247       -0.18114
     242 -> 249       -0.10676
     243 -> 247       -0.12697
     246 -> 249        0.46663
     246 -> 250       -0.26169
     246 -> 251       -0.10195

 The electronic state is 1-A.
 Alpha  occ. eigenvalues --  -46.89324 -19.25860 -19.24555 -19.20436 -19.19404
 Alpha  occ. eigenvalues --  -19.19348 -19.18602 -14.42164 -14.41815 -14.39266
 Alpha  occ. eigenvalues --  -14.39040 -10.39345 -10.39269 -10.35594 -10.34757
 Alpha  occ. eigenvalues --  -10.31485 -10.31272 -10.31212 -10.31202 -10.31100
 Alpha  occ. eigenvalues --  -10.30804 -10.30386 -10.29074 -10.28899 -10.28786
 Alpha  occ. eigenvalues --  -10.28672 -10.28546 -10.28499 -10.28064 -10.28048
 Alpha  occ. eigenvalues --  -10.27969 -10.27708 -10.27279 -10.27278 -10.27264
 Alpha  occ. eigenvalues --  -10.27036 -10.26926 -10.26864 -10.26322 -10.26315
 Alpha  occ. eigenvalues --  -10.26290 -10.26205 -10.26202 -10.25927 -10.25850
 Alpha  occ. eigenvalues --  -10.25792 -10.25406 -10.25330 -10.25306 -10.25280
 Alpha  occ. eigenvalues --  -10.25252 -10.25163 -10.25064 -10.24947 -10.24813
 Alpha  occ. eigenvalues --  -10.24801 -10.24716 -10.24661 -10.24608 -10.24580
 Alpha  occ. eigenvalues --  -10.24429 -10.24393 -10.24307 -10.24135 -10.24038
 Alpha  occ. eigenvalues --  -10.23981  -3.17661  -1.92557  -1.92103  -1.91962
 Alpha  occ. eigenvalues --   -1.15739  -1.15514  -1.11655  -1.07845  -1.07696
 Alpha  occ. eigenvalues --   -1.06757  -1.03981  -1.02931  -1.02600  -1.01324
 Alpha  occ. eigenvalues --   -0.91094  -0.90158  -0.89727  -0.89472  -0.88656
 Alpha  occ. eigenvalues --   -0.88459  -0.88101  -0.87432  -0.87247  -0.87159
 Alpha  occ. eigenvalues --   -0.85511  -0.84971  -0.83967  -0.83701  -0.82839
 Alpha  occ. eigenvalues --   -0.82453  -0.82248  -0.80966  -0.80273  -0.80231
 Alpha  occ. eigenvalues --   -0.79408  -0.78127  -0.77427  -0.77085  -0.75575
 Alpha  occ. eigenvalues --   -0.75395  -0.75301  -0.74904  -0.74650  -0.74257
 Alpha  occ. eigenvalues --   -0.72593  -0.72065  -0.71314  -0.69379  -0.68867
 Alpha  occ. eigenvalues --   -0.68292  -0.67751  -0.67063  -0.66461  -0.65240
 Alpha  occ. eigenvalues --   -0.64907  -0.64478  -0.64318  -0.64189  -0.63674
 Alpha  occ. eigenvalues --   -0.63141  -0.62358  -0.62266  -0.61821  -0.59863
 Alpha  occ. eigenvalues --   -0.59685  -0.58891  -0.58324  -0.58229  -0.57271
 Alpha  occ. eigenvalues --   -0.56958  -0.56516  -0.55955  -0.55351  -0.55287
 Alpha  occ. eigenvalues --   -0.55130  -0.54929  -0.54181  -0.54009  -0.53875
 Alpha  occ. eigenvalues --   -0.53711  -0.53590  -0.53247  -0.53076  -0.52668
 Alpha  occ. eigenvalues --   -0.52430  -0.52373  -0.52071  -0.51941  -0.51776
 Alpha  occ. eigenvalues --   -0.51622  -0.51148  -0.51013  -0.50451  -0.50284
 Alpha  occ. eigenvalues --   -0.50129  -0.50083  -0.50031  -0.49842  -0.49674
 Alpha  occ. eigenvalues --   -0.49390  -0.49022  -0.48852  -0.48593  -0.48557
 Alpha  occ. eigenvalues --   -0.48496  -0.48222  -0.48005  -0.47855  -0.47768
 Alpha  occ. eigenvalues --   -0.47636  -0.47372  -0.46534  -0.46448  -0.46320
 Alpha  occ. eigenvalues --   -0.46132  -0.46121  -0.45935  -0.45863  -0.45807
 Alpha  occ. eigenvalues --   -0.45507  -0.45295  -0.45149  -0.44774  -0.44500
 Alpha  occ. eigenvalues --   -0.44358  -0.44191  -0.44163  -0.44015  -0.43916
 Alpha  occ. eigenvalues --   -0.43600  -0.43469  -0.43201  -0.43040  -0.43020
 Alpha  occ. eigenvalues --   -0.42897  -0.42482  -0.42256  -0.41999  -0.41836
 Alpha  occ. eigenvalues --   -0.41691  -0.41395  -0.41079  -0.41035  -0.40856
 Alpha  occ. eigenvalues --   -0.40809  -0.40461  -0.40162  -0.39829  -0.39714
 Alpha  occ. eigenvalues --   -0.39439  -0.38794  -0.38666  -0.38645  -0.38491
 Alpha  occ. eigenvalues --   -0.37962  -0.37799  -0.37782  -0.37270  -0.37136
 Alpha  occ. eigenvalues --   -0.37078  -0.36944  -0.36637  -0.36566  -0.36207
 Alpha  occ. eigenvalues --   -0.36058  -0.35867  -0.34235  -0.33962  -0.33907
 Alpha  occ. eigenvalues --   -0.33765  -0.33527  -0.32860  -0.31647  -0.31314
 Alpha  occ. eigenvalues --   -0.30475  -0.29979  -0.29219  -0.29120  -0.24144
 Alpha  occ. eigenvalues --   -0.20103
 Alpha virt. eigenvalues --   -0.07470  -0.02408   0.00127   0.01965   0.02505
 Alpha virt. eigenvalues --    0.04968   0.05472   0.05658   0.06043   0.07039
 Alpha virt. eigenvalues --    0.07687   0.08264   0.08672   0.08872   0.09138

 Mulliken charges:
               1
     1  Mg   0.811980
     2  C    0.052701
     3  C   -0.122994
     4  C   -0.063830
     5  C   -0.065461
     6  N   -0.266876
     7  C   -0.047879
     8  C   -0.029426
     9  C   -0.098672
    10  C    0.111558
    11  C    0.069355
    12  C    0.125500
    13  C    0.007583
    14  C    0.184588
    15  O   -0.204108
    16  O   -0.356376
    17  N   -0.362675
    18  C    0.148045
    19  C   -0.139358
    20  C   -0.064896
    21  C    0.139248
    22  C    0.103345
    23  C   -0.015361
    24  O   -0.185172
    25  C    0.069049
    26  N   -0.322229
    27  C    0.033947
    28  C   -0.048932
    29  C   -0.011856
    30  C    0.064258
    31  C    0.079018
    32  C    0.007207
    33  C    0.030021
    34  N   -0.332880
    35  C    0.080555
    36  C   -0.182209
    37  C    0.031004
    38  C    0.076197
    39  C    0.117175
    40  C    0.053717
    41  O   -0.200519
    42  C   -0.080624
    43  C    0.213791
    44  O   -0.237281
    45  O   -0.312371
    46  C    0.168628
    47  C    0.252903
    48  C   -0.112558
    49  C   -0.201409
    50  C    0.098663
    51  C    0.070655
    52  C    0.011350
    53  C    0.038356
    54  C   -0.141668
    55  C    0.051783
    56  C    0.091387
    57  C    0.009096
    58  C    0.026101
    59  C   -0.148971
    60  C    0.048759
    61  C    0.083461
    62  C    0.007454
    63  C    0.067173
    64  C   -0.181443
    65  C    0.068354
    66  C    0.038251
    67  H   -0.035666
    68  H    0.001807
    69  H   -0.033197
    70  H   -0.006279
    71  H   -0.002633
    72  H    0.028428
    73  H    0.011642
    74  H    0.014017
    75  H   -0.012658
    76  H    0.057716
    77  H    0.036265
    78  H    0.021586
    79  H    0.030064
    80  H    0.013128
    81  H    0.050434
    82  H    0.034972
    83  H    0.045099
    84  H    0.034302
    85  H    0.016455
    86  H    0.006869
    87  H    0.017496
    88  H    0.024153
    89  H    0.015947
    90  H    0.003987
    91  H    0.003965
    92  H    0.022783
    93  H    0.008268
    94  H    0.020650
    95  H    0.039922
    96  H    0.034155
    97  H    0.013433
    98  H    0.059108
    99  H    0.051833
   100  H    0.029730
   101  H    0.045298
   102  H    0.032210
   103  H    0.026823
   104  H    0.003391
   105  H    0.033161
   106  H    0.031018
   107  H    0.003105
   108  H   -0.019356
   109  H    0.022285
   110  H    0.010064
   111  H   -0.006348
   112  H   -0.003442
   113  H   -0.008602
   114  H   -0.002518
   115  H   -0.000698
   116  H    0.020803
   117  H    0.007001
   118  H   -0.012683
   119  H   -0.004282
   120  H   -0.016626
   121  H    0.005138
   122  H   -0.005125
   123  H   -0.007725
   124  H   -0.005683
   125  H   -0.004000
   126  H    0.014928
   127  H    0.004809
   128  H   -0.003357
   129  H   -0.016738
   130  H   -0.010717
   131  H   -0.004454
   132  H   -0.015101
   133  H   -0.004093
   134  H   -0.005372
   135  H    0.007924
   136  H    0.006981
   137  H    0.012799
   138  H    0.005853
   139  H    0.013552
   140  H   -0.012186
 Sum of Mulliken charges =  -0.00000

 Dipole moment (field-independent basis, Debye):
    X=              1.7822    Y=              4.3570    Z=              1.1401  Tot=              4.8435
 Quadrupole moment (field-independent basis, Debye-Ang):
   XX=           -380.0824   YY=           -406.7751   ZZ=           -406.5171
   XY=            -12.6307   XZ=              1.9372   YZ=              4.3529

 Normal termination of Gaussian 16 at Fri Apr 29 10:27:19 2022.
