 Gaussian 16, Revision A.03,
 Gaussian 16:  ES64L-G16RevA.03 25-Dec-2016

 ---------------------------------
 #p PBE1PBE/Def2SVP td=(nstates=5)
 ---------------------------------

 -----------------------------------------------------
 step_251_chromophore_22 TDDFT with PBE1PBE functional
 -----------------------------------------------------
 Symbolic Z-matrix:
 Charge =  0 Multiplicity = 1

                         Standard orientation:
 ---------------------------------------------------------------------
 Center     Atomic      Atomic             Coordinates (Angstroms)
 Number     Number       Type             X           Y           Z
 ---------------------------------------------------------------------
      1         12           0       -6.235209    0.524406   -0.190141
      2          6           0       -3.800560   -2.014786    0.477975
      3          6           0       -4.000251    2.889474    0.907730
      4          6           0       -8.606898    2.924136   -0.345716
      5          6           0       -8.642912   -2.049183   -0.334927
      6          7           0       -4.152123    0.417083    0.581873
      7          6           0       -3.305384   -0.694737    0.714027
      8          6           0       -1.940296   -0.225992    1.148196
      9          6           0       -2.249416    1.211649    1.744605
     10          6           0       -3.617723    1.529129    1.072903
     11          6           0       -2.355678    1.074030    3.305255
     12          6           0       -0.843539   -0.315906    0.029099
     13          6           0        0.383877   -0.858059    0.566509
     14          6           0        1.458889   -1.330713   -0.536066
     15          8           0        1.233333   -1.837989   -1.613622
     16          8           0        2.700675   -1.339275    0.118115
     17          7           0       -6.158520    2.640255    0.079904
     18          6           0       -5.145171    3.411027    0.492615
     19          6           0       -5.534902    4.785463    0.416159
     20          6           0       -6.869967    4.838380    0.074583
     21          6           0       -7.304696    3.382892   -0.150142
     22          6           0       -4.599808    5.942492    0.891536
     23          6           0       -7.762045    6.072649   -0.170742
     24          8           0       -8.927180    5.909972   -0.431431
     25          6           0       -7.172791    7.463488   -0.177282
     26          7           0       -8.368770    0.411183   -0.048137
     27          6           0       -9.096810    1.573668   -0.276586
     28          6           0      -10.523571    1.254098   -0.584242
     29          6           0      -10.540738   -0.351911   -0.604756
     30          6           0       -9.089894   -0.706743   -0.379061
     31          6           0      -11.485341    1.904083    0.352128
     32          6           0      -11.160851   -1.078705   -1.920912
     33          6           0      -12.342187   -1.948543   -1.744363
     34          7           0       -6.278412   -1.606893   -0.031629
     35          6           0       -7.347150   -2.470831   -0.113140
     36          6           0       -6.803487   -3.894581   -0.012126
     37          6           0       -5.404715   -3.768882    0.105647
     38          6           0       -5.141097   -2.354755    0.141909
     39          6           0       -7.672287   -5.159771   -0.016036
     40          6           0       -4.223776   -4.539610    0.352288
     41          8           0       -4.066232   -5.778802    0.432224
     42          6           0       -3.157482   -3.447109    0.773879
     43          6           0       -1.853368   -3.828410    0.010859
     44          8           0       -1.520394   -3.220799   -1.023154
     45          8           0       -1.184561   -4.789276    0.694380
     46          6           0       -0.047373   -5.282269   -0.156421
     47          6           0        3.732026   -1.911594   -0.753545
     48          6           0        5.157546   -1.726191   -0.169168
     49          6           0        6.221662   -2.570401   -0.326749
     50          6           0        6.262212   -3.956645   -1.012452
     51          6           0        7.620543   -2.096083    0.103552
     52          6           0        8.002231   -0.788115   -0.622862
     53          6           0        8.382386    0.369621    0.343460
     54          6           0        9.907965    0.707660    0.516231
     55          6           0       10.494351    0.063622    1.826649
     56          6           0       10.108340    2.211861    0.392919
     57          6           0       10.760209    2.550536   -1.009914
     58          6           0       12.174147    3.118809   -0.945088
     59          6           0       13.179862    2.262791   -1.766993
     60          6           0       12.896062    2.417487   -3.304956
     61          6           0       14.602247    2.609014   -1.355220
     62          6           0       15.435703    1.394190   -0.881507
     63          6           0       15.482180    1.227339    0.637934
     64          6           0       15.156445   -0.207705    1.048540
     65          6           0       14.827243   -0.443664    2.544566
     66          6           0       16.394068   -1.071366    0.630576
     67          1           0       -3.238091    3.661035    1.038086
     68          1           0       -9.389053    3.683468   -0.419479
     69          1           0       -9.295059   -2.915331   -0.464108
     70          1           0       -1.672896   -0.849016    2.001381
     71          1           0       -1.461154    1.925335    1.507672
     72          1           0       -3.275689    0.594998    3.639311
     73          1           0       -2.232763    2.059466    3.752584
     74          1           0       -1.515685    0.477249    3.661493
     75          1           0       -0.573084    0.711958   -0.213842
     76          1           0       -1.209769   -0.825480   -0.862457
     77          1           0        0.205958   -1.806558    1.073542
     78          1           0        0.823016   -0.095146    1.209805
     79          1           0       -4.554853    6.591208    0.016797
     80          1           0       -3.581357    5.639778    1.134431
     81          1           0       -5.014477    6.410132    1.784445
     82          1           0       -7.958729    8.211569   -0.281690
     83          1           0       -6.560870    7.331493   -1.069547
     84          1           0       -6.604607    7.594289    0.743628
     85          1           0      -10.639072    1.644479   -1.595534
     86          1           0      -11.147934   -0.665089    0.244192
     87          1           0      -11.982249    2.660233   -0.254351
     88          1           0      -10.993683    2.471548    1.142144
     89          1           0      -12.202092    1.235530    0.829549
     90          1           0      -10.346742   -1.741295   -2.214558
     91          1           0      -11.281597   -0.317989   -2.691011
     92          1           0      -12.113623   -2.981526   -2.005381
     93          1           0      -12.928378   -1.524110   -2.558716
     94          1           0      -12.863311   -1.781961   -0.800623
     95          1           0       -7.857070   -5.390962    1.032417
     96          1           0       -7.177307   -6.005254   -0.493702
     97          1           0       -8.577201   -4.965475   -0.591829
     98          1           0       -3.067876   -3.595557    1.849132
     99          1           0       -0.340821   -5.920399   -0.989794
    100          1           0        0.735826   -5.807939    0.388845
    101          1           0        0.455935   -4.384420   -0.515661
    102          1           0        3.781147   -1.301486   -1.654761
    103          1           0        3.533372   -2.966457   -0.940879
    104          1           0        5.168483   -0.803862    0.412654
    105          1           0        6.301230   -4.753438   -0.270514
    106          1           0        7.131242   -3.910074   -1.668967
    107          1           0        5.291087   -4.082498   -1.489950
    108          1           0        8.352604   -2.826725   -0.242306
    109          1           0        7.682660   -2.144081    1.190940
    110          1           0        7.230476   -0.399882   -1.286876
    111          1           0        8.775465   -1.134964   -1.308337
    112          1           0        7.956941    0.224027    1.336155
    113          1           0        7.827417    1.218052   -0.057133
    114          1           0       10.408538    0.220721   -0.320479
    115          1           0        9.653192   -0.009286    2.516020
    116          1           0       11.330936    0.578043    2.299293
    117          1           0       10.772632   -0.950535    1.538486
    118          1           0       10.733021    2.550050    1.218971
    119          1           0        9.136868    2.701348    0.472327
    120          1           0       10.208082    3.385793   -1.439305
    121          1           0       10.719035    1.774640   -1.774704
    122          1           0       12.578372    3.167778    0.066630
    123          1           0       12.101262    4.100699   -1.411103
    124          1           0       12.917441    1.258042   -1.433480
    125          1           0       11.965666    2.958814   -3.479702
    126          1           0       12.780825    1.483642   -3.854405
    127          1           0       13.597129    3.091357   -3.797469
    128          1           0       14.632360    3.312989   -0.523894
    129          1           0       15.084373    3.009199   -2.247496
    130          1           0       16.436240    1.560360   -1.281372
    131          1           0       15.040980    0.526088   -1.409828
    132          1           0       14.755165    1.909815    1.077406
    133          1           0       16.473178    1.442213    1.037811
    134          1           0       14.392570   -0.531492    0.342064
    135          1           0       13.919981    0.122457    2.754533
    136          1           0       15.641682   -0.116947    3.191841
    137          1           0       14.686445   -1.508527    2.727330
    138          1           0       17.292720   -0.458269    0.563202
    139          1           0       16.136704   -1.709190   -0.214412
    140          1           0       16.662793   -1.771569    1.421869
 ---------------------------------------------------------------------

 SCF Done:  E(RPBE1PBE) =  -3005.33100024     A.U. after   15 cycles

 Excitation energies and oscillator strengths:

 Excited State   1:      Singlet-A      1.8324 eV  676.64 nm  f=0.3415  <S**2>=0.000
     245 -> 248        0.18220
     246 -> 247        0.68919
 This state for optimization and/or second-order correction.
 Total Energy, E(TD-HF/TD-DFT) =  -3005.26366232
 Copying the excited state density for this state as the 1-particle RhoCI density.

 Excited State   2:      Singlet-A      2.2729 eV  545.48 nm  f=0.0134  <S**2>=0.000
     245 -> 247        0.57957
     246 -> 248       -0.39790

 Excited State   3:      Singlet-A      3.1300 eV  396.12 nm  f=0.4639  <S**2>=0.000
     243 -> 247        0.18993
     245 -> 247        0.34180
     246 -> 248        0.51731
     246 -> 249       -0.20076
     246 -> 250        0.11684

 Excited State   4:      Singlet-A      3.1603 eV  392.32 nm  f=0.0642  <S**2>=0.000
     241 -> 247        0.20457
     242 -> 247        0.41403
     242 -> 249       -0.19667
     243 -> 247        0.40675
     245 -> 247       -0.10143
     246 -> 248       -0.14062
     246 -> 249       -0.12592

 Excited State   5:      Singlet-A      3.2014 eV  387.28 nm  f=0.0437  <S**2>=0.000
     243 -> 247        0.14600
     246 -> 248        0.14412
     246 -> 249        0.65410

 The electronic state is 1-A.
 Alpha  occ. eigenvalues --  -46.92707 -19.26556 -19.25320 -19.20752 -19.19669
 Alpha  occ. eigenvalues --  -19.19392 -19.19033 -14.41622 -14.41402 -14.38828
 Alpha  occ. eigenvalues --  -14.38813 -10.36425 -10.36401 -10.32526 -10.32070
 Alpha  occ. eigenvalues --  -10.28938 -10.28793 -10.28783 -10.28751 -10.28511
 Alpha  occ. eigenvalues --  -10.28480 -10.28366 -10.27127 -10.26547 -10.26533
 Alpha  occ. eigenvalues --  -10.26367 -10.26211 -10.26100 -10.25999 -10.25841
 Alpha  occ. eigenvalues --  -10.25214 -10.25199 -10.25169 -10.25140 -10.24986
 Alpha  occ. eigenvalues --  -10.24707 -10.24527 -10.24070 -10.23989 -10.23976
 Alpha  occ. eigenvalues --  -10.23718 -10.23697 -10.23641 -10.23523 -10.23515
 Alpha  occ. eigenvalues --  -10.23486 -10.23067 -10.23022 -10.22951 -10.22910
 Alpha  occ. eigenvalues --  -10.22816 -10.22799 -10.22721 -10.22649 -10.22436
 Alpha  occ. eigenvalues --  -10.22405 -10.22163 -10.22090 -10.22071 -10.22011
 Alpha  occ. eigenvalues --  -10.21964 -10.21960 -10.21845 -10.21693 -10.21598
 Alpha  occ. eigenvalues --  -10.21387  -3.14628  -1.87462  -1.86989  -1.86851
 Alpha  occ. eigenvalues --   -1.10562  -1.10370  -1.06194  -1.02783  -1.02587
 Alpha  occ. eigenvalues --   -1.01617  -0.98474  -0.97486  -0.97270  -0.96149
 Alpha  occ. eigenvalues --   -0.85559  -0.84245  -0.83908  -0.83662  -0.82908
 Alpha  occ. eigenvalues --   -0.82571  -0.82414  -0.81526  -0.81427  -0.81367
 Alpha  occ. eigenvalues --   -0.79905  -0.79307  -0.78322  -0.77889  -0.77145
 Alpha  occ. eigenvalues --   -0.76496  -0.76425  -0.75275  -0.74602  -0.74499
 Alpha  occ. eigenvalues --   -0.73555  -0.72283  -0.71765  -0.71428  -0.69932
 Alpha  occ. eigenvalues --   -0.69536  -0.69416  -0.69246  -0.68797  -0.68421
 Alpha  occ. eigenvalues --   -0.66950  -0.66502  -0.65827  -0.63615  -0.63132
 Alpha  occ. eigenvalues --   -0.62719  -0.62239  -0.61464  -0.60720  -0.59704
 Alpha  occ. eigenvalues --   -0.59335  -0.58928  -0.58731  -0.58710  -0.57762
 Alpha  occ. eigenvalues --   -0.57281  -0.56898  -0.56482  -0.56477  -0.54333
 Alpha  occ. eigenvalues --   -0.54151  -0.53422  -0.52928  -0.52833  -0.51922
 Alpha  occ. eigenvalues --   -0.51378  -0.50926  -0.50467  -0.49897  -0.49814
 Alpha  occ. eigenvalues --   -0.49522  -0.49452  -0.48731  -0.48483  -0.48385
 Alpha  occ. eigenvalues --   -0.48140  -0.48033  -0.47813  -0.47660  -0.47268
 Alpha  occ. eigenvalues --   -0.46984  -0.46953  -0.46627  -0.46494  -0.46295
 Alpha  occ. eigenvalues --   -0.46176  -0.45581  -0.45484  -0.45105  -0.44933
 Alpha  occ. eigenvalues --   -0.44761  -0.44656  -0.44466  -0.44393  -0.44244
 Alpha  occ. eigenvalues --   -0.43894  -0.43726  -0.43377  -0.43219  -0.43135
 Alpha  occ. eigenvalues --   -0.43070  -0.42821  -0.42619  -0.42472  -0.42352
 Alpha  occ. eigenvalues --   -0.42256  -0.42077  -0.41265  -0.41136  -0.40941
 Alpha  occ. eigenvalues --   -0.40890  -0.40826  -0.40664  -0.40593  -0.40495
 Alpha  occ. eigenvalues --   -0.40175  -0.40073  -0.39855  -0.39449  -0.39383
 Alpha  occ. eigenvalues --   -0.39090  -0.38937  -0.38893  -0.38752  -0.38623
 Alpha  occ. eigenvalues --   -0.38369  -0.38213  -0.38072  -0.37723  -0.37722
 Alpha  occ. eigenvalues --   -0.37640  -0.37247  -0.37142  -0.36888  -0.36583
 Alpha  occ. eigenvalues --   -0.36534  -0.36388  -0.35993  -0.35867  -0.35738
 Alpha  occ. eigenvalues --   -0.35507  -0.35398  -0.35079  -0.34589  -0.34566
 Alpha  occ. eigenvalues --   -0.34229  -0.33609  -0.33566  -0.33514  -0.33441
 Alpha  occ. eigenvalues --   -0.32888  -0.32737  -0.32583  -0.32227  -0.32112
 Alpha  occ. eigenvalues --   -0.31946  -0.31814  -0.31699  -0.31598  -0.31105
 Alpha  occ. eigenvalues --   -0.31085  -0.30766  -0.29209  -0.29108  -0.28927
 Alpha  occ. eigenvalues --   -0.28919  -0.28654  -0.27997  -0.27037  -0.25924
 Alpha  occ. eigenvalues --   -0.25856  -0.25357  -0.24963  -0.24410  -0.20962
 Alpha  occ. eigenvalues --   -0.17835
 Alpha virt. eigenvalues --   -0.10167  -0.05787  -0.04126  -0.01882  -0.00745
 Alpha virt. eigenvalues --    0.00362   0.00892   0.01096   0.01487   0.03498
 Alpha virt. eigenvalues --    0.04342   0.04525   0.04934   0.05486   0.05742

 Mulliken charges:
               1
     1  Mg   0.950683
     2  C    0.046699
     3  C   -0.109465
     4  C   -0.051993
     5  C   -0.063531
     6  N   -0.370193
     7  C    0.023274
     8  C   -0.095086
     9  C   -0.183305
    10  C    0.152165
    11  C    0.014277
    12  C    0.073307
    13  C   -0.073786
    14  C    0.248331
    15  O   -0.235008
    16  O   -0.384933
    17  N   -0.478143
    18  C    0.167120
    19  C   -0.162936
    20  C   -0.115885
    21  C    0.171095
    22  C    0.044330
    23  C    0.035469
    24  O   -0.224037
    25  C   -0.007485
    26  N   -0.421584
    27  C    0.064630
    28  C   -0.129652
    29  C   -0.080024
    30  C    0.097959
    31  C    0.022350
    32  C   -0.054119
    33  C   -0.042750
    34  N   -0.454747
    35  C    0.109229
    36  C   -0.195251
    37  C   -0.014784
    38  C    0.121864
    39  C    0.063114
    40  C    0.142081
    41  O   -0.242561
    42  C   -0.176302
    43  C    0.291526
    44  O   -0.268811
    45  O   -0.342082
    46  C    0.108513
    47  C    0.211479
    48  C   -0.124124
    49  C   -0.242490
    50  C    0.029079
    51  C    0.011356
    52  C   -0.050033
    53  C   -0.012382
    54  C   -0.225626
    55  C   -0.010479
    56  C    0.036189
    57  C   -0.055935
    58  C   -0.026332
    59  C   -0.236718
    60  C   -0.009329
    61  C    0.027005
    62  C   -0.052564
    63  C    0.009855
    64  C   -0.276465
    65  C    0.000109
    66  C   -0.018874
    67  H   -0.002439
    68  H    0.033481
    69  H    0.000939
    70  H    0.033036
    71  H    0.031361
    72  H    0.055454
    73  H    0.040591
    74  H    0.041346
    75  H    0.023703
    76  H    0.088179
    77  H    0.070694
    78  H    0.053776
    79  H    0.057389
    80  H    0.038798
    81  H    0.075936
    82  H    0.061485
    83  H    0.072493
    84  H    0.061240
    85  H    0.053882
    86  H    0.045050
    87  H    0.044576
    88  H    0.052264
    89  H    0.042340
    90  H    0.038374
    91  H    0.036403
    92  H    0.049652
    93  H    0.036803
    94  H    0.047836
    95  H    0.069115
    96  H    0.062460
    97  H    0.040179
    98  H    0.095277
    99  H    0.073891
   100  H    0.052033
   101  H    0.071023
   102  H    0.061130
   103  H    0.053243
   104  H    0.033852
   105  H    0.061391
   106  H    0.058012
   107  H    0.031767
   108  H    0.013275
   109  H    0.053512
   110  H    0.042063
   111  H    0.025139
   112  H    0.027877
   113  H    0.023578
   114  H    0.036397
   115  H    0.026527
   116  H    0.049017
   117  H    0.035281
   118  H    0.019106
   119  H    0.027897
   120  H    0.017315
   121  H    0.035940
   122  H    0.027472
   123  H    0.026172
   124  H    0.035348
   125  H    0.023448
   126  H    0.041979
   127  H    0.031459
   128  H    0.028725
   129  H    0.016573
   130  H    0.022551
   131  H    0.027015
   132  H    0.018345
   133  H    0.029012
   134  H    0.034039
   135  H    0.039157
   136  H    0.034766
   137  H    0.040654
   138  H    0.032501
   139  H    0.040391
   140  H    0.016171
 Sum of Mulliken charges =  -0.00000

 Dipole moment (field-independent basis, Debye):
    X=              1.7099    Y=              3.7539    Z=              1.0849  Tot=              4.2653
 Quadrupole moment (field-independent basis, Debye-Ang):
   XX=           -373.3377   YY=           -405.0081   ZZ=           -403.9924
   XY=             -8.2323   XZ=              2.7256   YZ=              4.4258

 Normal termination of Gaussian 16 at Fri Apr 29 10:47:43 2022.
