 Gaussian 16, Revision A.03,
 Gaussian 16:  ES64L-G16RevA.03 25-Dec-2016

 --------------------------------
 #p wB97XD/Def2SVP td=(nstates=5)
 --------------------------------

 ----------------------------------------------------
 step_251_chromophore_22 TDDFT with wB97XD functional
 ----------------------------------------------------
 Symbolic Z-matrix:
 Charge =  0 Multiplicity = 1

                         Standard orientation:
 ---------------------------------------------------------------------
 Center     Atomic      Atomic             Coordinates (Angstroms)
 Number     Number       Type             X           Y           Z
 ---------------------------------------------------------------------
      1         12           0       -6.235209    0.524406   -0.190141
      2          6           0       -3.800560   -2.014786    0.477975
      3          6           0       -4.000251    2.889474    0.907730
      4          6           0       -8.606898    2.924136   -0.345716
      5          6           0       -8.642912   -2.049183   -0.334927
      6          7           0       -4.152123    0.417083    0.581873
      7          6           0       -3.305384   -0.694737    0.714027
      8          6           0       -1.940296   -0.225992    1.148196
      9          6           0       -2.249416    1.211649    1.744605
     10          6           0       -3.617723    1.529129    1.072903
     11          6           0       -2.355678    1.074030    3.305255
     12          6           0       -0.843539   -0.315906    0.029099
     13          6           0        0.383877   -0.858059    0.566509
     14          6           0        1.458889   -1.330713   -0.536066
     15          8           0        1.233333   -1.837989   -1.613622
     16          8           0        2.700675   -1.339275    0.118115
     17          7           0       -6.158520    2.640255    0.079904
     18          6           0       -5.145171    3.411027    0.492615
     19          6           0       -5.534902    4.785463    0.416159
     20          6           0       -6.869967    4.838380    0.074583
     21          6           0       -7.304696    3.382892   -0.150142
     22          6           0       -4.599808    5.942492    0.891536
     23          6           0       -7.762045    6.072649   -0.170742
     24          8           0       -8.927180    5.909972   -0.431431
     25          6           0       -7.172791    7.463488   -0.177282
     26          7           0       -8.368770    0.411183   -0.048137
     27          6           0       -9.096810    1.573668   -0.276586
     28          6           0      -10.523571    1.254098   -0.584242
     29          6           0      -10.540738   -0.351911   -0.604756
     30          6           0       -9.089894   -0.706743   -0.379061
     31          6           0      -11.485341    1.904083    0.352128
     32          6           0      -11.160851   -1.078705   -1.920912
     33          6           0      -12.342187   -1.948543   -1.744363
     34          7           0       -6.278412   -1.606893   -0.031629
     35          6           0       -7.347150   -2.470831   -0.113140
     36          6           0       -6.803487   -3.894581   -0.012126
     37          6           0       -5.404715   -3.768882    0.105647
     38          6           0       -5.141097   -2.354755    0.141909
     39          6           0       -7.672287   -5.159771   -0.016036
     40          6           0       -4.223776   -4.539610    0.352288
     41          8           0       -4.066232   -5.778802    0.432224
     42          6           0       -3.157482   -3.447109    0.773879
     43          6           0       -1.853368   -3.828410    0.010859
     44          8           0       -1.520394   -3.220799   -1.023154
     45          8           0       -1.184561   -4.789276    0.694380
     46          6           0       -0.047373   -5.282269   -0.156421
     47          6           0        3.732026   -1.911594   -0.753545
     48          6           0        5.157546   -1.726191   -0.169168
     49          6           0        6.221662   -2.570401   -0.326749
     50          6           0        6.262212   -3.956645   -1.012452
     51          6           0        7.620543   -2.096083    0.103552
     52          6           0        8.002231   -0.788115   -0.622862
     53          6           0        8.382386    0.369621    0.343460
     54          6           0        9.907965    0.707660    0.516231
     55          6           0       10.494351    0.063622    1.826649
     56          6           0       10.108340    2.211861    0.392919
     57          6           0       10.760209    2.550536   -1.009914
     58          6           0       12.174147    3.118809   -0.945088
     59          6           0       13.179862    2.262791   -1.766993
     60          6           0       12.896062    2.417487   -3.304956
     61          6           0       14.602247    2.609014   -1.355220
     62          6           0       15.435703    1.394190   -0.881507
     63          6           0       15.482180    1.227339    0.637934
     64          6           0       15.156445   -0.207705    1.048540
     65          6           0       14.827243   -0.443664    2.544566
     66          6           0       16.394068   -1.071366    0.630576
     67          1           0       -3.238091    3.661035    1.038086
     68          1           0       -9.389053    3.683468   -0.419479
     69          1           0       -9.295059   -2.915331   -0.464108
     70          1           0       -1.672896   -0.849016    2.001381
     71          1           0       -1.461154    1.925335    1.507672
     72          1           0       -3.275689    0.594998    3.639311
     73          1           0       -2.232763    2.059466    3.752584
     74          1           0       -1.515685    0.477249    3.661493
     75          1           0       -0.573084    0.711958   -0.213842
     76          1           0       -1.209769   -0.825480   -0.862457
     77          1           0        0.205958   -1.806558    1.073542
     78          1           0        0.823016   -0.095146    1.209805
     79          1           0       -4.554853    6.591208    0.016797
     80          1           0       -3.581357    5.639778    1.134431
     81          1           0       -5.014477    6.410132    1.784445
     82          1           0       -7.958729    8.211569   -0.281690
     83          1           0       -6.560870    7.331493   -1.069547
     84          1           0       -6.604607    7.594289    0.743628
     85          1           0      -10.639072    1.644479   -1.595534
     86          1           0      -11.147934   -0.665089    0.244192
     87          1           0      -11.982249    2.660233   -0.254351
     88          1           0      -10.993683    2.471548    1.142144
     89          1           0      -12.202092    1.235530    0.829549
     90          1           0      -10.346742   -1.741295   -2.214558
     91          1           0      -11.281597   -0.317989   -2.691011
     92          1           0      -12.113623   -2.981526   -2.005381
     93          1           0      -12.928378   -1.524110   -2.558716
     94          1           0      -12.863311   -1.781961   -0.800623
     95          1           0       -7.857070   -5.390962    1.032417
     96          1           0       -7.177307   -6.005254   -0.493702
     97          1           0       -8.577201   -4.965475   -0.591829
     98          1           0       -3.067876   -3.595557    1.849132
     99          1           0       -0.340821   -5.920399   -0.989794
    100          1           0        0.735826   -5.807939    0.388845
    101          1           0        0.455935   -4.384420   -0.515661
    102          1           0        3.781147   -1.301486   -1.654761
    103          1           0        3.533372   -2.966457   -0.940879
    104          1           0        5.168483   -0.803862    0.412654
    105          1           0        6.301230   -4.753438   -0.270514
    106          1           0        7.131242   -3.910074   -1.668967
    107          1           0        5.291087   -4.082498   -1.489950
    108          1           0        8.352604   -2.826725   -0.242306
    109          1           0        7.682660   -2.144081    1.190940
    110          1           0        7.230476   -0.399882   -1.286876
    111          1           0        8.775465   -1.134964   -1.308337
    112          1           0        7.956941    0.224027    1.336155
    113          1           0        7.827417    1.218052   -0.057133
    114          1           0       10.408538    0.220721   -0.320479
    115          1           0        9.653192   -0.009286    2.516020
    116          1           0       11.330936    0.578043    2.299293
    117          1           0       10.772632   -0.950535    1.538486
    118          1           0       10.733021    2.550050    1.218971
    119          1           0        9.136868    2.701348    0.472327
    120          1           0       10.208082    3.385793   -1.439305
    121          1           0       10.719035    1.774640   -1.774704
    122          1           0       12.578372    3.167778    0.066630
    123          1           0       12.101262    4.100699   -1.411103
    124          1           0       12.917441    1.258042   -1.433480
    125          1           0       11.965666    2.958814   -3.479702
    126          1           0       12.780825    1.483642   -3.854405
    127          1           0       13.597129    3.091357   -3.797469
    128          1           0       14.632360    3.312989   -0.523894
    129          1           0       15.084373    3.009199   -2.247496
    130          1           0       16.436240    1.560360   -1.281372
    131          1           0       15.040980    0.526088   -1.409828
    132          1           0       14.755165    1.909815    1.077406
    133          1           0       16.473178    1.442213    1.037811
    134          1           0       14.392570   -0.531492    0.342064
    135          1           0       13.919981    0.122457    2.754533
    136          1           0       15.641682   -0.116947    3.191841
    137          1           0       14.686445   -1.508527    2.727330
    138          1           0       17.292720   -0.458269    0.563202
    139          1           0       16.136704   -1.709190   -0.214412
    140          1           0       16.662793   -1.771569    1.421869
 ---------------------------------------------------------------------

 SCF Done:  E(RwB97XD) =  -3007.84037496     A.U. after   17 cycles

 Excitation energies and oscillator strengths:

 Excited State   1:      Singlet-A      1.6759 eV  739.81 nm  f=0.3472  <S**2>=0.000
     245 -> 248       -0.19230
     246 -> 247        0.68007
     245 <- 248       -0.11565
 This state for optimization and/or second-order correction.
 Total Energy, E(TD-HF/TD-DFT) =  -3007.77878667
 Copying the excited state density for this state as the 1-particle RhoCI density.

 Excited State   2:      Singlet-A      2.2155 eV  559.61 nm  f=0.0066  <S**2>=0.000
     245 -> 247        0.55079
     246 -> 248        0.43334

 Excited State   3:      Singlet-A      3.3187 eV  373.59 nm  f=0.8280  <S**2>=0.000
     245 -> 247       -0.41492
     246 -> 248        0.54734
     245 <- 247        0.10828

 Excited State   4:      Singlet-A      3.6127 eV  343.19 nm  f=0.0182  <S**2>=0.000
     241 -> 247        0.30451
     241 -> 249        0.27927
     241 -> 250       -0.14905
     242 -> 247        0.25798
     242 -> 249        0.28335
     242 -> 250       -0.14019
     243 -> 247        0.25553
     243 -> 249        0.12083
     246 -> 249        0.13569

 Excited State   5:      Singlet-A      3.7026 eV  334.86 nm  f=0.1296  <S**2>=0.000
     242 -> 247       -0.15102
     245 -> 248        0.20477
     246 -> 249        0.60294
     246 -> 250       -0.13361

 The electronic state is 1-A.
 Alpha  occ. eigenvalues --  -46.95665 -19.31066 -19.29818 -19.25346 -19.24455
 Alpha  occ. eigenvalues --  -19.24288 -19.23631 -14.46778 -14.46385 -14.43882
 Alpha  occ. eigenvalues --  -14.43613 -10.43193 -10.43103 -10.39586 -10.38748
 Alpha  occ. eigenvalues --  -10.35390 -10.35345 -10.35294 -10.35248 -10.34951
 Alpha  occ. eigenvalues --  -10.34821 -10.34348 -10.33024 -10.32949 -10.32875
 Alpha  occ. eigenvalues --  -10.32827 -10.32660 -10.32488 -10.32133 -10.32124
 Alpha  occ. eigenvalues --  -10.31972 -10.31872 -10.31351 -10.31308 -10.31296
 Alpha  occ. eigenvalues --  -10.30950 -10.30935 -10.30768 -10.30405 -10.30286
 Alpha  occ. eigenvalues --  -10.30264 -10.30155 -10.30080 -10.29890 -10.29702
 Alpha  occ. eigenvalues --  -10.29680 -10.29341 -10.29291 -10.29265 -10.29229
 Alpha  occ. eigenvalues --  -10.29138 -10.29111 -10.29003 -10.28806 -10.28751
 Alpha  occ. eigenvalues --  -10.28734 -10.28529 -10.28522 -10.28499 -10.28435
 Alpha  occ. eigenvalues --  -10.28332 -10.28327 -10.28213 -10.28058 -10.27960
 Alpha  occ. eigenvalues --  -10.27801  -3.21468  -1.95047  -1.94573  -1.94433
 Alpha  occ. eigenvalues --   -1.17904  -1.17683  -1.13905  -1.10057  -1.09896
 Alpha  occ. eigenvalues --   -1.08929  -1.06029  -1.04967  -1.04585  -1.03317
 Alpha  occ. eigenvalues --   -0.93040  -0.91914  -0.91537  -0.91295  -0.90634
 Alpha  occ. eigenvalues --   -0.90235  -0.89953  -0.89428  -0.89072  -0.89028
 Alpha  occ. eigenvalues --   -0.87408  -0.86853  -0.85846  -0.85530  -0.84772
 Alpha  occ. eigenvalues --   -0.84408  -0.84098  -0.82894  -0.82192  -0.82119
 Alpha  occ. eigenvalues --   -0.81227  -0.80123  -0.79350  -0.78980  -0.77493
 Alpha  occ. eigenvalues --   -0.77217  -0.77110  -0.76854  -0.76473  -0.76089
 Alpha  occ. eigenvalues --   -0.74524  -0.74048  -0.73288  -0.71271  -0.70802
 Alpha  occ. eigenvalues --   -0.70248  -0.69673  -0.69070  -0.68345  -0.67186
 Alpha  occ. eigenvalues --   -0.66842  -0.66343  -0.66318  -0.66183  -0.65462
 Alpha  occ. eigenvalues --   -0.64948  -0.64328  -0.64111  -0.63820  -0.61874
 Alpha  occ. eigenvalues --   -0.61628  -0.60834  -0.60324  -0.60203  -0.59244
 Alpha  occ. eigenvalues --   -0.58879  -0.58397  -0.57964  -0.57253  -0.57225
 Alpha  occ. eigenvalues --   -0.56960  -0.56876  -0.56105  -0.55948  -0.55806
 Alpha  occ. eigenvalues --   -0.55666  -0.55514  -0.55139  -0.55020  -0.54538
 Alpha  occ. eigenvalues --   -0.54350  -0.54297  -0.53975  -0.53847  -0.53660
 Alpha  occ. eigenvalues --   -0.53558  -0.53127  -0.52899  -0.52385  -0.52171
 Alpha  occ. eigenvalues --   -0.52072  -0.51980  -0.51972  -0.51717  -0.51551
 Alpha  occ. eigenvalues --   -0.51356  -0.50962  -0.50735  -0.50487  -0.50448
 Alpha  occ. eigenvalues --   -0.50401  -0.50127  -0.49926  -0.49820  -0.49649
 Alpha  occ. eigenvalues --   -0.49544  -0.49298  -0.48443  -0.48375  -0.48158
 Alpha  occ. eigenvalues --   -0.48039  -0.48031  -0.47824  -0.47778  -0.47697
 Alpha  occ. eigenvalues --   -0.47387  -0.47196  -0.47047  -0.46649  -0.46389
 Alpha  occ. eigenvalues --   -0.46248  -0.46101  -0.46087  -0.45927  -0.45795
 Alpha  occ. eigenvalues --   -0.45520  -0.45452  -0.45126  -0.45060  -0.44882
 Alpha  occ. eigenvalues --   -0.44880  -0.44379  -0.44141  -0.43950  -0.43698
 Alpha  occ. eigenvalues --   -0.43626  -0.43325  -0.42968  -0.42921  -0.42779
 Alpha  occ. eigenvalues --   -0.42654  -0.42389  -0.42066  -0.41670  -0.41581
 Alpha  occ. eigenvalues --   -0.41286  -0.40644  -0.40581  -0.40517  -0.40400
 Alpha  occ. eigenvalues --   -0.39790  -0.39689  -0.39634  -0.39261  -0.39046
 Alpha  occ. eigenvalues --   -0.38977  -0.38786  -0.38732  -0.38610  -0.38047
 Alpha  occ. eigenvalues --   -0.37980  -0.37705  -0.36078  -0.35935  -0.35797
 Alpha  occ. eigenvalues --   -0.35749  -0.35569  -0.34885  -0.33855  -0.33300
 Alpha  occ. eigenvalues --   -0.32502  -0.32126  -0.31348  -0.31153  -0.26096
 Alpha  occ. eigenvalues --   -0.21917
 Alpha virt. eigenvalues --   -0.05791  -0.00507   0.02199   0.04573   0.05228
 Alpha virt. eigenvalues --    0.07258   0.07671   0.07922   0.08318   0.09945
 Alpha virt. eigenvalues --    0.10852   0.11170   0.11649   0.12138   0.12400

 Mulliken charges:
               1
     1  Mg   0.944249
     2  C    0.041566
     3  C   -0.129030
     4  C   -0.076135
     5  C   -0.077278
     6  N   -0.335393
     7  C   -0.010195
     8  C   -0.065867
     9  C   -0.153810
    10  C    0.134602
    11  C    0.022451
    12  C    0.082378
    13  C   -0.049997
    14  C    0.236151
    15  O   -0.231699
    16  O   -0.385339
    17  N   -0.446328
    18  C    0.165685
    19  C   -0.153439
    20  C   -0.107988
    21  C    0.164859
    22  C    0.056860
    23  C    0.032384
    24  O   -0.217529
    25  C    0.006263
    26  N   -0.392628
    27  C    0.060411
    28  C   -0.103347
    29  C   -0.058574
    30  C    0.088936
    31  C    0.029784
    32  C   -0.034594
    33  C   -0.028585
    34  N   -0.417015
    35  C    0.095982
    36  C   -0.195685
    37  C   -0.011559
    38  C    0.104923
    39  C    0.075032
    40  C    0.124027
    41  O   -0.234750
    42  C   -0.138923
    43  C    0.270767
    44  O   -0.262807
    45  O   -0.342777
    46  C    0.130030
    47  C    0.227196
    48  C   -0.135041
    49  C   -0.228007
    50  C    0.047494
    51  C    0.024463
    52  C   -0.032331
    53  C    0.001319
    54  C   -0.195082
    55  C    0.006209
    56  C    0.051868
    57  C   -0.038819
    58  C   -0.007360
    59  C   -0.203387
    60  C    0.000560
    61  C    0.044029
    62  C   -0.036624
    63  C    0.026506
    64  C   -0.241893
    65  C    0.016600
    66  C   -0.009986
    67  H   -0.010717
    68  H    0.028989
    69  H   -0.008394
    70  H    0.015970
    71  H    0.023748
    72  H    0.050966
    73  H    0.034953
    74  H    0.035231
    75  H    0.013411
    76  H    0.081091
    77  H    0.060669
    78  H    0.047354
    79  H    0.051493
    80  H    0.037246
    81  H    0.072383
    82  H    0.061881
    83  H    0.066222
    84  H    0.055394
    85  H    0.042994
    86  H    0.031330
    87  H    0.039583
    88  H    0.045752
    89  H    0.038374
    90  H    0.027007
    91  H    0.028177
    92  H    0.044936
    93  H    0.030223
    94  H    0.041701
    95  H    0.062884
    96  H    0.057803
    97  H    0.033335
    98  H    0.088704
    99  H    0.070332
   100  H    0.048664
   101  H    0.060797
   102  H    0.054818
   103  H    0.045955
   104  H    0.031151
   105  H    0.056263
   106  H    0.051731
   107  H    0.024522
   108  H    0.005452
   109  H    0.046165
   110  H    0.032874
   111  H    0.018041
   112  H    0.016898
   113  H    0.014844
   114  H    0.018905
   115  H    0.019008
   116  H    0.041528
   117  H    0.028708
   118  H    0.010313
   119  H    0.019520
   120  H    0.010048
   121  H    0.024408
   122  H    0.014248
   123  H    0.016858
   124  H    0.016204
   125  H    0.016059
   126  H    0.037656
   127  H    0.025674
   128  H    0.018604
   129  H    0.008145
   130  H    0.015775
   131  H    0.015559
   132  H    0.006269
   133  H    0.019321
   134  H    0.019255
   135  H    0.030860
   136  H    0.028400
   137  H    0.034671
   138  H    0.025457
   139  H    0.035615
   140  H    0.009949
 Sum of Mulliken charges =  -0.00000

 Dipole moment (field-independent basis, Debye):
    X=              1.8233    Y=              4.5549    Z=              1.1414  Tot=              5.0373
 Quadrupole moment (field-independent basis, Debye-Ang):
   XX=           -375.0636   YY=           -401.9726   ZZ=           -403.7033
   XY=            -13.8186   XZ=              2.4820   YZ=              4.5321

 Normal termination of Gaussian 16 at Fri Apr 29 11:17:47 2022.
