 Gaussian 16, Revision A.03,
 Gaussian 16:  ES64L-G16RevA.03 25-Dec-2016

 --------------------
 #p ZINDO=(nstates=5)
 --------------------

 -----------------------------
 step_251_chromophore_22 ZINDO
 -----------------------------
 Symbolic Z-matrix:
 Charge =  0 Multiplicity = 1

                         Standard orientation:
 ---------------------------------------------------------------------
 Center     Atomic      Atomic             Coordinates (Angstroms)
 Number     Number       Type             X           Y           Z
 ---------------------------------------------------------------------
      1         12           0       -6.235209    0.524406   -0.190141
      2          6           0       -3.800560   -2.014786    0.477975
      3          6           0       -4.000251    2.889474    0.907730
      4          6           0       -8.606898    2.924136   -0.345716
      5          6           0       -8.642912   -2.049183   -0.334927
      6          7           0       -4.152123    0.417083    0.581873
      7          6           0       -3.305384   -0.694737    0.714027
      8          6           0       -1.940296   -0.225992    1.148196
      9          6           0       -2.249416    1.211649    1.744605
     10          6           0       -3.617723    1.529129    1.072903
     11          6           0       -2.355678    1.074030    3.305255
     12          6           0       -0.843539   -0.315906    0.029099
     13          6           0        0.383877   -0.858059    0.566509
     14          6           0        1.458889   -1.330713   -0.536066
     15          8           0        1.233333   -1.837989   -1.613622
     16          8           0        2.700675   -1.339275    0.118115
     17          7           0       -6.158520    2.640255    0.079904
     18          6           0       -5.145171    3.411027    0.492615
     19          6           0       -5.534902    4.785463    0.416159
     20          6           0       -6.869967    4.838380    0.074583
     21          6           0       -7.304696    3.382892   -0.150142
     22          6           0       -4.599808    5.942492    0.891536
     23          6           0       -7.762045    6.072649   -0.170742
     24          8           0       -8.927180    5.909972   -0.431431
     25          6           0       -7.172791    7.463488   -0.177282
     26          7           0       -8.368770    0.411183   -0.048137
     27          6           0       -9.096810    1.573668   -0.276586
     28          6           0      -10.523571    1.254098   -0.584242
     29          6           0      -10.540738   -0.351911   -0.604756
     30          6           0       -9.089894   -0.706743   -0.379061
     31          6           0      -11.485341    1.904083    0.352128
     32          6           0      -11.160851   -1.078705   -1.920912
     33          6           0      -12.342187   -1.948543   -1.744363
     34          7           0       -6.278412   -1.606893   -0.031629
     35          6           0       -7.347150   -2.470831   -0.113140
     36          6           0       -6.803487   -3.894581   -0.012126
     37          6           0       -5.404715   -3.768882    0.105647
     38          6           0       -5.141097   -2.354755    0.141909
     39          6           0       -7.672287   -5.159771   -0.016036
     40          6           0       -4.223776   -4.539610    0.352288
     41          8           0       -4.066232   -5.778802    0.432224
     42          6           0       -3.157482   -3.447109    0.773879
     43          6           0       -1.853368   -3.828410    0.010859
     44          8           0       -1.520394   -3.220799   -1.023154
     45          8           0       -1.184561   -4.789276    0.694380
     46          6           0       -0.047373   -5.282269   -0.156421
     47          6           0        3.732026   -1.911594   -0.753545
     48          6           0        5.157546   -1.726191   -0.169168
     49          6           0        6.221662   -2.570401   -0.326749
     50          6           0        6.262212   -3.956645   -1.012452
     51          6           0        7.620543   -2.096083    0.103552
     52          6           0        8.002231   -0.788115   -0.622862
     53          6           0        8.382386    0.369621    0.343460
     54          6           0        9.907965    0.707660    0.516231
     55          6           0       10.494351    0.063622    1.826649
     56          6           0       10.108340    2.211861    0.392919
     57          6           0       10.760209    2.550536   -1.009914
     58          6           0       12.174147    3.118809   -0.945088
     59          6           0       13.179862    2.262791   -1.766993
     60          6           0       12.896062    2.417487   -3.304956
     61          6           0       14.602247    2.609014   -1.355220
     62          6           0       15.435703    1.394190   -0.881507
     63          6           0       15.482180    1.227339    0.637934
     64          6           0       15.156445   -0.207705    1.048540
     65          6           0       14.827243   -0.443664    2.544566
     66          6           0       16.394068   -1.071366    0.630576
     67          1           0       -3.238091    3.661035    1.038086
     68          1           0       -9.389053    3.683468   -0.419479
     69          1           0       -9.295059   -2.915331   -0.464108
     70          1           0       -1.672896   -0.849016    2.001381
     71          1           0       -1.461154    1.925335    1.507672
     72          1           0       -3.275689    0.594998    3.639311
     73          1           0       -2.232763    2.059466    3.752584
     74          1           0       -1.515685    0.477249    3.661493
     75          1           0       -0.573084    0.711958   -0.213842
     76          1           0       -1.209769   -0.825480   -0.862457
     77          1           0        0.205958   -1.806558    1.073542
     78          1           0        0.823016   -0.095146    1.209805
     79          1           0       -4.554853    6.591208    0.016797
     80          1           0       -3.581357    5.639778    1.134431
     81          1           0       -5.014477    6.410132    1.784445
     82          1           0       -7.958729    8.211569   -0.281690
     83          1           0       -6.560870    7.331493   -1.069547
     84          1           0       -6.604607    7.594289    0.743628
     85          1           0      -10.639072    1.644479   -1.595534
     86          1           0      -11.147934   -0.665089    0.244192
     87          1           0      -11.982249    2.660233   -0.254351
     88          1           0      -10.993683    2.471548    1.142144
     89          1           0      -12.202092    1.235530    0.829549
     90          1           0      -10.346742   -1.741295   -2.214558
     91          1           0      -11.281597   -0.317989   -2.691011
     92          1           0      -12.113623   -2.981526   -2.005381
     93          1           0      -12.928378   -1.524110   -2.558716
     94          1           0      -12.863311   -1.781961   -0.800623
     95          1           0       -7.857070   -5.390962    1.032417
     96          1           0       -7.177307   -6.005254   -0.493702
     97          1           0       -8.577201   -4.965475   -0.591829
     98          1           0       -3.067876   -3.595557    1.849132
     99          1           0       -0.340821   -5.920399   -0.989794
    100          1           0        0.735826   -5.807939    0.388845
    101          1           0        0.455935   -4.384420   -0.515661
    102          1           0        3.781147   -1.301486   -1.654761
    103          1           0        3.533372   -2.966457   -0.940879
    104          1           0        5.168483   -0.803862    0.412654
    105          1           0        6.301230   -4.753438   -0.270514
    106          1           0        7.131242   -3.910074   -1.668967
    107          1           0        5.291087   -4.082498   -1.489950
    108          1           0        8.352604   -2.826725   -0.242306
    109          1           0        7.682660   -2.144081    1.190940
    110          1           0        7.230476   -0.399882   -1.286876
    111          1           0        8.775465   -1.134964   -1.308337
    112          1           0        7.956941    0.224027    1.336155
    113          1           0        7.827417    1.218052   -0.057133
    114          1           0       10.408538    0.220721   -0.320479
    115          1           0        9.653192   -0.009286    2.516020
    116          1           0       11.330936    0.578043    2.299293
    117          1           0       10.772632   -0.950535    1.538486
    118          1           0       10.733021    2.550050    1.218971
    119          1           0        9.136868    2.701348    0.472327
    120          1           0       10.208082    3.385793   -1.439305
    121          1           0       10.719035    1.774640   -1.774704
    122          1           0       12.578372    3.167778    0.066630
    123          1           0       12.101262    4.100699   -1.411103
    124          1           0       12.917441    1.258042   -1.433480
    125          1           0       11.965666    2.958814   -3.479702
    126          1           0       12.780825    1.483642   -3.854405
    127          1           0       13.597129    3.091357   -3.797469
    128          1           0       14.632360    3.312989   -0.523894
    129          1           0       15.084373    3.009199   -2.247496
    130          1           0       16.436240    1.560360   -1.281372
    131          1           0       15.040980    0.526088   -1.409828
    132          1           0       14.755165    1.909815    1.077406
    133          1           0       16.473178    1.442213    1.037811
    134          1           0       14.392570   -0.531492    0.342064
    135          1           0       13.919981    0.122457    2.754533
    136          1           0       15.641682   -0.116947    3.191841
    137          1           0       14.686445   -1.508527    2.727330
    138          1           0       17.292720   -0.458269    0.563202
    139          1           0       16.136704   -1.709190   -0.214412
    140          1           0       16.662793   -1.771569    1.421869
 ---------------------------------------------------------------------

 SCF Done:  E(RZINDO/S) =  -474.013472168     A.U. after   20 cycles

 Excitation energies and oscillator strengths:

 Excited State   1:      Singlet-A      1.3039 eV  950.90 nm  f=0.5320  <S**2>=0.000
     175 ->178        -0.18221
     176 ->177         0.66665
 This state for optimization and/or second-order correction.
 Total Energy, E(CIS/TDA) =  -473.965555891
 Copying the excited state density for this state as the 1-particle RhoCI density.

 Excited State   2:      Singlet-A      1.8579 eV  667.34 nm  f=0.0217  <S**2>=0.000
     175 ->177         0.41434
     176 ->178         0.55344

 Excited State   3:      Singlet-A      2.7574 eV  449.64 nm  f=0.0783  <S**2>=0.000
     175 ->177         0.12313
     176 ->178        -0.10569
     176 ->179         0.60435
     176 ->181         0.23331

 Excited State   4:      Singlet-A      2.8369 eV  437.05 nm  f=0.0191  <S**2>=0.000
     176 ->180         0.50295
     176 ->181         0.47644

 Excited State   5:      Singlet-A      2.9950 eV  413.97 nm  f=1.0581  <S**2>=0.000
     175 ->177         0.48006
     176 ->178        -0.38436
     176 ->179        -0.19652
     176 ->181         0.11279

 The electronic state is 1-A.
 Alpha  occ. eigenvalues --   -1.82196  -1.79558  -1.79017  -1.71336  -1.70947
 Alpha  occ. eigenvalues --   -1.69150  -1.66326  -1.61088  -1.60883  -1.55644
 Alpha  occ. eigenvalues --   -1.54992  -1.51356  -1.49096  -1.46884  -1.46036
 Alpha  occ. eigenvalues --   -1.44145  -1.42180  -1.40040  -1.39202  -1.38268
 Alpha  occ. eigenvalues --   -1.35248  -1.34816  -1.31252  -1.31007  -1.28452
 Alpha  occ. eigenvalues --   -1.25894  -1.24897  -1.22835  -1.20890  -1.17591
 Alpha  occ. eigenvalues --   -1.15589  -1.15382  -1.14431  -1.13529  -1.12268
 Alpha  occ. eigenvalues --   -1.11549  -1.10384  -1.10147  -1.04594  -1.02703
 Alpha  occ. eigenvalues --   -1.01699  -1.00095  -0.99951  -0.97857  -0.96121
 Alpha  occ. eigenvalues --   -0.94431  -0.93694  -0.93312  -0.92009  -0.91465
 Alpha  occ. eigenvalues --   -0.90677  -0.90580  -0.88028  -0.87582  -0.86086
 Alpha  occ. eigenvalues --   -0.85922  -0.83518  -0.83063  -0.81982  -0.80317
 Alpha  occ. eigenvalues --   -0.79222  -0.78860  -0.77677  -0.75886  -0.75374
 Alpha  occ. eigenvalues --   -0.74801  -0.74324  -0.73619  -0.73289  -0.72847
 Alpha  occ. eigenvalues --   -0.72337  -0.72002  -0.71757  -0.70982  -0.70460
 Alpha  occ. eigenvalues --   -0.70260  -0.69032  -0.68917  -0.68348  -0.68054
 Alpha  occ. eigenvalues --   -0.67396  -0.66850  -0.66546  -0.66290  -0.66028
 Alpha  occ. eigenvalues --   -0.64909  -0.64499  -0.63821  -0.63497  -0.63276
 Alpha  occ. eigenvalues --   -0.63166  -0.63136  -0.62454  -0.62193  -0.61989
 Alpha  occ. eigenvalues --   -0.61899  -0.61363  -0.61104  -0.60656  -0.59639
 Alpha  occ. eigenvalues --   -0.59556  -0.59150  -0.59040  -0.58593  -0.58111
 Alpha  occ. eigenvalues --   -0.57950  -0.57645  -0.57531  -0.56995  -0.56390
 Alpha  occ. eigenvalues --   -0.55789  -0.55242  -0.54944  -0.54779  -0.54690
 Alpha  occ. eigenvalues --   -0.54577  -0.54157  -0.53280  -0.52728  -0.52423
 Alpha  occ. eigenvalues --   -0.52291  -0.52066  -0.51961  -0.51711  -0.51313
 Alpha  occ. eigenvalues --   -0.50886  -0.50436  -0.50188  -0.50096  -0.49832
 Alpha  occ. eigenvalues --   -0.49757  -0.49335  -0.49067  -0.48945  -0.48585
 Alpha  occ. eigenvalues --   -0.48196  -0.48086  -0.47829  -0.47410  -0.47230
 Alpha  occ. eigenvalues --   -0.47184  -0.46629  -0.46597  -0.46496  -0.46329
 Alpha  occ. eigenvalues --   -0.46074  -0.45842  -0.45625  -0.45422  -0.44779
 Alpha  occ. eigenvalues --   -0.44582  -0.44489  -0.44273  -0.44044  -0.43993
 Alpha  occ. eigenvalues --   -0.43638  -0.43427  -0.42313  -0.42208  -0.41811
 Alpha  occ. eigenvalues --   -0.41697  -0.41019  -0.40941  -0.38862  -0.38160
 Alpha  occ. eigenvalues --   -0.37452  -0.36667  -0.35718  -0.34735  -0.34442
 Alpha  occ. eigenvalues --   -0.34422  -0.31911  -0.31673  -0.30960  -0.26836
 Alpha  occ. eigenvalues --   -0.20713
 Alpha virt. eigenvalues --   -0.07082  -0.02591  -0.00479   0.01200   0.01397
 Alpha virt. eigenvalues --    0.02437   0.02813   0.03069   0.04787   0.05115
 Alpha virt. eigenvalues --    0.06408   0.06678   0.07264   0.08277   0.08616

 Mulliken charges:
               1
     1  Mg   0.428767
     2  C   -0.038253
     3  C   -0.085510
     4  C   -0.081117
     5  C   -0.061815
     6  N   -0.267952
     7  C    0.090255
     8  C   -0.000105
     9  C   -0.006698
    10  C    0.168005
    11  C   -0.048530
    12  C   -0.012882
    13  C    0.018265
    14  C    0.441328
    15  O   -0.480529
    16  O   -0.282101
    17  N   -0.342370
    18  C    0.147725
    19  C    0.016995
    20  C   -0.038185
    21  C    0.144367
    22  C   -0.049215
    23  C    0.327652
    24  O   -0.514233
    25  C   -0.030581
    26  N   -0.276734
    27  C    0.165642
    28  C    0.010671
    29  C   -0.014431
    30  C    0.097197
    31  C   -0.043507
    32  C   -0.034990
    33  C   -0.057108
    34  N   -0.314732
    35  C    0.068765
    36  C    0.005707
    37  C   -0.051260
    38  C    0.090487
    39  C   -0.038430
    40  C    0.332788
    41  O   -0.537428
    42  C    0.048268
    43  C    0.480184
    44  O   -0.524838
    45  O   -0.244013
    46  C    0.069354
    47  C    0.096887
    48  C   -0.096893
    49  C   -0.019198
    50  C   -0.045448
    51  C   -0.026187
    52  C   -0.031025
    53  C   -0.038193
    54  C   -0.013774
    55  C   -0.062600
    56  C   -0.030942
    57  C   -0.043759
    58  C   -0.037550
    59  C   -0.012747
    60  C   -0.060416
    61  C   -0.037138
    62  C   -0.037941
    63  C   -0.025534
    64  C   -0.018776
    65  C   -0.052158
    66  C   -0.067427
    67  H    0.020445
    68  H    0.051207
    69  H    0.030910
    70  H    0.021886
    71  H    0.030378
    72  H    0.031726
    73  H    0.015054
    74  H    0.017520
    75  H    0.013875
    76  H    0.058098
    77  H    0.046246
    78  H    0.034336
    79  H    0.030269
    80  H    0.026575
    81  H    0.035197
    82  H    0.045049
    83  H    0.048756
    84  H    0.039464
    85  H    0.034779
    86  H    0.031463
    87  H    0.018737
    88  H    0.023314
    89  H    0.025213
    90  H    0.019667
    91  H    0.022921
    92  H    0.029119
    93  H    0.015138
    94  H    0.028252
    95  H    0.036677
    96  H    0.034315
    97  H    0.022729
    98  H    0.059232
    99  H    0.053869
   100  H    0.028370
   101  H    0.046750
   102  H    0.050947
   103  H    0.053332
   104  H    0.035857
   105  H    0.033863
   106  H    0.037500
   107  H    0.023664
   108  H    0.009075
   109  H    0.031497
   110  H    0.022409
   111  H    0.017058
   112  H    0.020265
   113  H    0.012031
   114  H    0.019219
   115  H    0.019090
   116  H    0.026844
   117  H    0.015782
   118  H    0.020599
   119  H    0.021155
   120  H    0.005727
   121  H    0.029842
   122  H    0.020175
   123  H    0.017550
   124  H    0.020373
   125  H    0.011667
   126  H    0.022468
   127  H    0.020387
   128  H    0.022514
   129  H    0.015545
   130  H    0.010992
   131  H    0.021471
   132  H    0.013174
   133  H    0.021402
   134  H    0.022383
   135  H    0.015608
   136  H    0.023062
   137  H    0.019804
   138  H    0.025004
   139  H    0.023071
   140  H    0.006006
 Sum of Mulliken charges =  -0.00000

 Dipole moment (field-independent basis, Debye):
    X=              2.2396    Y=              8.5301    Z=              3.7171  Tot=              9.5705
 N-N= 4.202466704243D+03 E-N= 0.000000000000D+00  KE=-9.079966241904D+03
 Leave Link  601 at Fri Apr 29 11:28:30 2022, MaxMem=  6710886400 cpu:               1.0 elap:               0.1
 (Enter /sw/apps/gaussian-16.0/g16/l9999.exe)
 1\1\GINC-BP1-COMPUTE163\SP\RZINDO CIS\STO-3G\C55H74Mg1N4O6\OF15641\29-
 Apr-2022\0\\#p ZINDO=(nstates=5)\\step_251_chromophore_22 ZINDO\\0,1\M
 g,0,8.73,48.007,24.726\C,0,6.547,48.354,27.543\C,0,11.385,48.832,26.74
 2\C,0,10.789,48.16,22.053\C,0,5.856,48.148,22.686\N,0,8.911,48.514,26.
 884\C,0,7.924,48.534,27.882\C,0,8.576,48.798,29.215\C,0,9.966,49.436,2
 8.792\C,0,10.09,48.941,27.321\C,0,9.833,50.997,28.899\C,0,8.621,47.551
 ,30.167\C,0,8.254,47.929,31.513\C,0,7.917,46.699,32.497\O,0,7.372,45.6

 Normal termination of Gaussian 16 at Fri Apr 29 11:28:30 2022.
