 Gaussian 16, Revision A.03,
 Gaussian 16:  ES64L-G16RevA.03 25-Dec-2016

 ------------------------------
 #p blyp/Def2SVP td=(nstates=5)
 ------------------------------

 --------------------------------------------------
 step_901_chromophore_20 TDDFT with blyp functional
 --------------------------------------------------
 Symbolic Z-matrix:
 Charge =  0 Multiplicity = 1

                         Standard orientation:
 ---------------------------------------------------------------------
 Center     Atomic      Atomic             Coordinates (Angstroms)
 Number     Number       Type             X           Y           Z
 ---------------------------------------------------------------------
      1         12           0        4.164913    1.465844   -0.685087
      2          6           0        4.108145   -2.050515   -1.135712
      3          6           0        1.891977    1.721857   -3.175432
      4          6           0        3.582952    4.635278    0.473540
      5          6           0        6.190677    0.945922    2.268167
      6          7           0        3.100216   -0.061661   -1.922059
      7          6           0        3.157523   -1.421642   -1.922749
      8          6           0        2.253304   -2.045392   -2.944749
      9          6           0        1.979014   -0.755767   -3.913617
     10          6           0        2.228205    0.341914   -2.916496
     11          6           0        2.924140   -0.634989   -5.176312
     12          6           0        1.012859   -2.566667   -2.244175
     13          6           0        0.076537   -3.419504   -3.071971
     14          6           0       -0.623673   -4.551308   -2.409360
     15          8           0       -0.256956   -5.757910   -2.346347
     16          8           0       -1.662111   -4.052558   -1.671986
     17          7           0        2.961549    2.909436   -1.257693
     18          6           0        2.140739    2.854277   -2.315974
     19          6           0        1.471480    4.143091   -2.556625
     20          6           0        1.819281    5.008131   -1.448327
     21          6           0        2.830202    4.214809   -0.663141
     22          6           0        0.648340    4.494127   -3.766815
     23          6           0        1.365176    6.421044   -1.299528
     24          8           0        0.468190    6.830929   -2.041936
     25          6           0        1.915640    7.264084   -0.238143
     26          7           0        4.981161    2.681371    1.101198
     27          6           0        4.488462    3.900333    1.280767
     28          6           0        5.020334    4.415168    2.661646
     29          6           0        5.853341    3.246608    3.217554
     30          6           0        5.737732    2.228948    2.117919
     31          6           0        5.780496    5.723022    2.494623
     32          6           0        5.480663    2.632167    4.637205
     33          6           0        6.442962    2.954554    5.740324
     34          7           0        5.042248   -0.167367    0.366159
     35          6           0        5.871292   -0.223008    1.457662
     36          6           0        6.288418   -1.624143    1.696121
     37          6           0        5.648011   -2.353848    0.682002
     38          6           0        4.859735   -1.449162   -0.074243
     39          6           0        7.287275   -2.250506    2.664088
     40          6           0        5.546734   -3.711033    0.125644
     41          8           0        6.079763   -4.765194    0.347852
     42          6           0        4.526901   -3.516245   -1.107010
     43          6           0        3.418674   -4.453598   -0.708347
     44          8           0        2.677787   -4.325960    0.290741
     45          8           0        3.357673   -5.471214   -1.567626
     46          6           0        2.711997   -6.664311   -1.066240
     47          6           0       -2.565803   -5.001264   -0.984546
     48          6           0       -3.696770   -4.266623   -0.257209
     49          6           0       -4.589826   -4.879883    0.574761
     50          6           0       -4.798872   -6.368442    0.701010
     51          6           0       -5.552896   -4.010378    1.338222
     52          6           0       -5.025684   -3.360773    2.690530
     53          6           0       -6.074844   -3.441201    3.780915
     54          6           0       -6.437052   -2.002053    4.296044
     55          6           0       -7.068875   -1.995148    5.617288
     56          6           0       -7.342075   -1.272006    3.240163
     57          6           0       -6.869375    0.177712    3.042192
     58          6           0       -6.480553    0.625228    1.623742
     59          6           0       -7.651582    0.914280    0.638377
     60          6           0       -7.588373    0.125815   -0.642584
     61          6           0       -7.786753    2.466998    0.352279
     62          6           0       -9.267626    2.932511    0.325722
     63          6           0       -9.472812    4.120216   -0.661200
     64          6           0      -10.420149    3.767631   -1.850256
     65          6           0      -10.261129    4.778512   -2.986514
     66          6           0      -11.840634    3.824218   -1.290333
     67          1           0        1.344075    1.840754   -4.112835
     68          1           0        3.249033    5.573670    0.921651
     69          1           0        6.907128    0.734653    3.064433
     70          1           0        2.725023   -2.827207   -3.540356
     71          1           0        0.959283   -0.770801   -4.298547
     72          1           0        3.641525   -1.454947   -5.145929
     73          1           0        3.510096    0.282697   -5.245198
     74          1           0        2.352826   -0.817163   -6.086495
     75          1           0        0.401438   -1.688480   -2.037933
     76          1           0        1.289050   -3.134127   -1.354780
     77          1           0        0.564154   -3.813317   -3.963789
     78          1           0       -0.767064   -2.813017   -3.401408
     79          1           0        0.957884    3.882378   -4.614404
     80          1           0        0.888772    5.535188   -3.981527
     81          1           0       -0.413178    4.359006   -3.560189
     82          1           0        2.988369    7.299415   -0.431014
     83          1           0        1.682090    6.888903    0.757754
     84          1           0        1.501015    8.258891   -0.401335
     85          1           0        4.226195    4.648005    3.371660
     86          1           0        6.874690    3.611337    3.114090
     87          1           0        5.113233    6.477148    2.075853
     88          1           0        6.530696    5.564543    1.720031
     89          1           0        6.161886    6.116291    3.437472
     90          1           0        5.270032    1.574486    4.480086
     91          1           0        4.561267    3.167580    4.872377
     92          1           0        7.258956    2.237408    5.647276
     93          1           0        5.880735    3.024377    6.671708
     94          1           0        6.868731    3.942667    5.568325
     95          1           0        6.844438   -3.039853    3.271210
     96          1           0        7.786557   -1.447496    3.207565
     97          1           0        8.117672   -2.722377    2.139692
     98          1           0        4.997970   -3.848012   -2.031969
     99          1           0        3.318082   -7.102594   -0.272929
    100          1           0        2.601045   -7.415865   -1.848133
    101          1           0        1.682139   -6.544492   -0.729144
    102          1           0       -1.906931   -5.378193   -0.202511
    103          1           0       -2.967432   -5.668269   -1.747844
    104          1           0       -3.735927   -3.184452   -0.386095
    105          1           0       -5.786587   -6.595940    0.301555
    106          1           0       -4.846517   -6.704023    1.736720
    107          1           0       -4.207235   -7.075813    0.121497
    108          1           0       -6.460493   -4.591468    1.497090
    109          1           0       -5.826960   -3.206960    0.655333
    110          1           0       -4.867773   -2.303738    2.472188
    111          1           0       -4.110765   -3.827192    3.053623
    112          1           0       -5.601619   -3.988620    4.596380
    113          1           0       -7.006008   -3.806223    3.348853
    114          1           0       -5.453999   -1.544119    4.401970
    115          1           0       -6.500759   -2.553061    6.360567
    116          1           0       -8.095358   -2.363002    5.619313
    117          1           0       -6.929199   -0.947239    5.883841
    118          1           0       -8.421686   -1.318510    3.383026
    119          1           0       -7.201198   -1.814727    2.305559
    120          1           0       -6.036245    0.338443    3.727882
    121          1           0       -7.656184    0.851761    3.380755
    122          1           0       -5.851443   -0.178972    1.243159
    123          1           0       -5.794234    1.468539    1.697859
    124          1           0       -8.524932    0.592491    1.206021
    125          1           0       -8.522075   -0.419189   -0.782760
    126          1           0       -6.727127   -0.530634   -0.516239
    127          1           0       -7.475541    0.763729   -1.518776
    128          1           0       -7.317312    2.674387   -0.609478
    129          1           0       -7.253140    3.042954    1.107117
    130          1           0       -9.495700    3.287727    1.330720
    131          1           0       -9.965181    2.114204    0.145980
    132          1           0       -8.564732    4.648336   -0.951456
    133          1           0       -9.900311    4.878342   -0.005655
    134          1           0      -10.261626    2.771295   -2.262240
    135          1           0       -9.415949    5.458453   -2.876022
    136          1           0      -11.155243    5.402441   -2.996085
    137          1           0      -10.208776    4.210019   -3.914393
    138          1           0      -12.297506    4.813498   -1.298159
    139          1           0      -11.774573    3.584460   -0.229133
    140          1           0      -12.504675    3.198027   -1.886596
 ---------------------------------------------------------------------

 SCF Done:  E(RB-LYP) =  -3007.40487753     A.U. after   21 cycles

 Excitation energies and oscillator strengths:

 Excited State   1:      Singlet-A      1.8021 eV  687.99 nm  f=0.2755  <S**2>=0.000
     245 -> 248       -0.20154
     246 -> 247        0.68407
     246 <- 247       -0.14275
 This state for optimization and/or second-order correction.
 Total Energy, E(TD-HF/TD-DFT) =  -3007.33865108
 Copying the excited state density for this state as the 1-particle RhoCI density.

 Excited State   2:      Singlet-A      1.9993 eV  620.13 nm  f=0.0167  <S**2>=0.000
     244 -> 247        0.60597
     245 -> 247        0.33587
     246 -> 248        0.12418

 Excited State   3:      Singlet-A      2.0463 eV  605.89 nm  f=0.0596  <S**2>=0.000
     244 -> 247       -0.36242
     245 -> 247        0.54536
     246 -> 248        0.23346

 Excited State   4:      Singlet-A      2.1011 eV  590.10 nm  f=0.0004  <S**2>=0.000
     243 -> 247        0.70638

 Excited State   5:      Singlet-A      2.1751 eV  570.02 nm  f=0.0001  <S**2>=0.000
     242 -> 247        0.70697

 The electronic state is 1-A.
 Alpha  occ. eigenvalues --  -46.28000 -18.81953 -18.81579 -18.76441 -18.76158
 Alpha  occ. eigenvalues --  -18.75454 -18.75438 -14.03451 -14.02935 -14.02124
 Alpha  occ. eigenvalues --  -14.01174 -10.03770 -10.03177 -10.00045  -9.99689
 Alpha  occ. eigenvalues --   -9.97940  -9.97375  -9.96829  -9.96808  -9.96339
 Alpha  occ. eigenvalues --   -9.96255  -9.96086  -9.95995  -9.95716  -9.94854
 Alpha  occ. eigenvalues --   -9.94634  -9.94396  -9.94056  -9.93632  -9.93621
 Alpha  occ. eigenvalues --   -9.93496  -9.93488  -9.93467  -9.93284  -9.93124
 Alpha  occ. eigenvalues --   -9.93122  -9.93069  -9.92888  -9.92851  -9.92823
 Alpha  occ. eigenvalues --   -9.92800  -9.92640  -9.92478  -9.92399  -9.92321
 Alpha  occ. eigenvalues --   -9.92288  -9.92032  -9.91836  -9.91787  -9.91760
 Alpha  occ. eigenvalues --   -9.91707  -9.91364  -9.91363  -9.91360  -9.91116
 Alpha  occ. eigenvalues --   -9.90972  -9.90912  -9.90855  -9.90829  -9.90742
 Alpha  occ. eigenvalues --   -9.90659  -9.90505  -9.90479  -9.90437  -9.90281
 Alpha  occ. eigenvalues --   -9.90272  -2.92590  -1.72999  -1.72480  -1.72311
 Alpha  occ. eigenvalues --   -0.98039  -0.96632  -0.92737  -0.91220  -0.88028
 Alpha  occ. eigenvalues --   -0.87694  -0.86946  -0.86302  -0.85124  -0.84672
 Alpha  occ. eigenvalues --   -0.74741  -0.73770  -0.73310  -0.72670  -0.72625
 Alpha  occ. eigenvalues --   -0.72131  -0.71712  -0.71047  -0.70718  -0.69806
 Alpha  occ. eigenvalues --   -0.69449  -0.69202  -0.68199  -0.67774  -0.67485
 Alpha  occ. eigenvalues --   -0.66674  -0.66420  -0.65630  -0.64968  -0.64658
 Alpha  occ. eigenvalues --   -0.64364  -0.62711  -0.62200  -0.61633  -0.60780
 Alpha  occ. eigenvalues --   -0.60290  -0.59845  -0.59630  -0.59523  -0.58509
 Alpha  occ. eigenvalues --   -0.57971  -0.57091  -0.56774  -0.55377  -0.54188
 Alpha  occ. eigenvalues --   -0.53654  -0.53280  -0.53118  -0.52005  -0.51615
 Alpha  occ. eigenvalues --   -0.51348  -0.50956  -0.50895  -0.50209  -0.49559
 Alpha  occ. eigenvalues --   -0.49259  -0.48751  -0.48526  -0.48190  -0.46534
 Alpha  occ. eigenvalues --   -0.46174  -0.45921  -0.45670  -0.45346  -0.44099
 Alpha  occ. eigenvalues --   -0.43846  -0.43640  -0.42894  -0.42596  -0.42370
 Alpha  occ. eigenvalues --   -0.42114  -0.41774  -0.41434  -0.41214  -0.41060
 Alpha  occ. eigenvalues --   -0.40920  -0.40768  -0.40479  -0.40436  -0.40342
 Alpha  occ. eigenvalues --   -0.39970  -0.39836  -0.39706  -0.39376  -0.39087
 Alpha  occ. eigenvalues --   -0.38979  -0.38493  -0.38176  -0.38141  -0.37919
 Alpha  occ. eigenvalues --   -0.37819  -0.37709  -0.37660  -0.37463  -0.37233
 Alpha  occ. eigenvalues --   -0.37022  -0.36875  -0.36814  -0.36534  -0.36507
 Alpha  occ. eigenvalues --   -0.36228  -0.36046  -0.35778  -0.35600  -0.35515
 Alpha  occ. eigenvalues --   -0.35344  -0.35134  -0.34990  -0.34856  -0.34808
 Alpha  occ. eigenvalues --   -0.34459  -0.34210  -0.34056  -0.33892  -0.33838
 Alpha  occ. eigenvalues --   -0.33771  -0.33618  -0.33524  -0.33248  -0.33128
 Alpha  occ. eigenvalues --   -0.32805  -0.32732  -0.32372  -0.32135  -0.32045
 Alpha  occ. eigenvalues --   -0.31987  -0.31918  -0.31705  -0.31610  -0.31338
 Alpha  occ. eigenvalues --   -0.31259  -0.31063  -0.30897  -0.30565  -0.30428
 Alpha  occ. eigenvalues --   -0.30246  -0.30187  -0.29880  -0.29792  -0.29617
 Alpha  occ. eigenvalues --   -0.29535  -0.29338  -0.29253  -0.29091  -0.28695
 Alpha  occ. eigenvalues --   -0.28478  -0.28240  -0.28099  -0.27991  -0.27952
 Alpha  occ. eigenvalues --   -0.27703  -0.27523  -0.26880  -0.26742  -0.26638
 Alpha  occ. eigenvalues --   -0.26160  -0.26059  -0.25950  -0.25587  -0.25398
 Alpha  occ. eigenvalues --   -0.24649  -0.24219  -0.24075  -0.23647  -0.23418
 Alpha  occ. eigenvalues --   -0.23279  -0.22102  -0.20972  -0.20800  -0.20688
 Alpha  occ. eigenvalues --   -0.20514  -0.19523  -0.19164  -0.18836  -0.17316
 Alpha  occ. eigenvalues --   -0.15866
 Alpha virt. eigenvalues --   -0.11530  -0.07299  -0.06184  -0.04739  -0.03636
 Alpha virt. eigenvalues --   -0.03220  -0.02151  -0.01979  -0.01492   0.00275
 Alpha virt. eigenvalues --    0.01530   0.01788   0.02206   0.02459   0.03183

 Mulliken charges:
               1
     1  Mg   0.721773
     2  C    0.022697
     3  C   -0.075141
     4  C   -0.051146
     5  C   -0.058830
     6  N   -0.212593
     7  C   -0.048255
     8  C    0.000072
     9  C   -0.010257
    10  C    0.007974
    11  C    0.131013
    12  C    0.115584
    13  C    0.178204
    14  C    0.078302
    15  O   -0.238055
    16  O   -0.295360
    17  N   -0.355935
    18  C    0.181143
    19  C   -0.176810
    20  C    0.038113
    21  C    0.122445
    22  C    0.205574
    23  C   -0.114405
    24  O   -0.178990
    25  C    0.164063
    26  N   -0.144173
    27  C    0.002513
    28  C   -0.024056
    29  C    0.107523
    30  C   -0.045250
    31  C    0.116235
    32  C    0.104738
    33  C    0.088827
    34  N   -0.243223
    35  C    0.063825
    36  C   -0.177339
    37  C    0.077919
    38  C    0.075553
    39  C    0.166391
    40  C   -0.029758
    41  O   -0.103344
    42  C    0.039550
    43  C    0.107536
    44  O   -0.227876
    45  O   -0.223853
    46  C    0.220112
    47  C    0.319784
    48  C   -0.123041
    49  C   -0.127382
    50  C    0.138882
    51  C    0.096474
    52  C    0.096890
    53  C    0.102430
    54  C   -0.116611
    55  C    0.162669
    56  C    0.106233
    57  C    0.059991
    58  C    0.106319
    59  C   -0.095114
    60  C    0.139779
    61  C    0.106740
    62  C    0.059052
    63  C    0.082048
    64  C   -0.087241
    65  C    0.127631
    66  C    0.103977
    67  H   -0.056842
    68  H   -0.070016
    69  H   -0.058251
    70  H   -0.026106
    71  H   -0.033735
    72  H   -0.013131
    73  H    0.004401
    74  H   -0.004326
    75  H   -0.018618
    76  H    0.031244
    77  H   -0.017716
    78  H   -0.019444
    79  H   -0.017965
    80  H    0.011504
    81  H    0.011187
    82  H    0.008654
    83  H    0.035690
    84  H   -0.012487
    85  H   -0.030110
    86  H   -0.042425
    87  H   -0.018890
    88  H   -0.011915
    89  H   -0.002909
    90  H   -0.003776
    91  H   -0.035822
    92  H   -0.002360
    93  H   -0.001883
    94  H   -0.016900
    95  H    0.019063
    96  H   -0.025724
    97  H    0.003411
    98  H   -0.011929
    99  H    0.008956
   100  H    0.003281
   101  H    0.021433
   102  H    0.018585
   103  H    0.018370
   104  H   -0.028821
   105  H   -0.007245
   106  H   -0.004559
   107  H   -0.013280
   108  H   -0.038389
   109  H   -0.010863
   110  H   -0.018721
   111  H   -0.021347
   112  H   -0.041047
   113  H   -0.029892
   114  H   -0.038368
   115  H   -0.031408
   116  H   -0.014935
   117  H   -0.028459
   118  H   -0.029534
   119  H   -0.047635
   120  H   -0.033621
   121  H   -0.037294
   122  H   -0.051532
   123  H   -0.039436
   124  H   -0.037757
   125  H   -0.016339
   126  H   -0.016831
   127  H   -0.018950
   128  H   -0.028807
   129  H   -0.033461
   130  H   -0.034831
   131  H   -0.019582
   132  H   -0.037179
   133  H   -0.047643
   134  H   -0.028414
   135  H   -0.016045
   136  H   -0.028087
   137  H   -0.016953
   138  H   -0.022750
   139  H   -0.016811
   140  H   -0.018211
 Sum of Mulliken charges =  -0.00000

 Dipole moment (field-independent basis, Debye):
    X=             -0.1293    Y=              2.8989    Z=              0.3854  Tot=              2.9273
 Quadrupole moment (field-independent basis, Debye-Ang):
   XX=           -386.5348   YY=           -428.6913   ZZ=           -386.3755
   XY=             42.9405   XZ=              0.5589   YZ=             18.1167

 Normal termination of Gaussian 16 at Sat Apr 30 21:54:38 2022.
