 Gaussian 16, Revision A.03,
 Gaussian 16:  ES64L-G16RevA.03 25-Dec-2016

 -----------------------------------
 #p cam-b3lyp/Def2SVP td=(nstates=5)
 -----------------------------------

 -------------------------------------------------------
 step_901_chromophore_20 TDDFT with cam-b3lyp functional
 -------------------------------------------------------
 Symbolic Z-matrix:
 Charge =  0 Multiplicity = 1

                         Standard orientation:
 ---------------------------------------------------------------------
 Center     Atomic      Atomic             Coordinates (Angstroms)
 Number     Number       Type             X           Y           Z
 ---------------------------------------------------------------------
      1         12           0        4.164913    1.465844   -0.685087
      2          6           0        4.108145   -2.050515   -1.135712
      3          6           0        1.891977    1.721857   -3.175432
      4          6           0        3.582952    4.635278    0.473540
      5          6           0        6.190677    0.945922    2.268167
      6          7           0        3.100216   -0.061661   -1.922059
      7          6           0        3.157523   -1.421642   -1.922749
      8          6           0        2.253304   -2.045392   -2.944749
      9          6           0        1.979014   -0.755767   -3.913617
     10          6           0        2.228205    0.341914   -2.916496
     11          6           0        2.924140   -0.634989   -5.176312
     12          6           0        1.012859   -2.566667   -2.244175
     13          6           0        0.076537   -3.419504   -3.071971
     14          6           0       -0.623673   -4.551308   -2.409360
     15          8           0       -0.256956   -5.757910   -2.346347
     16          8           0       -1.662111   -4.052558   -1.671986
     17          7           0        2.961549    2.909436   -1.257693
     18          6           0        2.140739    2.854277   -2.315974
     19          6           0        1.471480    4.143091   -2.556625
     20          6           0        1.819281    5.008131   -1.448327
     21          6           0        2.830202    4.214809   -0.663141
     22          6           0        0.648340    4.494127   -3.766815
     23          6           0        1.365176    6.421044   -1.299528
     24          8           0        0.468190    6.830929   -2.041936
     25          6           0        1.915640    7.264084   -0.238143
     26          7           0        4.981161    2.681371    1.101198
     27          6           0        4.488462    3.900333    1.280767
     28          6           0        5.020334    4.415168    2.661646
     29          6           0        5.853341    3.246608    3.217554
     30          6           0        5.737732    2.228948    2.117919
     31          6           0        5.780496    5.723022    2.494623
     32          6           0        5.480663    2.632167    4.637205
     33          6           0        6.442962    2.954554    5.740324
     34          7           0        5.042248   -0.167367    0.366159
     35          6           0        5.871292   -0.223008    1.457662
     36          6           0        6.288418   -1.624143    1.696121
     37          6           0        5.648011   -2.353848    0.682002
     38          6           0        4.859735   -1.449162   -0.074243
     39          6           0        7.287275   -2.250506    2.664088
     40          6           0        5.546734   -3.711033    0.125644
     41          8           0        6.079763   -4.765194    0.347852
     42          6           0        4.526901   -3.516245   -1.107010
     43          6           0        3.418674   -4.453598   -0.708347
     44          8           0        2.677787   -4.325960    0.290741
     45          8           0        3.357673   -5.471214   -1.567626
     46          6           0        2.711997   -6.664311   -1.066240
     47          6           0       -2.565803   -5.001264   -0.984546
     48          6           0       -3.696770   -4.266623   -0.257209
     49          6           0       -4.589826   -4.879883    0.574761
     50          6           0       -4.798872   -6.368442    0.701010
     51          6           0       -5.552896   -4.010378    1.338222
     52          6           0       -5.025684   -3.360773    2.690530
     53          6           0       -6.074844   -3.441201    3.780915
     54          6           0       -6.437052   -2.002053    4.296044
     55          6           0       -7.068875   -1.995148    5.617288
     56          6           0       -7.342075   -1.272006    3.240163
     57          6           0       -6.869375    0.177712    3.042192
     58          6           0       -6.480553    0.625228    1.623742
     59          6           0       -7.651582    0.914280    0.638377
     60          6           0       -7.588373    0.125815   -0.642584
     61          6           0       -7.786753    2.466998    0.352279
     62          6           0       -9.267626    2.932511    0.325722
     63          6           0       -9.472812    4.120216   -0.661200
     64          6           0      -10.420149    3.767631   -1.850256
     65          6           0      -10.261129    4.778512   -2.986514
     66          6           0      -11.840634    3.824218   -1.290333
     67          1           0        1.344075    1.840754   -4.112835
     68          1           0        3.249033    5.573670    0.921651
     69          1           0        6.907128    0.734653    3.064433
     70          1           0        2.725023   -2.827207   -3.540356
     71          1           0        0.959283   -0.770801   -4.298547
     72          1           0        3.641525   -1.454947   -5.145929
     73          1           0        3.510096    0.282697   -5.245198
     74          1           0        2.352826   -0.817163   -6.086495
     75          1           0        0.401438   -1.688480   -2.037933
     76          1           0        1.289050   -3.134127   -1.354780
     77          1           0        0.564154   -3.813317   -3.963789
     78          1           0       -0.767064   -2.813017   -3.401408
     79          1           0        0.957884    3.882378   -4.614404
     80          1           0        0.888772    5.535188   -3.981527
     81          1           0       -0.413178    4.359006   -3.560189
     82          1           0        2.988369    7.299415   -0.431014
     83          1           0        1.682090    6.888903    0.757754
     84          1           0        1.501015    8.258891   -0.401335
     85          1           0        4.226195    4.648005    3.371660
     86          1           0        6.874690    3.611337    3.114090
     87          1           0        5.113233    6.477148    2.075853
     88          1           0        6.530696    5.564543    1.720031
     89          1           0        6.161886    6.116291    3.437472
     90          1           0        5.270032    1.574486    4.480086
     91          1           0        4.561267    3.167580    4.872377
     92          1           0        7.258956    2.237408    5.647276
     93          1           0        5.880735    3.024377    6.671708
     94          1           0        6.868731    3.942667    5.568325
     95          1           0        6.844438   -3.039853    3.271210
     96          1           0        7.786557   -1.447496    3.207565
     97          1           0        8.117672   -2.722377    2.139692
     98          1           0        4.997970   -3.848012   -2.031969
     99          1           0        3.318082   -7.102594   -0.272929
    100          1           0        2.601045   -7.415865   -1.848133
    101          1           0        1.682139   -6.544492   -0.729144
    102          1           0       -1.906931   -5.378193   -0.202511
    103          1           0       -2.967432   -5.668269   -1.747844
    104          1           0       -3.735927   -3.184452   -0.386095
    105          1           0       -5.786587   -6.595940    0.301555
    106          1           0       -4.846517   -6.704023    1.736720
    107          1           0       -4.207235   -7.075813    0.121497
    108          1           0       -6.460493   -4.591468    1.497090
    109          1           0       -5.826960   -3.206960    0.655333
    110          1           0       -4.867773   -2.303738    2.472188
    111          1           0       -4.110765   -3.827192    3.053623
    112          1           0       -5.601619   -3.988620    4.596380
    113          1           0       -7.006008   -3.806223    3.348853
    114          1           0       -5.453999   -1.544119    4.401970
    115          1           0       -6.500759   -2.553061    6.360567
    116          1           0       -8.095358   -2.363002    5.619313
    117          1           0       -6.929199   -0.947239    5.883841
    118          1           0       -8.421686   -1.318510    3.383026
    119          1           0       -7.201198   -1.814727    2.305559
    120          1           0       -6.036245    0.338443    3.727882
    121          1           0       -7.656184    0.851761    3.380755
    122          1           0       -5.851443   -0.178972    1.243159
    123          1           0       -5.794234    1.468539    1.697859
    124          1           0       -8.524932    0.592491    1.206021
    125          1           0       -8.522075   -0.419189   -0.782760
    126          1           0       -6.727127   -0.530634   -0.516239
    127          1           0       -7.475541    0.763729   -1.518776
    128          1           0       -7.317312    2.674387   -0.609478
    129          1           0       -7.253140    3.042954    1.107117
    130          1           0       -9.495700    3.287727    1.330720
    131          1           0       -9.965181    2.114204    0.145980
    132          1           0       -8.564732    4.648336   -0.951456
    133          1           0       -9.900311    4.878342   -0.005655
    134          1           0      -10.261626    2.771295   -2.262240
    135          1           0       -9.415949    5.458453   -2.876022
    136          1           0      -11.155243    5.402441   -2.996085
    137          1           0      -10.208776    4.210019   -3.914393
    138          1           0      -12.297506    4.813498   -1.298159
    139          1           0      -11.774573    3.584460   -0.229133
    140          1           0      -12.504675    3.198027   -1.886596
 ---------------------------------------------------------------------

 SCF Done:  E(RCAM-B3LYP) =  -3007.19941414     A.U. after   17 cycles

 Excitation energies and oscillator strengths:

 Excited State   1:      Singlet-A      1.7207 eV  720.55 nm  f=0.3505  <S**2>=0.000
     245 -> 248        0.18421
     246 -> 247        0.68362
     245 <- 248        0.10735
 This state for optimization and/or second-order correction.
 Total Energy, E(TD-HF/TD-DFT) =  -3007.13618040
 Copying the excited state density for this state as the 1-particle RhoCI density.

 Excited State   2:      Singlet-A      2.2513 eV  550.73 nm  f=0.0936  <S**2>=0.000
     245 -> 247        0.62658
     246 -> 248       -0.31551

 Excited State   3:      Singlet-A      3.4823 eV  356.04 nm  f=0.6505  <S**2>=0.000
     242 -> 247        0.14380
     243 -> 247        0.15995
     245 -> 247        0.29386
     246 -> 248        0.60637
     245 <- 247       -0.10732

 Excited State   4:      Singlet-A      3.5059 eV  353.64 nm  f=0.0210  <S**2>=0.000
     242 -> 247       -0.30464
     243 -> 247        0.60557

 Excited State   5:      Singlet-A      3.6083 eV  343.61 nm  f=0.0598  <S**2>=0.000
     239 -> 247       -0.35025
     239 -> 248        0.16759
     239 -> 249       -0.25782
     239 -> 251       -0.16412
     240 -> 247       -0.10029
     242 -> 247        0.38609
     243 -> 247        0.21003

 The electronic state is 1-A.
 Alpha  occ. eigenvalues --  -46.89638 -19.24816 -19.24403 -19.19391 -19.19110
 Alpha  occ. eigenvalues --  -19.18926 -19.18379 -14.42381 -14.41797 -14.40889
 Alpha  occ. eigenvalues --  -14.39436 -10.39122 -10.38520 -10.35180 -10.35089
 Alpha  occ. eigenvalues --  -10.32435 -10.31967 -10.31627 -10.31554 -10.31168
 Alpha  occ. eigenvalues --  -10.30489 -10.29953 -10.29844 -10.29758 -10.29185
 Alpha  occ. eigenvalues --  -10.28998 -10.28623 -10.28436 -10.27811 -10.27803
 Alpha  occ. eigenvalues --  -10.27774 -10.27662 -10.27646 -10.27633 -10.27522
 Alpha  occ. eigenvalues --  -10.27019 -10.26934 -10.26923 -10.26772 -10.26756
 Alpha  occ. eigenvalues --  -10.26640 -10.26503 -10.26285 -10.26261 -10.25939
 Alpha  occ. eigenvalues --  -10.25905 -10.25867 -10.25785 -10.25554 -10.25442
 Alpha  occ. eigenvalues --  -10.25434 -10.25074 -10.25040 -10.25015 -10.24780
 Alpha  occ. eigenvalues --  -10.24661 -10.24651 -10.24523 -10.24495 -10.24425
 Alpha  occ. eigenvalues --  -10.24332 -10.24133 -10.24041 -10.24024 -10.23853
 Alpha  occ. eigenvalues --  -10.23796  -3.18127  -1.93012  -1.92566  -1.92449
 Alpha  occ. eigenvalues --   -1.16473  -1.14986  -1.10967  -1.09860  -1.05870
 Alpha  occ. eigenvalues --   -1.05481  -1.04695  -1.04038  -1.02703  -1.02189
 Alpha  occ. eigenvalues --   -0.91686  -0.90645  -0.90101  -0.89415  -0.89336
 Alpha  occ. eigenvalues --   -0.88858  -0.88478  -0.87656  -0.87327  -0.86789
 Alpha  occ. eigenvalues --   -0.85951  -0.85450  -0.84481  -0.83911  -0.83773
 Alpha  occ. eigenvalues --   -0.82949  -0.82484  -0.81553  -0.80775  -0.80502
 Alpha  occ. eigenvalues --   -0.80143  -0.78307  -0.77712  -0.77407  -0.76144
 Alpha  occ. eigenvalues --   -0.75627  -0.75209  -0.74897  -0.74819  -0.73728
 Alpha  occ. eigenvalues --   -0.72985  -0.72026  -0.71676  -0.70207  -0.68697
 Alpha  occ. eigenvalues --   -0.68389  -0.67803  -0.67640  -0.66370  -0.65681
 Alpha  occ. eigenvalues --   -0.65495  -0.65181  -0.64890  -0.64246  -0.63577
 Alpha  occ. eigenvalues --   -0.63218  -0.62557  -0.62324  -0.61815  -0.60146
 Alpha  occ. eigenvalues --   -0.59903  -0.59335  -0.59153  -0.58707  -0.57490
 Alpha  occ. eigenvalues --   -0.57197  -0.57107  -0.56240  -0.55750  -0.55504
 Alpha  occ. eigenvalues --   -0.55179  -0.54647  -0.54404  -0.54038  -0.53765
 Alpha  occ. eigenvalues --   -0.53604  -0.53447  -0.53409  -0.53336  -0.53075
 Alpha  occ. eigenvalues --   -0.52878  -0.52493  -0.52462  -0.52201  -0.51789
 Alpha  occ. eigenvalues --   -0.51529  -0.50919  -0.50738  -0.50486  -0.50393
 Alpha  occ. eigenvalues --   -0.50172  -0.50121  -0.49927  -0.49814  -0.49754
 Alpha  occ. eigenvalues --   -0.49502  -0.49286  -0.49248  -0.48909  -0.48814
 Alpha  occ. eigenvalues --   -0.48675  -0.48288  -0.48055  -0.47721  -0.47616
 Alpha  occ. eigenvalues --   -0.47550  -0.47243  -0.47083  -0.46896  -0.46691
 Alpha  occ. eigenvalues --   -0.46588  -0.45945  -0.45916  -0.45856  -0.45571
 Alpha  occ. eigenvalues --   -0.45494  -0.45428  -0.45264  -0.44904  -0.44890
 Alpha  occ. eigenvalues --   -0.44436  -0.44311  -0.44039  -0.43907  -0.43787
 Alpha  occ. eigenvalues --   -0.43526  -0.43456  -0.43396  -0.43149  -0.43015
 Alpha  occ. eigenvalues --   -0.42694  -0.42594  -0.42438  -0.42266  -0.41772
 Alpha  occ. eigenvalues --   -0.41662  -0.41329  -0.41118  -0.40970  -0.40853
 Alpha  occ. eigenvalues --   -0.40758  -0.40665  -0.40416  -0.40354  -0.40044
 Alpha  occ. eigenvalues --   -0.39644  -0.39420  -0.38954  -0.38922  -0.38902
 Alpha  occ. eigenvalues --   -0.38847  -0.38443  -0.38061  -0.37730  -0.37465
 Alpha  occ. eigenvalues --   -0.37063  -0.36863  -0.36595  -0.36240  -0.36081
 Alpha  occ. eigenvalues --   -0.36060  -0.35408  -0.34683  -0.34202  -0.33752
 Alpha  occ. eigenvalues --   -0.33397  -0.33104  -0.32825  -0.31608  -0.31132
 Alpha  occ. eigenvalues --   -0.30647  -0.30570  -0.29576  -0.29051  -0.24068
 Alpha  occ. eigenvalues --   -0.21176
 Alpha virt. eigenvalues --   -0.08577  -0.02197   0.00227   0.01501   0.02424
 Alpha virt. eigenvalues --    0.04256   0.05341   0.05605   0.06013   0.06647
 Alpha virt. eigenvalues --    0.08151   0.08382   0.08460   0.09332   0.09385

 Mulliken charges:
               1
     1  Mg   0.850929
     2  C   -0.003538
     3  C   -0.093094
     4  C   -0.073436
     5  C   -0.067640
     6  N   -0.277600
     7  C   -0.012209
     8  C   -0.054496
     9  C   -0.063766
    10  C    0.028328
    11  C    0.073205
    12  C    0.063916
    13  C    0.108445
    14  C    0.159964
    15  O   -0.279451
    16  O   -0.359740
    17  N   -0.446962
    18  C    0.193186
    19  C   -0.174906
    20  C   -0.032501
    21  C    0.158168
    22  C    0.147843
    23  C   -0.031965
    24  O   -0.218388
    25  C    0.070652
    26  N   -0.214955
    27  C    0.027765
    28  C   -0.076405
    29  C    0.041656
    30  C   -0.017430
    31  C    0.061085
    32  C    0.043651
    33  C    0.029843
    34  N   -0.329016
    35  C    0.068809
    36  C   -0.179222
    37  C   -0.001231
    38  C    0.111240
    39  C    0.118404
    40  C    0.065068
    41  O   -0.143875
    42  C   -0.031454
    43  C    0.192388
    44  O   -0.265222
    45  O   -0.285218
    46  C    0.178700
    47  C    0.288188
    48  C   -0.140368
    49  C   -0.150853
    50  C    0.074648
    51  C    0.041221
    52  C    0.043777
    53  C    0.046854
    54  C   -0.172247
    55  C    0.103783
    56  C    0.050057
    57  C    0.006907
    58  C    0.059316
    59  C   -0.153913
    60  C    0.084032
    61  C    0.058009
    62  C    0.007167
    63  C    0.021199
    64  C   -0.146235
    65  C    0.067108
    66  C    0.044837
    67  H   -0.020952
    68  H   -0.036457
    69  H   -0.023874
    70  H    0.009303
    71  H    0.001635
    72  H    0.012387
    73  H    0.029812
    74  H    0.020623
    75  H    0.012836
    76  H    0.060994
    77  H    0.014913
    78  H    0.014159
    79  H    0.008485
    80  H    0.040658
    81  H    0.040899
    82  H    0.037092
    83  H    0.062741
    84  H    0.026374
    85  H    0.003950
    86  H   -0.005676
    87  H    0.004023
    88  H    0.012578
    89  H    0.022557
    90  H    0.027955
    91  H   -0.007453
    92  H    0.018876
    93  H    0.022413
    94  H    0.004079
    95  H    0.043455
    96  H   -0.003161
    97  H    0.028600
    98  H    0.032404
    99  H    0.032345
   100  H    0.027718
   101  H    0.045263
   102  H    0.047150
   103  H    0.043851
   104  H    0.006004
   105  H    0.017317
   106  H    0.019980
   107  H    0.013126
   108  H   -0.008478
   109  H    0.014373
   110  H    0.006175
   111  H    0.009170
   112  H   -0.010127
   113  H   -0.002475
   114  H   -0.006164
   115  H   -0.005319
   116  H    0.008667
   117  H   -0.003871
   118  H    0.000564
   119  H   -0.021956
   120  H   -0.004317
   121  H   -0.009958
   122  H   -0.026978
   123  H   -0.009266
   124  H   -0.007027
   125  H    0.007688
   126  H    0.004713
   127  H    0.004708
   128  H   -0.001970
   129  H   -0.004853
   130  H   -0.005817
   131  H    0.006150
   132  H   -0.007883
   133  H   -0.016585
   134  H    0.001612
   135  H    0.008294
   136  H   -0.003592
   137  H    0.007369
   138  H    0.001782
   139  H    0.005919
   140  H    0.007452
 Sum of Mulliken charges =  -0.00000

 Dipole moment (field-independent basis, Debye):
    X=             -0.4610    Y=              3.7982    Z=             -0.0530  Tot=              3.8264
 Quadrupole moment (field-independent basis, Debye-Ang):
   XX=           -389.0271   YY=           -423.8349   ZZ=           -383.9256
   XY=             46.1064   XZ=             -0.0913   YZ=             18.7181

 Normal termination of Gaussian 16 at Sat Apr 30 20:53:34 2022.
