 Gaussian 16, Revision A.03,
 Gaussian 16:  ES64L-G16RevA.03 25-Dec-2016

 ---------------------------------
 #p PBE1PBE/Def2SVP td=(nstates=5)
 ---------------------------------

 -----------------------------------------------------
 step_901_chromophore_20 TDDFT with PBE1PBE functional
 -----------------------------------------------------
 Symbolic Z-matrix:
 Charge =  0 Multiplicity = 1

                         Standard orientation:
 ---------------------------------------------------------------------
 Center     Atomic      Atomic             Coordinates (Angstroms)
 Number     Number       Type             X           Y           Z
 ---------------------------------------------------------------------
      1         12           0        4.164913    1.465844   -0.685087
      2          6           0        4.108145   -2.050515   -1.135712
      3          6           0        1.891977    1.721857   -3.175432
      4          6           0        3.582952    4.635278    0.473540
      5          6           0        6.190677    0.945922    2.268167
      6          7           0        3.100216   -0.061661   -1.922059
      7          6           0        3.157523   -1.421642   -1.922749
      8          6           0        2.253304   -2.045392   -2.944749
      9          6           0        1.979014   -0.755767   -3.913617
     10          6           0        2.228205    0.341914   -2.916496
     11          6           0        2.924140   -0.634989   -5.176312
     12          6           0        1.012859   -2.566667   -2.244175
     13          6           0        0.076537   -3.419504   -3.071971
     14          6           0       -0.623673   -4.551308   -2.409360
     15          8           0       -0.256956   -5.757910   -2.346347
     16          8           0       -1.662111   -4.052558   -1.671986
     17          7           0        2.961549    2.909436   -1.257693
     18          6           0        2.140739    2.854277   -2.315974
     19          6           0        1.471480    4.143091   -2.556625
     20          6           0        1.819281    5.008131   -1.448327
     21          6           0        2.830202    4.214809   -0.663141
     22          6           0        0.648340    4.494127   -3.766815
     23          6           0        1.365176    6.421044   -1.299528
     24          8           0        0.468190    6.830929   -2.041936
     25          6           0        1.915640    7.264084   -0.238143
     26          7           0        4.981161    2.681371    1.101198
     27          6           0        4.488462    3.900333    1.280767
     28          6           0        5.020334    4.415168    2.661646
     29          6           0        5.853341    3.246608    3.217554
     30          6           0        5.737732    2.228948    2.117919
     31          6           0        5.780496    5.723022    2.494623
     32          6           0        5.480663    2.632167    4.637205
     33          6           0        6.442962    2.954554    5.740324
     34          7           0        5.042248   -0.167367    0.366159
     35          6           0        5.871292   -0.223008    1.457662
     36          6           0        6.288418   -1.624143    1.696121
     37          6           0        5.648011   -2.353848    0.682002
     38          6           0        4.859735   -1.449162   -0.074243
     39          6           0        7.287275   -2.250506    2.664088
     40          6           0        5.546734   -3.711033    0.125644
     41          8           0        6.079763   -4.765194    0.347852
     42          6           0        4.526901   -3.516245   -1.107010
     43          6           0        3.418674   -4.453598   -0.708347
     44          8           0        2.677787   -4.325960    0.290741
     45          8           0        3.357673   -5.471214   -1.567626
     46          6           0        2.711997   -6.664311   -1.066240
     47          6           0       -2.565803   -5.001264   -0.984546
     48          6           0       -3.696770   -4.266623   -0.257209
     49          6           0       -4.589826   -4.879883    0.574761
     50          6           0       -4.798872   -6.368442    0.701010
     51          6           0       -5.552896   -4.010378    1.338222
     52          6           0       -5.025684   -3.360773    2.690530
     53          6           0       -6.074844   -3.441201    3.780915
     54          6           0       -6.437052   -2.002053    4.296044
     55          6           0       -7.068875   -1.995148    5.617288
     56          6           0       -7.342075   -1.272006    3.240163
     57          6           0       -6.869375    0.177712    3.042192
     58          6           0       -6.480553    0.625228    1.623742
     59          6           0       -7.651582    0.914280    0.638377
     60          6           0       -7.588373    0.125815   -0.642584
     61          6           0       -7.786753    2.466998    0.352279
     62          6           0       -9.267626    2.932511    0.325722
     63          6           0       -9.472812    4.120216   -0.661200
     64          6           0      -10.420149    3.767631   -1.850256
     65          6           0      -10.261129    4.778512   -2.986514
     66          6           0      -11.840634    3.824218   -1.290333
     67          1           0        1.344075    1.840754   -4.112835
     68          1           0        3.249033    5.573670    0.921651
     69          1           0        6.907128    0.734653    3.064433
     70          1           0        2.725023   -2.827207   -3.540356
     71          1           0        0.959283   -0.770801   -4.298547
     72          1           0        3.641525   -1.454947   -5.145929
     73          1           0        3.510096    0.282697   -5.245198
     74          1           0        2.352826   -0.817163   -6.086495
     75          1           0        0.401438   -1.688480   -2.037933
     76          1           0        1.289050   -3.134127   -1.354780
     77          1           0        0.564154   -3.813317   -3.963789
     78          1           0       -0.767064   -2.813017   -3.401408
     79          1           0        0.957884    3.882378   -4.614404
     80          1           0        0.888772    5.535188   -3.981527
     81          1           0       -0.413178    4.359006   -3.560189
     82          1           0        2.988369    7.299415   -0.431014
     83          1           0        1.682090    6.888903    0.757754
     84          1           0        1.501015    8.258891   -0.401335
     85          1           0        4.226195    4.648005    3.371660
     86          1           0        6.874690    3.611337    3.114090
     87          1           0        5.113233    6.477148    2.075853
     88          1           0        6.530696    5.564543    1.720031
     89          1           0        6.161886    6.116291    3.437472
     90          1           0        5.270032    1.574486    4.480086
     91          1           0        4.561267    3.167580    4.872377
     92          1           0        7.258956    2.237408    5.647276
     93          1           0        5.880735    3.024377    6.671708
     94          1           0        6.868731    3.942667    5.568325
     95          1           0        6.844438   -3.039853    3.271210
     96          1           0        7.786557   -1.447496    3.207565
     97          1           0        8.117672   -2.722377    2.139692
     98          1           0        4.997970   -3.848012   -2.031969
     99          1           0        3.318082   -7.102594   -0.272929
    100          1           0        2.601045   -7.415865   -1.848133
    101          1           0        1.682139   -6.544492   -0.729144
    102          1           0       -1.906931   -5.378193   -0.202511
    103          1           0       -2.967432   -5.668269   -1.747844
    104          1           0       -3.735927   -3.184452   -0.386095
    105          1           0       -5.786587   -6.595940    0.301555
    106          1           0       -4.846517   -6.704023    1.736720
    107          1           0       -4.207235   -7.075813    0.121497
    108          1           0       -6.460493   -4.591468    1.497090
    109          1           0       -5.826960   -3.206960    0.655333
    110          1           0       -4.867773   -2.303738    2.472188
    111          1           0       -4.110765   -3.827192    3.053623
    112          1           0       -5.601619   -3.988620    4.596380
    113          1           0       -7.006008   -3.806223    3.348853
    114          1           0       -5.453999   -1.544119    4.401970
    115          1           0       -6.500759   -2.553061    6.360567
    116          1           0       -8.095358   -2.363002    5.619313
    117          1           0       -6.929199   -0.947239    5.883841
    118          1           0       -8.421686   -1.318510    3.383026
    119          1           0       -7.201198   -1.814727    2.305559
    120          1           0       -6.036245    0.338443    3.727882
    121          1           0       -7.656184    0.851761    3.380755
    122          1           0       -5.851443   -0.178972    1.243159
    123          1           0       -5.794234    1.468539    1.697859
    124          1           0       -8.524932    0.592491    1.206021
    125          1           0       -8.522075   -0.419189   -0.782760
    126          1           0       -6.727127   -0.530634   -0.516239
    127          1           0       -7.475541    0.763729   -1.518776
    128          1           0       -7.317312    2.674387   -0.609478
    129          1           0       -7.253140    3.042954    1.107117
    130          1           0       -9.495700    3.287727    1.330720
    131          1           0       -9.965181    2.114204    0.145980
    132          1           0       -8.564732    4.648336   -0.951456
    133          1           0       -9.900311    4.878342   -0.005655
    134          1           0      -10.261626    2.771295   -2.262240
    135          1           0       -9.415949    5.458453   -2.876022
    136          1           0      -11.155243    5.402441   -2.996085
    137          1           0      -10.208776    4.210019   -3.914393
    138          1           0      -12.297506    4.813498   -1.298159
    139          1           0      -11.774573    3.584460   -0.229133
    140          1           0      -12.504675    3.198027   -1.886596
 ---------------------------------------------------------------------

 SCF Done:  E(RPBE1PBE) =  -3005.38850769     A.U. after   16 cycles

 Excitation energies and oscillator strengths:

 Excited State   1:      Singlet-A      1.8588 eV  667.02 nm  f=0.3387  <S**2>=0.000
     245 -> 248       -0.18012
     246 -> 247        0.68936
     246 <- 247       -0.10095
 This state for optimization and/or second-order correction.
 Total Energy, E(TD-HF/TD-DFT) =  -3005.32019869
 Copying the excited state density for this state as the 1-particle RhoCI density.

 Excited State   2:      Singlet-A      2.2568 eV  549.37 nm  f=0.0954  <S**2>=0.000
     245 -> 247        0.63940
     246 -> 248        0.28984

 Excited State   3:      Singlet-A      3.1216 eV  397.19 nm  f=0.0001  <S**2>=0.000
     241 -> 247        0.13162
     242 -> 247        0.37459
     243 -> 247        0.56334

 Excited State   4:      Singlet-A      3.1481 eV  393.84 nm  f=0.0001  <S**2>=0.000
     240 -> 247       -0.19461
     241 -> 247       -0.36134
     242 -> 247        0.47908
     243 -> 247       -0.23015

 Excited State   5:      Singlet-A      3.1645 eV  391.80 nm  f=0.0003  <S**2>=0.000
     240 -> 247        0.25444
     241 -> 247        0.43360
     242 -> 247        0.30520
     243 -> 247       -0.33215

 The electronic state is 1-A.
 Alpha  occ. eigenvalues --  -46.93023 -19.25490 -19.25102 -19.19788 -19.19410
 Alpha  occ. eigenvalues --  -19.18996 -19.18709 -14.41892 -14.41230 -14.40391
 Alpha  occ. eigenvalues --  -14.39216 -10.36158 -10.35614 -10.32516 -10.32044
 Alpha  occ. eigenvalues --  -10.29878 -10.29357 -10.29184 -10.29091 -10.28546
 Alpha  occ. eigenvalues --  -10.28364 -10.28011 -10.27634 -10.27104 -10.26773
 Alpha  occ. eigenvalues --  -10.26577 -10.26553 -10.26272 -10.25666 -10.25548
 Alpha  occ. eigenvalues --  -10.25394 -10.25382 -10.25356 -10.25323 -10.25270
 Alpha  occ. eigenvalues --  -10.24806 -10.24659 -10.24496 -10.24377 -10.24266
 Alpha  occ. eigenvalues --  -10.24245 -10.23960 -10.23688 -10.23684 -10.23475
 Alpha  occ. eigenvalues --  -10.23327 -10.23306 -10.23156 -10.23068 -10.23011
 Alpha  occ. eigenvalues --  -10.22998 -10.22745 -10.22737 -10.22656 -10.22566
 Alpha  occ. eigenvalues --  -10.22340 -10.22178 -10.22072 -10.22017 -10.21991
 Alpha  occ. eigenvalues --  -10.21883 -10.21702 -10.21393 -10.21391 -10.21211
 Alpha  occ. eigenvalues --  -10.21144  -3.15092  -1.87916  -1.87448  -1.87338
 Alpha  occ. eigenvalues --   -1.11317  -1.09802  -1.05899  -1.04423  -1.00717
 Alpha  occ. eigenvalues --   -1.00327  -0.99294  -0.98623  -0.97319  -0.96889
 Alpha  occ. eigenvalues --   -0.86142  -0.84744  -0.84311  -0.83637  -0.83515
 Alpha  occ. eigenvalues --   -0.82961  -0.82720  -0.81753  -0.81633  -0.80867
 Alpha  occ. eigenvalues --   -0.80214  -0.79851  -0.78701  -0.78178  -0.77918
 Alpha  occ. eigenvalues --   -0.77150  -0.76662  -0.75817  -0.75048  -0.74740
 Alpha  occ. eigenvalues --   -0.74416  -0.72591  -0.72075  -0.71604  -0.70305
 Alpha  occ. eigenvalues --   -0.70004  -0.69274  -0.69267  -0.68939  -0.67880
 Alpha  occ. eigenvalues --   -0.67367  -0.66467  -0.66098  -0.64511  -0.63029
 Alpha  occ. eigenvalues --   -0.62758  -0.62161  -0.61996  -0.60586  -0.60109
 Alpha  occ. eigenvalues --   -0.59918  -0.59481  -0.59345  -0.58789  -0.57676
 Alpha  occ. eigenvalues --   -0.57353  -0.56915  -0.56605  -0.56447  -0.54602
 Alpha  occ. eigenvalues --   -0.54355  -0.53905  -0.53660  -0.53317  -0.52133
 Alpha  occ. eigenvalues --   -0.51619  -0.51515  -0.50721  -0.50239  -0.50060
 Alpha  occ. eigenvalues --   -0.49804  -0.49153  -0.48924  -0.48593  -0.48260
 Alpha  occ. eigenvalues --   -0.48117  -0.47925  -0.47853  -0.47664  -0.47556
 Alpha  occ. eigenvalues --   -0.47446  -0.46979  -0.46948  -0.46764  -0.46341
 Alpha  occ. eigenvalues --   -0.46049  -0.45624  -0.45335  -0.45026  -0.44839
 Alpha  occ. eigenvalues --   -0.44732  -0.44695  -0.44501  -0.44366  -0.44335
 Alpha  occ. eigenvalues --   -0.44072  -0.43846  -0.43819  -0.43525  -0.43473
 Alpha  occ. eigenvalues --   -0.43301  -0.42873  -0.42714  -0.42329  -0.42234
 Alpha  occ. eigenvalues --   -0.42155  -0.41886  -0.41702  -0.41655  -0.41282
 Alpha  occ. eigenvalues --   -0.41172  -0.40765  -0.40535  -0.40518  -0.40215
 Alpha  occ. eigenvalues --   -0.40167  -0.40092  -0.40039  -0.39705  -0.39671
 Alpha  occ. eigenvalues --   -0.39202  -0.39053  -0.38863  -0.38586  -0.38571
 Alpha  occ. eigenvalues --   -0.38255  -0.38178  -0.38109  -0.37894  -0.37802
 Alpha  occ. eigenvalues --   -0.37485  -0.37303  -0.37241  -0.36973  -0.36671
 Alpha  occ. eigenvalues --   -0.36576  -0.36210  -0.35948  -0.35741  -0.35636
 Alpha  occ. eigenvalues --   -0.35558  -0.35495  -0.35263  -0.35107  -0.34986
 Alpha  occ. eigenvalues --   -0.34478  -0.34143  -0.33928  -0.33778  -0.33662
 Alpha  occ. eigenvalues --   -0.33622  -0.33215  -0.33056  -0.32524  -0.32240
 Alpha  occ. eigenvalues --   -0.32112  -0.31692  -0.31671  -0.31064  -0.31048
 Alpha  occ. eigenvalues --   -0.30840  -0.30411  -0.29615  -0.29421  -0.28739
 Alpha  occ. eigenvalues --   -0.28703  -0.27963  -0.27856  -0.26798  -0.26229
 Alpha  occ. eigenvalues --   -0.25866  -0.25771  -0.25385  -0.24343  -0.20998
 Alpha  occ. eigenvalues --   -0.18794
 Alpha virt. eigenvalues --   -0.11085  -0.05669  -0.03937  -0.02173  -0.01179
 Alpha virt. eigenvalues --   -0.00293   0.00890   0.01045   0.01448   0.03245
 Alpha virt. eigenvalues --    0.04102   0.04995   0.05029   0.05257   0.06095

 Mulliken charges:
               1
     1  Mg   0.992947
     2  C   -0.015200
     3  C   -0.078766
     4  C   -0.070081
     5  C   -0.070806
     6  N   -0.372842
     7  C    0.058088
     8  C   -0.130826
     9  C   -0.135408
    10  C    0.059720
    11  C    0.018422
    12  C    0.013138
    13  C    0.035747
    14  C    0.224016
    15  O   -0.312363
    16  O   -0.389969
    17  N   -0.564828
    18  C    0.210350
    19  C   -0.198189
    20  C   -0.074329
    21  C    0.183176
    22  C    0.084401
    23  C    0.015708
    24  O   -0.254237
    25  C   -0.008073
    26  N   -0.324579
    27  C    0.068519
    28  C   -0.154285
    29  C   -0.032065
    30  C    0.034118
    31  C   -0.000485
    32  C   -0.024409
    33  C   -0.044765
    34  N   -0.452817
    35  C    0.099691
    36  C   -0.191360
    37  C   -0.046826
    38  C    0.167350
    39  C    0.064293
    40  C    0.150587
    41  O   -0.189577
    42  C   -0.135929
    43  C    0.283119
    44  O   -0.298425
    45  O   -0.319774
    46  C    0.122606
    47  C    0.251551
    48  C   -0.150166
    49  C   -0.192771
    50  C    0.012467
    51  C   -0.026090
    52  C   -0.019396
    53  C   -0.011386
    54  C   -0.264343
    55  C    0.043796
    56  C   -0.002341
    57  C   -0.058136
    58  C    0.003332
    59  C   -0.239187
    60  C    0.024730
    61  C    0.004886
    62  C   -0.052990
    63  C   -0.036525
    64  C   -0.241739
    65  C    0.010035
    66  C   -0.015380
    67  H    0.010257
    68  H   -0.003029
    69  H    0.010050
    70  H    0.044674
    71  H    0.037762
    72  H    0.039546
    73  H    0.056755
    74  H    0.047614
    75  H    0.047368
    76  H    0.099091
    77  H    0.046529
    78  H    0.046729
    79  H    0.034793
    80  H    0.067405
    81  H    0.068002
    82  H    0.065004
    83  H    0.087501
    84  H    0.054148
    85  H    0.040750
    86  H    0.034176
    87  H    0.033714
    88  H    0.040887
    89  H    0.050490
    90  H    0.060847
    91  H    0.027528
    92  H    0.046713
    93  H    0.050452
    94  H    0.033249
    95  H    0.070847
    96  H    0.025920
    97  H    0.057052
    98  H    0.068695
    99  H    0.054910
   100  H    0.049735
   101  H    0.067999
   102  H    0.073698
   103  H    0.069021
   104  H    0.035011
   105  H    0.045376
   106  H    0.047838
   107  H    0.039058
   108  H    0.022821
   109  H    0.047664
   110  H    0.042317
   111  H    0.041534
   112  H    0.022936
   113  H    0.031220
   114  H    0.031496
   115  H    0.023125
   116  H    0.035874
   117  H    0.026394
   118  H    0.031097
   119  H    0.016777
   120  H    0.028041
   121  H    0.024283
   122  H    0.007555
   123  H    0.023202
   124  H    0.032226
   125  H    0.034677
   126  H    0.032449
   127  H    0.031531
   128  H    0.030633
   129  H    0.027483
   130  H    0.027479
   131  H    0.036781
   132  H    0.022785
   133  H    0.017156
   134  H    0.038364
   135  H    0.034894
   136  H    0.023657
   137  H    0.034932
   138  H    0.029120
   139  H    0.034618
   140  H    0.035586
 Sum of Mulliken charges =  -0.00000

 Dipole moment (field-independent basis, Debye):
    X=             -0.1758    Y=              3.4436    Z=              0.2022  Tot=              3.4540
 Quadrupole moment (field-independent basis, Debye-Ang):
   XX=           -383.4107   YY=           -421.4969   ZZ=           -379.9319
   XY=             45.1484   XZ=              1.3766   YZ=             19.5863

 Normal termination of Gaussian 16 at Sat Apr 30 21:13:04 2022.
