 Gaussian 16, Revision A.03,
 Gaussian 16:  ES64L-G16RevA.03 25-Dec-2016

 --------------------------------
 #p wB97XD/Def2SVP td=(nstates=5)
 --------------------------------

 ----------------------------------------------------
 step_901_chromophore_20 TDDFT with wB97XD functional
 ----------------------------------------------------
 Symbolic Z-matrix:
 Charge =  0 Multiplicity = 1

                         Standard orientation:
 ---------------------------------------------------------------------
 Center     Atomic      Atomic             Coordinates (Angstroms)
 Number     Number       Type             X           Y           Z
 ---------------------------------------------------------------------
      1         12           0        4.164913    1.465844   -0.685087
      2          6           0        4.108145   -2.050515   -1.135712
      3          6           0        1.891977    1.721857   -3.175432
      4          6           0        3.582952    4.635278    0.473540
      5          6           0        6.190677    0.945922    2.268167
      6          7           0        3.100216   -0.061661   -1.922059
      7          6           0        3.157523   -1.421642   -1.922749
      8          6           0        2.253304   -2.045392   -2.944749
      9          6           0        1.979014   -0.755767   -3.913617
     10          6           0        2.228205    0.341914   -2.916496
     11          6           0        2.924140   -0.634989   -5.176312
     12          6           0        1.012859   -2.566667   -2.244175
     13          6           0        0.076537   -3.419504   -3.071971
     14          6           0       -0.623673   -4.551308   -2.409360
     15          8           0       -0.256956   -5.757910   -2.346347
     16          8           0       -1.662111   -4.052558   -1.671986
     17          7           0        2.961549    2.909436   -1.257693
     18          6           0        2.140739    2.854277   -2.315974
     19          6           0        1.471480    4.143091   -2.556625
     20          6           0        1.819281    5.008131   -1.448327
     21          6           0        2.830202    4.214809   -0.663141
     22          6           0        0.648340    4.494127   -3.766815
     23          6           0        1.365176    6.421044   -1.299528
     24          8           0        0.468190    6.830929   -2.041936
     25          6           0        1.915640    7.264084   -0.238143
     26          7           0        4.981161    2.681371    1.101198
     27          6           0        4.488462    3.900333    1.280767
     28          6           0        5.020334    4.415168    2.661646
     29          6           0        5.853341    3.246608    3.217554
     30          6           0        5.737732    2.228948    2.117919
     31          6           0        5.780496    5.723022    2.494623
     32          6           0        5.480663    2.632167    4.637205
     33          6           0        6.442962    2.954554    5.740324
     34          7           0        5.042248   -0.167367    0.366159
     35          6           0        5.871292   -0.223008    1.457662
     36          6           0        6.288418   -1.624143    1.696121
     37          6           0        5.648011   -2.353848    0.682002
     38          6           0        4.859735   -1.449162   -0.074243
     39          6           0        7.287275   -2.250506    2.664088
     40          6           0        5.546734   -3.711033    0.125644
     41          8           0        6.079763   -4.765194    0.347852
     42          6           0        4.526901   -3.516245   -1.107010
     43          6           0        3.418674   -4.453598   -0.708347
     44          8           0        2.677787   -4.325960    0.290741
     45          8           0        3.357673   -5.471214   -1.567626
     46          6           0        2.711997   -6.664311   -1.066240
     47          6           0       -2.565803   -5.001264   -0.984546
     48          6           0       -3.696770   -4.266623   -0.257209
     49          6           0       -4.589826   -4.879883    0.574761
     50          6           0       -4.798872   -6.368442    0.701010
     51          6           0       -5.552896   -4.010378    1.338222
     52          6           0       -5.025684   -3.360773    2.690530
     53          6           0       -6.074844   -3.441201    3.780915
     54          6           0       -6.437052   -2.002053    4.296044
     55          6           0       -7.068875   -1.995148    5.617288
     56          6           0       -7.342075   -1.272006    3.240163
     57          6           0       -6.869375    0.177712    3.042192
     58          6           0       -6.480553    0.625228    1.623742
     59          6           0       -7.651582    0.914280    0.638377
     60          6           0       -7.588373    0.125815   -0.642584
     61          6           0       -7.786753    2.466998    0.352279
     62          6           0       -9.267626    2.932511    0.325722
     63          6           0       -9.472812    4.120216   -0.661200
     64          6           0      -10.420149    3.767631   -1.850256
     65          6           0      -10.261129    4.778512   -2.986514
     66          6           0      -11.840634    3.824218   -1.290333
     67          1           0        1.344075    1.840754   -4.112835
     68          1           0        3.249033    5.573670    0.921651
     69          1           0        6.907128    0.734653    3.064433
     70          1           0        2.725023   -2.827207   -3.540356
     71          1           0        0.959283   -0.770801   -4.298547
     72          1           0        3.641525   -1.454947   -5.145929
     73          1           0        3.510096    0.282697   -5.245198
     74          1           0        2.352826   -0.817163   -6.086495
     75          1           0        0.401438   -1.688480   -2.037933
     76          1           0        1.289050   -3.134127   -1.354780
     77          1           0        0.564154   -3.813317   -3.963789
     78          1           0       -0.767064   -2.813017   -3.401408
     79          1           0        0.957884    3.882378   -4.614404
     80          1           0        0.888772    5.535188   -3.981527
     81          1           0       -0.413178    4.359006   -3.560189
     82          1           0        2.988369    7.299415   -0.431014
     83          1           0        1.682090    6.888903    0.757754
     84          1           0        1.501015    8.258891   -0.401335
     85          1           0        4.226195    4.648005    3.371660
     86          1           0        6.874690    3.611337    3.114090
     87          1           0        5.113233    6.477148    2.075853
     88          1           0        6.530696    5.564543    1.720031
     89          1           0        6.161886    6.116291    3.437472
     90          1           0        5.270032    1.574486    4.480086
     91          1           0        4.561267    3.167580    4.872377
     92          1           0        7.258956    2.237408    5.647276
     93          1           0        5.880735    3.024377    6.671708
     94          1           0        6.868731    3.942667    5.568325
     95          1           0        6.844438   -3.039853    3.271210
     96          1           0        7.786557   -1.447496    3.207565
     97          1           0        8.117672   -2.722377    2.139692
     98          1           0        4.997970   -3.848012   -2.031969
     99          1           0        3.318082   -7.102594   -0.272929
    100          1           0        2.601045   -7.415865   -1.848133
    101          1           0        1.682139   -6.544492   -0.729144
    102          1           0       -1.906931   -5.378193   -0.202511
    103          1           0       -2.967432   -5.668269   -1.747844
    104          1           0       -3.735927   -3.184452   -0.386095
    105          1           0       -5.786587   -6.595940    0.301555
    106          1           0       -4.846517   -6.704023    1.736720
    107          1           0       -4.207235   -7.075813    0.121497
    108          1           0       -6.460493   -4.591468    1.497090
    109          1           0       -5.826960   -3.206960    0.655333
    110          1           0       -4.867773   -2.303738    2.472188
    111          1           0       -4.110765   -3.827192    3.053623
    112          1           0       -5.601619   -3.988620    4.596380
    113          1           0       -7.006008   -3.806223    3.348853
    114          1           0       -5.453999   -1.544119    4.401970
    115          1           0       -6.500759   -2.553061    6.360567
    116          1           0       -8.095358   -2.363002    5.619313
    117          1           0       -6.929199   -0.947239    5.883841
    118          1           0       -8.421686   -1.318510    3.383026
    119          1           0       -7.201198   -1.814727    2.305559
    120          1           0       -6.036245    0.338443    3.727882
    121          1           0       -7.656184    0.851761    3.380755
    122          1           0       -5.851443   -0.178972    1.243159
    123          1           0       -5.794234    1.468539    1.697859
    124          1           0       -8.524932    0.592491    1.206021
    125          1           0       -8.522075   -0.419189   -0.782760
    126          1           0       -6.727127   -0.530634   -0.516239
    127          1           0       -7.475541    0.763729   -1.518776
    128          1           0       -7.317312    2.674387   -0.609478
    129          1           0       -7.253140    3.042954    1.107117
    130          1           0       -9.495700    3.287727    1.330720
    131          1           0       -9.965181    2.114204    0.145980
    132          1           0       -8.564732    4.648336   -0.951456
    133          1           0       -9.900311    4.878342   -0.005655
    134          1           0      -10.261626    2.771295   -2.262240
    135          1           0       -9.415949    5.458453   -2.876022
    136          1           0      -11.155243    5.402441   -2.996085
    137          1           0      -10.208776    4.210019   -3.914393
    138          1           0      -12.297506    4.813498   -1.298159
    139          1           0      -11.774573    3.584460   -0.229133
    140          1           0      -12.504675    3.198027   -1.886596
 ---------------------------------------------------------------------

 SCF Done:  E(RwB97XD) =  -3007.89799543     A.U. after   19 cycles

 Excitation energies and oscillator strengths:

 Excited State   1:      Singlet-A      1.6727 eV  741.21 nm  f=0.3498  <S**2>=0.000
     245 -> 248        0.18844
     246 -> 247        0.68178
     245 <- 248        0.11608
 This state for optimization and/or second-order correction.
 Total Energy, E(TD-HF/TD-DFT) =  -3007.83652419
 Copying the excited state density for this state as the 1-particle RhoCI density.

 Excited State   2:      Singlet-A      2.2003 eV  563.48 nm  f=0.0903  <S**2>=0.000
     245 -> 247        0.62442
     246 -> 248       -0.31788

 Excited State   3:      Singlet-A      3.5030 eV  353.93 nm  f=0.6767  <S**2>=0.000
     241 -> 247        0.20222
     245 -> 247        0.29386
     246 -> 248        0.60235
     245 <- 247       -0.11312

 Excited State   4:      Singlet-A      3.5393 eV  350.31 nm  f=0.0002  <S**2>=0.000
     240 -> 247       -0.10165
     241 -> 247       -0.36909
     243 -> 247        0.56137

 Excited State   5:      Singlet-A      3.6161 eV  342.87 nm  f=0.0379  <S**2>=0.000
     239 -> 247        0.34927
     239 -> 248       -0.16991
     239 -> 249        0.28289
     239 -> 250       -0.12298
     239 -> 251        0.11097
     240 -> 247        0.21212
     240 -> 249        0.14070
     241 -> 247       -0.24596
     243 -> 247       -0.24033

 The electronic state is 1-A.
 Alpha  occ. eigenvalues --  -46.95971 -19.29992 -19.29628 -19.24377 -19.24046
 Alpha  occ. eigenvalues --  -19.23997 -19.23318 -14.46988 -14.46367 -14.45540
 Alpha  occ. eigenvalues --  -14.43991 -10.42919 -10.42350 -10.39155 -10.39074
 Alpha  occ. eigenvalues --  -10.36617 -10.35840 -10.35723 -10.35620 -10.35288
 Alpha  occ. eigenvalues --  -10.34461 -10.33914 -10.33696 -10.33560 -10.33424
 Alpha  occ. eigenvalues --  -10.33075 -10.32569 -10.32496 -10.31981 -10.31910
 Alpha  occ. eigenvalues --  -10.31886 -10.31763 -10.31701 -10.31659 -10.31536
 Alpha  occ. eigenvalues --  -10.31010 -10.30945 -10.30820 -10.30779 -10.30642
 Alpha  occ. eigenvalues --  -10.30595 -10.30400 -10.30198 -10.30140 -10.29882
 Alpha  occ. eigenvalues --  -10.29751 -10.29716 -10.29688 -10.29386 -10.29361
 Alpha  occ. eigenvalues --  -10.29345 -10.29033 -10.29002 -10.28928 -10.28708
 Alpha  occ. eigenvalues --  -10.28649 -10.28566 -10.28452 -10.28399 -10.28351
 Alpha  occ. eigenvalues --  -10.28252 -10.28047 -10.27837 -10.27830 -10.27649
 Alpha  occ. eigenvalues --  -10.27596  -3.21923  -1.95493  -1.95027  -1.94907
 Alpha  occ. eigenvalues --   -1.18630  -1.17157  -1.13158  -1.12109  -1.08020
 Alpha  occ. eigenvalues --   -1.07654  -1.06684  -1.06035  -1.04776  -1.04194
 Alpha  occ. eigenvalues --   -0.93619  -0.92410  -0.91930  -0.91191  -0.91187
 Alpha  occ. eigenvalues --   -0.90632  -0.90407  -0.89418  -0.89257  -0.88820
 Alpha  occ. eigenvalues --   -0.87864  -0.87337  -0.86366  -0.85759  -0.85629
 Alpha  occ. eigenvalues --   -0.84889  -0.84325  -0.83442  -0.82654  -0.82388
 Alpha  occ. eigenvalues --   -0.82039  -0.80198  -0.79658  -0.79354  -0.77971
 Alpha  occ. eigenvalues --   -0.77547  -0.76988  -0.76848  -0.76623  -0.75553
 Alpha  occ. eigenvalues --   -0.74926  -0.74004  -0.73647  -0.72143  -0.70587
 Alpha  occ. eigenvalues --   -0.70387  -0.69656  -0.69649  -0.68227  -0.67613
 Alpha  occ. eigenvalues --   -0.67417  -0.67014  -0.66890  -0.66244  -0.65370
 Alpha  occ. eigenvalues --   -0.65024  -0.64432  -0.64214  -0.63780  -0.62069
 Alpha  occ. eigenvalues --   -0.61913  -0.61296  -0.61132  -0.60687  -0.59478
 Alpha  occ. eigenvalues --   -0.59100  -0.58984  -0.58250  -0.57621  -0.57423
 Alpha  occ. eigenvalues --   -0.57125  -0.56560  -0.56303  -0.55971  -0.55645
 Alpha  occ. eigenvalues --   -0.55486  -0.55387  -0.55309  -0.55203  -0.54929
 Alpha  occ. eigenvalues --   -0.54839  -0.54453  -0.54340  -0.54111  -0.53694
 Alpha  occ. eigenvalues --   -0.53405  -0.52827  -0.52641  -0.52420  -0.52335
 Alpha  occ. eigenvalues --   -0.52084  -0.52018  -0.51822  -0.51749  -0.51652
 Alpha  occ. eigenvalues --   -0.51380  -0.51218  -0.51189  -0.50780  -0.50721
 Alpha  occ. eigenvalues --   -0.50580  -0.50161  -0.49961  -0.49621  -0.49522
 Alpha  occ. eigenvalues --   -0.49464  -0.49183  -0.49038  -0.48809  -0.48652
 Alpha  occ. eigenvalues --   -0.48432  -0.47825  -0.47779  -0.47775  -0.47447
 Alpha  occ. eigenvalues --   -0.47408  -0.47275  -0.47157  -0.46868  -0.46809
 Alpha  occ. eigenvalues --   -0.46327  -0.46198  -0.45970  -0.45844  -0.45713
 Alpha  occ. eigenvalues --   -0.45465  -0.45315  -0.45270  -0.44993  -0.44896
 Alpha  occ. eigenvalues --   -0.44568  -0.44453  -0.44424  -0.44233  -0.43717
 Alpha  occ. eigenvalues --   -0.43555  -0.43236  -0.42999  -0.42834  -0.42715
 Alpha  occ. eigenvalues --   -0.42649  -0.42547  -0.42277  -0.42237  -0.41941
 Alpha  occ. eigenvalues --   -0.41527  -0.41239  -0.40826  -0.40756  -0.40756
 Alpha  occ. eigenvalues --   -0.40730  -0.40265  -0.39990  -0.39560  -0.39286
 Alpha  occ. eigenvalues --   -0.38984  -0.38771  -0.38698  -0.38086  -0.38064
 Alpha  occ. eigenvalues --   -0.37877  -0.37393  -0.36529  -0.36174  -0.35574
 Alpha  occ. eigenvalues --   -0.35463  -0.34976  -0.34914  -0.33604  -0.33321
 Alpha  occ. eigenvalues --   -0.32810  -0.32604  -0.31703  -0.31069  -0.25991
 Alpha  occ. eigenvalues --   -0.22985
 Alpha virt. eigenvalues --   -0.06912  -0.00299   0.02311   0.04337   0.04859
 Alpha virt. eigenvalues --    0.06520   0.07652   0.07830   0.08263   0.09655
 Alpha virt. eigenvalues --    0.10531   0.11624   0.11882   0.11921   0.12759

 Mulliken charges:
               1
     1  Mg   0.983970
     2  C   -0.016050
     3  C   -0.100843
     4  C   -0.083911
     5  C   -0.080053
     6  N   -0.343008
     7  C    0.024194
     8  C   -0.103550
     9  C   -0.112826
    10  C    0.050018
    11  C    0.026000
    12  C    0.026929
    13  C    0.050695
    14  C    0.213023
    15  O   -0.308772
    16  O   -0.389098
    17  N   -0.534439
    18  C    0.208577
    19  C   -0.188754
    20  C   -0.072182
    21  C    0.182956
    22  C    0.098489
    23  C    0.013853
    24  O   -0.248428
    25  C    0.005339
    26  N   -0.285057
    27  C    0.055566
    28  C   -0.127720
    29  C   -0.010567
    30  C    0.014151
    31  C    0.012081
    32  C   -0.004696
    33  C   -0.027152
    34  N   -0.414863
    35  C    0.085713
    36  C   -0.193523
    37  C   -0.044381
    38  C    0.146290
    39  C    0.077533
    40  C    0.137178
    41  O   -0.182282
    42  C   -0.097694
    43  C    0.255628
    44  O   -0.292058
    45  O   -0.316952
    46  C    0.138121
    47  C    0.261305
    48  C   -0.159611
    49  C   -0.180556
    50  C    0.025080
    51  C   -0.001914
    52  C   -0.002247
    53  C    0.006991
    54  C   -0.227390
    55  C    0.054321
    56  C    0.012441
    57  C   -0.039840
    58  C    0.025158
    59  C   -0.210834
    60  C    0.038147
    61  C    0.021105
    62  C   -0.040437
    63  C   -0.017583
    64  C   -0.211702
    65  C    0.020053
    66  C   -0.003661
    67  H    0.004517
    68  H   -0.016604
    69  H    0.002007
    70  H    0.034790
    71  H    0.029044
    72  H    0.033933
    73  H    0.050984
    74  H    0.043269
    75  H    0.038603
    76  H    0.085774
    77  H    0.041001
    78  H    0.040158
    79  H    0.030341
    80  H    0.063392
    81  H    0.066045
    82  H    0.058052
    83  H    0.084078
    84  H    0.053783
    85  H    0.030466
    86  H    0.021106
    87  H    0.025990
    88  H    0.034113
    89  H    0.045991
    90  H    0.052583
    91  H    0.017357
    92  H    0.040398
    93  H    0.045558
    94  H    0.024887
    95  H    0.065777
    96  H    0.018244
    97  H    0.050928
    98  H    0.063649
    99  H    0.051456
   100  H    0.046750
   101  H    0.062459
   102  H    0.069110
   103  H    0.064791
   104  H    0.033114
   105  H    0.038835
   106  H    0.042244
   107  H    0.035274
   108  H    0.013218
   109  H    0.037434
   110  H    0.027080
   111  H    0.035116
   112  H    0.015999
   113  H    0.018587
   114  H    0.017688
   115  H    0.017567
   116  H    0.030210
   117  H    0.018577
   118  H    0.025395
   119  H   -0.004092
   120  H    0.018844
   121  H    0.014447
   122  H   -0.008387
   123  H    0.015624
   124  H    0.016645
   125  H    0.029764
   126  H    0.024849
   127  H    0.025190
   128  H    0.019118
   129  H    0.019267
   130  H    0.020015
   131  H    0.026479
   132  H    0.014175
   133  H    0.007389
   134  H    0.027919
   135  H    0.029359
   136  H    0.016695
   137  H    0.029928
   138  H    0.022181
   139  H    0.026218
   140  H    0.030986
 Sum of Mulliken charges =  -0.00000

 Dipole moment (field-independent basis, Debye):
    X=             -0.5041    Y=              3.9882    Z=             -0.1222  Tot=              4.0218
 Quadrupole moment (field-independent basis, Debye-Ang):
   XX=           -385.7289   YY=           -419.1496   ZZ=           -379.3719
   XY=             46.5664   XZ=              0.1128   YZ=             18.7301

 Normal termination of Gaussian 16 at Sat Apr 30 21:41:44 2022.
