 Gaussian 16, Revision A.03,
 Gaussian 16:  ES64L-G16RevA.03 25-Dec-2016

 --------------------
 #p ZINDO=(nstates=5)
 --------------------

 -----------------------------
 step_901_chromophore_20 ZINDO
 -----------------------------
 Symbolic Z-matrix:
 Charge =  0 Multiplicity = 1

                         Standard orientation:
 ---------------------------------------------------------------------
 Center     Atomic      Atomic             Coordinates (Angstroms)
 Number     Number       Type             X           Y           Z
 ---------------------------------------------------------------------
      1         12           0        4.164913    1.465844   -0.685087
      2          6           0        4.108145   -2.050515   -1.135712
      3          6           0        1.891977    1.721857   -3.175432
      4          6           0        3.582952    4.635278    0.473540
      5          6           0        6.190677    0.945922    2.268167
      6          7           0        3.100216   -0.061661   -1.922059
      7          6           0        3.157523   -1.421642   -1.922749
      8          6           0        2.253304   -2.045392   -2.944749
      9          6           0        1.979014   -0.755767   -3.913617
     10          6           0        2.228205    0.341914   -2.916496
     11          6           0        2.924140   -0.634989   -5.176312
     12          6           0        1.012859   -2.566667   -2.244175
     13          6           0        0.076537   -3.419504   -3.071971
     14          6           0       -0.623673   -4.551308   -2.409360
     15          8           0       -0.256956   -5.757910   -2.346347
     16          8           0       -1.662111   -4.052558   -1.671986
     17          7           0        2.961549    2.909436   -1.257693
     18          6           0        2.140739    2.854277   -2.315974
     19          6           0        1.471480    4.143091   -2.556625
     20          6           0        1.819281    5.008131   -1.448327
     21          6           0        2.830202    4.214809   -0.663141
     22          6           0        0.648340    4.494127   -3.766815
     23          6           0        1.365176    6.421044   -1.299528
     24          8           0        0.468190    6.830929   -2.041936
     25          6           0        1.915640    7.264084   -0.238143
     26          7           0        4.981161    2.681371    1.101198
     27          6           0        4.488462    3.900333    1.280767
     28          6           0        5.020334    4.415168    2.661646
     29          6           0        5.853341    3.246608    3.217554
     30          6           0        5.737732    2.228948    2.117919
     31          6           0        5.780496    5.723022    2.494623
     32          6           0        5.480663    2.632167    4.637205
     33          6           0        6.442962    2.954554    5.740324
     34          7           0        5.042248   -0.167367    0.366159
     35          6           0        5.871292   -0.223008    1.457662
     36          6           0        6.288418   -1.624143    1.696121
     37          6           0        5.648011   -2.353848    0.682002
     38          6           0        4.859735   -1.449162   -0.074243
     39          6           0        7.287275   -2.250506    2.664088
     40          6           0        5.546734   -3.711033    0.125644
     41          8           0        6.079763   -4.765194    0.347852
     42          6           0        4.526901   -3.516245   -1.107010
     43          6           0        3.418674   -4.453598   -0.708347
     44          8           0        2.677787   -4.325960    0.290741
     45          8           0        3.357673   -5.471214   -1.567626
     46          6           0        2.711997   -6.664311   -1.066240
     47          6           0       -2.565803   -5.001264   -0.984546
     48          6           0       -3.696770   -4.266623   -0.257209
     49          6           0       -4.589826   -4.879883    0.574761
     50          6           0       -4.798872   -6.368442    0.701010
     51          6           0       -5.552896   -4.010378    1.338222
     52          6           0       -5.025684   -3.360773    2.690530
     53          6           0       -6.074844   -3.441201    3.780915
     54          6           0       -6.437052   -2.002053    4.296044
     55          6           0       -7.068875   -1.995148    5.617288
     56          6           0       -7.342075   -1.272006    3.240163
     57          6           0       -6.869375    0.177712    3.042192
     58          6           0       -6.480553    0.625228    1.623742
     59          6           0       -7.651582    0.914280    0.638377
     60          6           0       -7.588373    0.125815   -0.642584
     61          6           0       -7.786753    2.466998    0.352279
     62          6           0       -9.267626    2.932511    0.325722
     63          6           0       -9.472812    4.120216   -0.661200
     64          6           0      -10.420149    3.767631   -1.850256
     65          6           0      -10.261129    4.778512   -2.986514
     66          6           0      -11.840634    3.824218   -1.290333
     67          1           0        1.344075    1.840754   -4.112835
     68          1           0        3.249033    5.573670    0.921651
     69          1           0        6.907128    0.734653    3.064433
     70          1           0        2.725023   -2.827207   -3.540356
     71          1           0        0.959283   -0.770801   -4.298547
     72          1           0        3.641525   -1.454947   -5.145929
     73          1           0        3.510096    0.282697   -5.245198
     74          1           0        2.352826   -0.817163   -6.086495
     75          1           0        0.401438   -1.688480   -2.037933
     76          1           0        1.289050   -3.134127   -1.354780
     77          1           0        0.564154   -3.813317   -3.963789
     78          1           0       -0.767064   -2.813017   -3.401408
     79          1           0        0.957884    3.882378   -4.614404
     80          1           0        0.888772    5.535188   -3.981527
     81          1           0       -0.413178    4.359006   -3.560189
     82          1           0        2.988369    7.299415   -0.431014
     83          1           0        1.682090    6.888903    0.757754
     84          1           0        1.501015    8.258891   -0.401335
     85          1           0        4.226195    4.648005    3.371660
     86          1           0        6.874690    3.611337    3.114090
     87          1           0        5.113233    6.477148    2.075853
     88          1           0        6.530696    5.564543    1.720031
     89          1           0        6.161886    6.116291    3.437472
     90          1           0        5.270032    1.574486    4.480086
     91          1           0        4.561267    3.167580    4.872377
     92          1           0        7.258956    2.237408    5.647276
     93          1           0        5.880735    3.024377    6.671708
     94          1           0        6.868731    3.942667    5.568325
     95          1           0        6.844438   -3.039853    3.271210
     96          1           0        7.786557   -1.447496    3.207565
     97          1           0        8.117672   -2.722377    2.139692
     98          1           0        4.997970   -3.848012   -2.031969
     99          1           0        3.318082   -7.102594   -0.272929
    100          1           0        2.601045   -7.415865   -1.848133
    101          1           0        1.682139   -6.544492   -0.729144
    102          1           0       -1.906931   -5.378193   -0.202511
    103          1           0       -2.967432   -5.668269   -1.747844
    104          1           0       -3.735927   -3.184452   -0.386095
    105          1           0       -5.786587   -6.595940    0.301555
    106          1           0       -4.846517   -6.704023    1.736720
    107          1           0       -4.207235   -7.075813    0.121497
    108          1           0       -6.460493   -4.591468    1.497090
    109          1           0       -5.826960   -3.206960    0.655333
    110          1           0       -4.867773   -2.303738    2.472188
    111          1           0       -4.110765   -3.827192    3.053623
    112          1           0       -5.601619   -3.988620    4.596380
    113          1           0       -7.006008   -3.806223    3.348853
    114          1           0       -5.453999   -1.544119    4.401970
    115          1           0       -6.500759   -2.553061    6.360567
    116          1           0       -8.095358   -2.363002    5.619313
    117          1           0       -6.929199   -0.947239    5.883841
    118          1           0       -8.421686   -1.318510    3.383026
    119          1           0       -7.201198   -1.814727    2.305559
    120          1           0       -6.036245    0.338443    3.727882
    121          1           0       -7.656184    0.851761    3.380755
    122          1           0       -5.851443   -0.178972    1.243159
    123          1           0       -5.794234    1.468539    1.697859
    124          1           0       -8.524932    0.592491    1.206021
    125          1           0       -8.522075   -0.419189   -0.782760
    126          1           0       -6.727127   -0.530634   -0.516239
    127          1           0       -7.475541    0.763729   -1.518776
    128          1           0       -7.317312    2.674387   -0.609478
    129          1           0       -7.253140    3.042954    1.107117
    130          1           0       -9.495700    3.287727    1.330720
    131          1           0       -9.965181    2.114204    0.145980
    132          1           0       -8.564732    4.648336   -0.951456
    133          1           0       -9.900311    4.878342   -0.005655
    134          1           0      -10.261626    2.771295   -2.262240
    135          1           0       -9.415949    5.458453   -2.876022
    136          1           0      -11.155243    5.402441   -2.996085
    137          1           0      -10.208776    4.210019   -3.914393
    138          1           0      -12.297506    4.813498   -1.298159
    139          1           0      -11.774573    3.584460   -0.229133
    140          1           0      -12.504675    3.198027   -1.886596
 ---------------------------------------------------------------------

 SCF Done:  E(RZINDO/S) =  -474.340447384     A.U. after   19 cycles

 Excitation energies and oscillator strengths:

 Excited State   1:      Singlet-A      1.2832 eV  966.23 nm  f=0.5533  <S**2>=0.000
     175 ->178         0.18428
     176 ->177         0.66442
 This state for optimization and/or second-order correction.
 Total Energy, E(CIS/TDA) =  -474.293291607
 Copying the excited state density for this state as the 1-particle RhoCI density.

 Excited State   2:      Singlet-A      1.8960 eV  653.93 nm  f=0.0212  <S**2>=0.000
     175 ->177         0.52092
     176 ->178        -0.44897

 Excited State   3:      Singlet-A      2.9371 eV  422.12 nm  f=0.6230  <S**2>=0.000
     168 ->177         0.12770
     168 ->179         0.16310
     168 ->181         0.10128
     175 ->177         0.30071
     176 ->178         0.39906
     176 ->179        -0.29927
     176 ->180         0.21490

 Excited State   4:      Singlet-A      2.9601 eV  418.84 nm  f=0.0992  <S**2>=0.000
     168 ->177         0.27904
     168 ->178        -0.19913
     168 ->179         0.37346
     168 ->181         0.22690
     168 ->184         0.13256
     168 ->185         0.17500
     175 ->177        -0.12213
     176 ->178        -0.15928
     176 ->179         0.13813
     176 ->180        -0.11667

 Excited State   5:      Singlet-A      3.0450 eV  407.18 nm  f=0.6167  <S**2>=0.000
     175 ->177         0.29393
     176 ->178         0.30101
     176 ->179         0.39493
     176 ->180        -0.26864
     176 ->181        -0.23889

 The electronic state is 1-A.
 Alpha  occ. eigenvalues --   -1.82884  -1.81441  -1.78990  -1.73153  -1.72082
 Alpha  occ. eigenvalues --   -1.70230  -1.66992  -1.61797  -1.60593  -1.57914
 Alpha  occ. eigenvalues --   -1.55368  -1.51286  -1.48506  -1.47570  -1.46822
 Alpha  occ. eigenvalues --   -1.42823  -1.41834  -1.39974  -1.38372  -1.38303
 Alpha  occ. eigenvalues --   -1.35631  -1.33331  -1.32140  -1.31270  -1.28816
 Alpha  occ. eigenvalues --   -1.28434  -1.27880  -1.23304  -1.21638  -1.17807
 Alpha  occ. eigenvalues --   -1.16986  -1.15465  -1.15405  -1.14103  -1.13158
 Alpha  occ. eigenvalues --   -1.12915  -1.09992  -1.09542  -1.03886  -1.03403
 Alpha  occ. eigenvalues --   -1.00902  -1.00488  -0.98208  -0.97639  -0.95881
 Alpha  occ. eigenvalues --   -0.95088  -0.94035  -0.93974  -0.93691  -0.92035
 Alpha  occ. eigenvalues --   -0.90929  -0.90717  -0.89672  -0.88542  -0.87335
 Alpha  occ. eigenvalues --   -0.86015  -0.83695  -0.83137  -0.81619  -0.80894
 Alpha  occ. eigenvalues --   -0.79621  -0.78647  -0.76819  -0.76563  -0.76062
 Alpha  occ. eigenvalues --   -0.75115  -0.74371  -0.74159  -0.73787  -0.73173
 Alpha  occ. eigenvalues --   -0.73052  -0.72300  -0.72146  -0.71070  -0.70856
 Alpha  occ. eigenvalues --   -0.70287  -0.69817  -0.69228  -0.68596  -0.68406
 Alpha  occ. eigenvalues --   -0.67527  -0.67052  -0.66530  -0.66164  -0.65783
 Alpha  occ. eigenvalues --   -0.65565  -0.65266  -0.64931  -0.64258  -0.63481
 Alpha  occ. eigenvalues --   -0.63322  -0.63211  -0.62966  -0.62612  -0.61993
 Alpha  occ. eigenvalues --   -0.61931  -0.60724  -0.60667  -0.60373  -0.59751
 Alpha  occ. eigenvalues --   -0.59429  -0.58977  -0.58826  -0.58418  -0.57875
 Alpha  occ. eigenvalues --   -0.57612  -0.57408  -0.57195  -0.57021  -0.56127
 Alpha  occ. eigenvalues --   -0.55867  -0.55386  -0.55083  -0.55055  -0.54681
 Alpha  occ. eigenvalues --   -0.54401  -0.54180  -0.53428  -0.52745  -0.52583
 Alpha  occ. eigenvalues --   -0.52090  -0.51935  -0.51481  -0.51047  -0.51001
 Alpha  occ. eigenvalues --   -0.50810  -0.50478  -0.50286  -0.50022  -0.49735
 Alpha  occ. eigenvalues --   -0.49160  -0.49088  -0.49015  -0.48767  -0.48582
 Alpha  occ. eigenvalues --   -0.48501  -0.48424  -0.47749  -0.47722  -0.47583
 Alpha  occ. eigenvalues --   -0.47369  -0.46972  -0.46695  -0.46611  -0.46462
 Alpha  occ. eigenvalues --   -0.46044  -0.45818  -0.45528  -0.45336  -0.45318
 Alpha  occ. eigenvalues --   -0.45124  -0.44934  -0.44692  -0.44499  -0.44187
 Alpha  occ. eigenvalues --   -0.44045  -0.43395  -0.42958  -0.42291  -0.42207
 Alpha  occ. eigenvalues --   -0.41305  -0.41051  -0.39788  -0.38665  -0.38174
 Alpha  occ. eigenvalues --   -0.37411  -0.37130  -0.35974  -0.34592  -0.34358
 Alpha  occ. eigenvalues --   -0.33722  -0.32627  -0.31976  -0.31158  -0.26752
 Alpha  occ. eigenvalues --   -0.21836
 Alpha virt. eigenvalues --   -0.08402  -0.02624  -0.00694   0.00855   0.01305
 Alpha virt. eigenvalues --    0.01705   0.02610   0.03631   0.04656   0.05066
 Alpha virt. eigenvalues --    0.06378   0.06708   0.07220   0.07617   0.07922

 Mulliken charges:
               1
     1  Mg   0.437076
     2  C   -0.035884
     3  C   -0.104297
     4  C   -0.093963
     5  C   -0.059543
     6  N   -0.291794
     7  C    0.116366
     8  C    0.008108
     9  C    0.000188
    10  C    0.146078
    11  C   -0.049234
    12  C   -0.008909
    13  C    0.010383
    14  C    0.472136
    15  O   -0.537361
    16  O   -0.281298
    17  N   -0.314694
    18  C    0.146178
    19  C    0.050690
    20  C   -0.059990
    21  C    0.116827
    22  C   -0.031554
    23  C    0.338320
    24  O   -0.532888
    25  C   -0.025365
    26  N   -0.263502
    27  C    0.154849
    28  C    0.005125
    29  C   -0.007757
    30  C    0.102815
    31  C   -0.049913
    32  C   -0.029457
    33  C   -0.053298
    34  N   -0.312996
    35  C    0.071879
    36  C    0.005958
    37  C   -0.056757
    38  C    0.095462
    39  C   -0.037954
    40  C    0.338866
    41  O   -0.506709
    42  C    0.047200
    43  C    0.495895
    44  O   -0.552950
    45  O   -0.252713
    46  C    0.077306
    47  C    0.101429
    48  C   -0.097836
    49  C   -0.005839
    50  C   -0.041331
    51  C   -0.026503
    52  C   -0.032681
    53  C   -0.046473
    54  C   -0.011263
    55  C   -0.053004
    56  C   -0.034191
    57  C   -0.034882
    58  C   -0.034983
    59  C   -0.013046
    60  C   -0.055015
    61  C   -0.037067
    62  C   -0.038202
    63  C   -0.037628
    64  C   -0.006482
    65  C   -0.060136
    66  C   -0.056549
    67  H    0.032464
    68  H    0.029596
    69  H    0.026861
    70  H    0.031358
    71  H    0.026407
    72  H    0.018250
    73  H    0.032401
    74  H    0.021525
    75  H    0.026226
    76  H    0.053651
    77  H    0.031512
    78  H    0.027765
    79  H    0.021671
    80  H    0.044910
    81  H    0.047046
    82  H    0.037283
    83  H    0.049042
    84  H    0.035401
    85  H    0.026007
    86  H    0.029429
    87  H    0.010527
    88  H    0.023001
    89  H    0.024381
    90  H    0.037743
    91  H    0.012691
    92  H    0.026997
    93  H    0.026685
    94  H    0.014290
    95  H    0.043426
    96  H    0.015594
    97  H    0.029604
    98  H    0.053129
    99  H    0.042026
   100  H    0.026356
   101  H    0.054287
   102  H    0.061494
   103  H    0.058758
   104  H    0.037559
   105  H    0.019931
   106  H    0.027055
   107  H    0.025477
   108  H    0.017969
   109  H    0.019614
   110  H    0.023614
   111  H    0.026812
   112  H    0.022410
   113  H    0.027973
   114  H    0.021482
   115  H    0.009679
   116  H    0.024330
   117  H    0.014706
   118  H    0.025746
   119  H    0.011484
   120  H    0.015588
   121  H    0.010028
   122  H    0.011219
   123  H    0.014435
   124  H    0.017841
   125  H    0.017053
   126  H    0.023613
   127  H    0.020050
   128  H    0.019934
   129  H    0.018932
   130  H    0.012601
   131  H    0.024887
   132  H    0.020318
   133  H    0.010163
   134  H    0.026316
   135  H    0.022182
   136  H    0.016717
   137  H    0.016400
   138  H    0.016558
   139  H    0.018496
   140  H    0.015788
 Sum of Mulliken charges =  -0.00000

 Dipole moment (field-independent basis, Debye):
    X=             -0.5554    Y=              6.8402    Z=             -1.6266  Tot=              7.0529
 N-N= 4.465023653238D+03 E-N= 0.000000000000D+00  KE=-9.604978258414D+03
 Leave Link  601 at Sat Apr 30 21:54:44 2022, MaxMem=  6710886400 cpu:               0.8 elap:               0.0
 (Enter /sw/apps/gaussian-16.0/g16/l9999.exe)
 1\1\GINC-BP1-COMPUTE102\SP\RZINDO CIS\STO-3G\C55H74Mg1N4O6\OF15641\30-
 Apr-2022\0\\#p ZINDO=(nstates=5)\\step_901_chromophore_20 ZINDO\\0,1\M
 g,0,7.322,57.152,42.094\C,0,5.54,54.108,41.734\C,0,10.008,55.627,40.71
 8\C,0,8.574,60.3,41.595\C,0,4.214,58.731,43.065\N,0,7.634,55.1,41.264\
 C,0,6.793,54.036,41.148\C,0,7.445,52.84,40.519\C,0,9.021,53.236,40.71\
 C,0,8.878,54.731,40.786\C,0,9.725,52.642,41.996\C,0,7.002,52.749,39.07
 1\C,0,7.383,51.489,38.325\C,0,6.43,50.943,37.323\O,0,5.539,50.066,37.5

 Normal termination of Gaussian 16 at Sat Apr 30 21:54:45 2022.
