 Gaussian 16, Revision A.03,
 Gaussian 16:  ES64L-G16RevA.03 25-Dec-2016

 ------------------------------
 #p blyp/Def2SVP td=(nstates=5)
 ------------------------------

 --------------------------------------------------
 step_1601_chromophore_6 TDDFT with blyp functional
 --------------------------------------------------
 Symbolic Z-matrix:
 Charge =  0 Multiplicity = 1

                         Standard orientation:
 ---------------------------------------------------------------------
 Center     Atomic      Atomic             Coordinates (Angstroms)
 Number     Number       Type             X           Y           Z
 ---------------------------------------------------------------------
      1         12           0       -5.823690    1.221127   -0.368333
      2          6           0       -4.789676   -2.327402   -0.323529
      3          6           0       -2.487538    1.988089   -0.645173
      4          6           0       -6.817207    4.161760    0.294812
      5          6           0       -9.138977   -0.079572    0.310345
      6          7           0       -3.860453   -0.108694   -0.455769
      7          6           0       -3.724376   -1.446082   -0.475911
      8          6           0       -2.224146   -1.788828   -0.595953
      9          6           0       -1.494272   -0.357319   -0.562257
     10          6           0       -2.671074    0.594339   -0.584747
     11          6           0       -0.491973   -0.154078    0.618759
     12          6           0       -1.885645   -2.553671   -1.956163
     13          6           0       -0.677416   -3.468338   -1.902801
     14          6           0        0.062675   -3.723098   -0.600378
     15          8           0       -0.351796   -4.455857    0.281221
     16          8           0        1.222759   -2.922301   -0.540081
     17          7           0       -4.793160    2.892806   -0.331418
     18          6           0       -3.441085    3.051914   -0.494375
     19          6           0       -3.185923    4.461050   -0.465206
     20          6           0       -4.418282    5.072363   -0.202760
     21          6           0       -5.407254    4.026147   -0.049896
     22          6           0       -1.854359    5.091541   -0.655860
     23          6           0       -4.700410    6.523336   -0.175416
     24          8           0       -5.807146    6.912571    0.177562
     25          6           0       -3.674757    7.587399   -0.549029
     26          7           0       -7.754055    1.912280    0.183428
     27          6           0       -7.829536    3.209215    0.528627
     28          6           0       -9.327329    3.591327    1.032004
     29          6           0      -10.030504    2.219056    0.840679
     30          6           0       -8.922565    1.301787    0.403042
     31          6           0       -9.158592    4.270379    2.372895
     32          6           0      -11.348073    2.256389   -0.099635
     33          6           0      -11.360255    1.325800   -1.334750
     34          7           0       -6.806362   -0.725438   -0.123562
     35          6           0       -8.157818   -1.054654    0.053547
     36          6           0       -8.383974   -2.513897    0.064898
     37          6           0       -7.043729   -2.995277   -0.043938
     38          6           0       -6.148015   -1.875810   -0.167966
     39          6           0       -9.720967   -3.290636    0.460867
     40          6           0       -6.323542   -4.178456    0.067241
     41          8           0       -6.707439   -5.330062    0.339757
     42          6           0       -4.766722   -3.839493   -0.148722
     43          6           0       -4.045620   -4.183373    1.074190
     44          8           0       -3.822319   -3.590344    2.062341
     45          8           0       -3.728523   -5.534957    0.852741
     46          6           0       -2.772125   -6.100313    1.850590
     47          6           0        1.866926   -3.000857    0.816525
     48          6           0        3.282769   -2.499729    0.935331
     49          6           0        4.369896   -2.931787    0.152196
     50          6           0        4.298452   -4.062728   -0.928554
     51          6           0        5.716598   -2.426508    0.549617
     52          6           0        6.283042   -1.297818   -0.293362
     53          6           0        7.656607   -1.622574   -0.929824
     54          6           0        8.670313   -0.422826   -0.791953
     55          6           0        8.276819    0.735395   -1.724001
     56          6           0       10.089895   -0.921126   -1.096128
     57          6           0       11.248891   -0.266683   -0.245628
     58          6           0       12.701131   -0.539117   -0.851867
     59          6           0       13.521114    0.871272   -0.941862
     60          6           0       13.249297    1.647528   -2.273234
     61          6           0       15.032827    0.606334   -0.563197
     62          6           0       15.337236    1.035188    0.883169
     63          6           0       16.838259    1.148413    1.167557
     64          6           0       17.299366    2.505039    1.803662
     65          6           0       17.953050    2.264759    3.179058
     66          6           0       18.239825    3.306588    0.921100
     67          1           0       -1.473594    2.391666   -0.685385
     68          1           0       -7.177376    5.159901    0.550004
     69          1           0      -10.120921   -0.527914    0.473330
     70          1           0       -2.030487   -2.436448    0.259673
     71          1           0       -0.875842   -0.305382   -1.458104
     72          1           0        0.512503    0.040384    0.240207
     73          1           0       -0.330426   -1.100462    1.135423
     74          1           0       -0.806363    0.627399    1.310491
     75          1           0       -1.642528   -1.857170   -2.758036
     76          1           0       -2.667793   -3.094607   -2.488953
     77          1           0        0.089360   -3.184557   -2.623150
     78          1           0       -1.134591   -4.358510   -2.336419
     79          1           0       -1.356480    5.445872    0.246013
     80          1           0       -1.830571    5.865614   -1.423581
     81          1           0       -1.064406    4.394440   -0.934869
     82          1           0       -2.734142    7.554462    0.000598
     83          1           0       -4.194103    8.515727   -0.308323
     84          1           0       -3.532830    7.631075   -1.628620
     85          1           0       -9.817241    4.232101    0.298544
     86          1           0      -10.408972    1.869691    1.801239
     87          1           0       -8.138702    4.457518    2.709638
     88          1           0       -9.558807    3.626467    3.155392
     89          1           0       -9.592679    5.262459    2.252702
     90          1           0      -11.579480    3.290633   -0.353939
     91          1           0      -12.165631    2.012941    0.579056
     92          1           0      -12.165327    1.682922   -1.975801
     93          1           0      -11.660072    0.293293   -1.153575
     94          1           0      -10.443070    1.464042   -1.908145
     95          1           0      -10.305498   -2.505333    0.940888
     96          1           0       -9.627444   -4.089230    1.196173
     97          1           0      -10.215107   -3.565649   -0.470598
     98          1           0       -4.457527   -4.380679   -1.042943
     99          1           0       -2.456025   -5.384471    2.610140
    100          1           0       -1.905391   -6.551071    1.366238
    101          1           0       -3.366881   -6.898470    2.292788
    102          1           0        1.892907   -4.030581    1.171104
    103          1           0        1.280391   -2.513726    1.595250
    104          1           0        3.455356   -1.726635    1.683912
    105          1           0        4.248260   -5.010925   -0.393903
    106          1           0        5.163348   -4.016786   -1.590947
    107          1           0        3.361224   -3.906400   -1.463013
    108          1           0        6.318285   -3.335729    0.539365
    109          1           0        5.657671   -2.080459    1.581347
    110          1           0        6.579732   -0.476977    0.359361
    111          1           0        5.666614   -0.863214   -1.080422
    112          1           0        7.404909   -1.752896   -1.982121
    113          1           0        8.051007   -2.535226   -0.481916
    114          1           0        8.641762   -0.018372    0.219303
    115          1           0        7.679600    0.325363   -2.539215
    116          1           0        9.107346    1.216543   -2.240641
    117          1           0        7.667808    1.590875   -1.430122
    118          1           0       10.250604   -0.845649   -2.171138
    119          1           0       10.157668   -1.992298   -0.909346
    120          1           0       11.290378   -0.440219    0.829766
    121          1           0       10.978563    0.788150   -0.298438
    122          1           0       12.647810   -0.929528   -1.867901
    123          1           0       13.156850   -1.329182   -0.254876
    124          1           0       13.039430    1.586253   -0.274870
    125          1           0       12.249285    2.059318   -2.412787
    126          1           0       13.418340    0.914215   -3.062266
    127          1           0       13.937649    2.479576   -2.425718
    128          1           0       15.477541    1.155291   -1.393959
    129          1           0       15.185596   -0.458676   -0.739435
    130          1           0       14.983179    0.217679    1.510599
    131          1           0       14.844591    1.970036    1.150977
    132          1           0       17.301192    1.149083    0.180435
    133          1           0       17.281452    0.273230    1.642987
    134          1           0       16.391525    3.093158    1.942288
    135          1           0       17.941052    1.231276    3.527276
    136          1           0       17.531066    2.982391    3.882160
    137          1           0       18.994400    2.569379    3.289475
    138          1           0       17.685336    3.561844    0.018163
    139          1           0       19.062976    2.697230    0.549387
    140          1           0       18.762442    4.159192    1.354851
 ---------------------------------------------------------------------

 SCF Done:  E(RB-LYP) =  -3007.36716097     A.U. after   22 cycles

 Excitation energies and oscillator strengths:

 Excited State   1:      Singlet-A      1.7810 eV  696.15 nm  f=0.0043  <S**2>=0.000
     244 -> 247        0.70196
 This state for optimization and/or second-order correction.
 Total Energy, E(TD-HF/TD-DFT) =  -3007.30171062
 Copying the excited state density for this state as the 1-particle RhoCI density.

 Excited State   2:      Singlet-A      1.8293 eV  677.77 nm  f=0.2892  <S**2>=0.000
     245 -> 248        0.18177
     246 -> 247        0.67960
     246 <- 247       -0.14399

 Excited State   3:      Singlet-A      1.8677 eV  663.85 nm  f=0.0029  <S**2>=0.000
     243 -> 247        0.70349

 Excited State   4:      Singlet-A      2.0159 eV  615.04 nm  f=0.1150  <S**2>=0.000
     245 -> 247        0.65709
     246 -> 248       -0.21660

 Excited State   5:      Singlet-A      2.2623 eV  548.04 nm  f=0.0002  <S**2>=0.000
     242 -> 247        0.70692

 The electronic state is 1-A.
 Alpha  occ. eigenvalues --  -46.27766 -18.83154 -18.78850 -18.78155 -18.76311
 Alpha  occ. eigenvalues --  -18.74893 -18.74823 -14.03107 -14.02828 -14.01202
 Alpha  occ. eigenvalues --  -14.00951 -10.04960 -10.02115  -9.99141  -9.98544
 Alpha  occ. eigenvalues --   -9.97795  -9.96520  -9.96273  -9.96148  -9.96127
 Alpha  occ. eigenvalues --   -9.95923  -9.95614  -9.95568  -9.94932  -9.94620
 Alpha  occ. eigenvalues --   -9.94319  -9.94126  -9.93900  -9.93853  -9.93742
 Alpha  occ. eigenvalues --   -9.93723  -9.93540  -9.93383  -9.93290  -9.93258
 Alpha  occ. eigenvalues --   -9.93254  -9.93186  -9.93158  -9.92965  -9.92914
 Alpha  occ. eigenvalues --   -9.92819  -9.92480  -9.92373  -9.92348  -9.92203
 Alpha  occ. eigenvalues --   -9.92184  -9.92093  -9.92043  -9.92037  -9.91962
 Alpha  occ. eigenvalues --   -9.91764  -9.91728  -9.91701  -9.91633  -9.91599
 Alpha  occ. eigenvalues --   -9.91533  -9.91477  -9.91408  -9.91287  -9.91246
 Alpha  occ. eigenvalues --   -9.91227  -9.91137  -9.90789  -9.90711  -9.90702
 Alpha  occ. eigenvalues --   -9.90403  -2.92369  -1.72795  -1.72287  -1.72058
 Alpha  occ. eigenvalues --   -0.97376  -0.96664  -0.91206  -0.90501  -0.89439
 Alpha  occ. eigenvalues --   -0.88598  -0.87153  -0.86556  -0.85554  -0.84652
 Alpha  occ. eigenvalues --   -0.74767  -0.73657  -0.72589  -0.72382  -0.72043
 Alpha  occ. eigenvalues --   -0.71819  -0.71526  -0.70644  -0.70499  -0.70383
 Alpha  occ. eigenvalues --   -0.69122  -0.68731  -0.67933  -0.67160  -0.66619
 Alpha  occ. eigenvalues --   -0.66231  -0.65434  -0.64983  -0.64308  -0.63921
 Alpha  occ. eigenvalues --   -0.63800  -0.62706  -0.62075  -0.61853  -0.60861
 Alpha  occ. eigenvalues --   -0.60243  -0.60045  -0.59696  -0.59029  -0.58964
 Alpha  occ. eigenvalues --   -0.58152  -0.57636  -0.56208  -0.55355  -0.54936
 Alpha  occ. eigenvalues --   -0.54031  -0.53642  -0.52858  -0.52275  -0.51450
 Alpha  occ. eigenvalues --   -0.51196  -0.50939  -0.50440  -0.50229  -0.49856
 Alpha  occ. eigenvalues --   -0.49783  -0.49661  -0.48684  -0.47314  -0.46552
 Alpha  occ. eigenvalues --   -0.45740  -0.45692  -0.45471  -0.44999  -0.43954
 Alpha  occ. eigenvalues --   -0.43885  -0.43070  -0.42845  -0.42813  -0.42297
 Alpha  occ. eigenvalues --   -0.41970  -0.41392  -0.41213  -0.41158  -0.41049
 Alpha  occ. eigenvalues --   -0.40700  -0.40403  -0.40078  -0.39915  -0.39602
 Alpha  occ. eigenvalues --   -0.39264  -0.39172  -0.39086  -0.38964  -0.38798
 Alpha  occ. eigenvalues --   -0.38650  -0.38401  -0.38186  -0.37886  -0.37808
 Alpha  occ. eigenvalues --   -0.37694  -0.37679  -0.37313  -0.37220  -0.37156
 Alpha  occ. eigenvalues --   -0.36920  -0.36868  -0.36601  -0.36361  -0.36265
 Alpha  occ. eigenvalues --   -0.36146  -0.36091  -0.35758  -0.35642  -0.35545
 Alpha  occ. eigenvalues --   -0.35221  -0.35128  -0.34937  -0.34658  -0.34619
 Alpha  occ. eigenvalues --   -0.34308  -0.34142  -0.33828  -0.33764  -0.33723
 Alpha  occ. eigenvalues --   -0.33572  -0.33457  -0.33037  -0.33000  -0.32957
 Alpha  occ. eigenvalues --   -0.32924  -0.32828  -0.32657  -0.32389  -0.32187
 Alpha  occ. eigenvalues --   -0.32094  -0.31935  -0.31790  -0.31722  -0.31270
 Alpha  occ. eigenvalues --   -0.31106  -0.31014  -0.30745  -0.30613  -0.30512
 Alpha  occ. eigenvalues --   -0.30441  -0.30293  -0.30064  -0.29757  -0.29507
 Alpha  occ. eigenvalues --   -0.29373  -0.29247  -0.28897  -0.28671  -0.28601
 Alpha  occ. eigenvalues --   -0.28439  -0.28275  -0.28196  -0.28033  -0.27912
 Alpha  occ. eigenvalues --   -0.27853  -0.27307  -0.27042  -0.26930  -0.26410
 Alpha  occ. eigenvalues --   -0.26182  -0.26109  -0.25952  -0.25854  -0.25672
 Alpha  occ. eigenvalues --   -0.24971  -0.24895  -0.23612  -0.22898  -0.22744
 Alpha  occ. eigenvalues --   -0.22578  -0.22376  -0.22007  -0.21766  -0.20856
 Alpha  occ. eigenvalues --   -0.20529  -0.19776  -0.18245  -0.17877  -0.17001
 Alpha  occ. eigenvalues --   -0.15835
 Alpha virt. eigenvalues --   -0.11463  -0.06577  -0.05814  -0.04350  -0.04254
 Alpha virt. eigenvalues --   -0.03819  -0.02345  -0.00990  -0.00652   0.00700
 Alpha virt. eigenvalues --    0.01362   0.02074   0.02424   0.02656   0.02755

 Mulliken charges:
               1
     1  Mg   0.710211
     2  C   -0.030098
     3  C   -0.040809
     4  C   -0.006562
     5  C   -0.066622
     6  N   -0.176726
     7  C   -0.084608
     8  C   -0.007149
     9  C    0.013568
    10  C    0.044531
    11  C    0.122552
    12  C    0.100999
    13  C    0.149325
    14  C    0.103109
    15  O   -0.181035
    16  O   -0.295902
    17  N   -0.326694
    18  C    0.090245
    19  C   -0.107243
    20  C    0.089850
    21  C    0.089694
    22  C    0.155740
    23  C   -0.116045
    24  O   -0.171850
    25  C    0.126623
    26  N   -0.191404
    27  C   -0.025160
    28  C   -0.002931
    29  C    0.060008
    30  C    0.015858
    31  C    0.150902
    32  C    0.057261
    33  C    0.091389
    34  N   -0.206229
    35  C    0.081089
    36  C   -0.171777
    37  C    0.113302
    38  C    0.091237
    39  C    0.171897
    40  C   -0.104224
    41  O   -0.149608
    42  C    0.075633
    43  C    0.124956
    44  O   -0.126908
    45  O   -0.309521
    46  C    0.206564
    47  C    0.310249
    48  C   -0.125338
    49  C   -0.176731
    50  C    0.137898
    51  C    0.158491
    52  C    0.102527
    53  C    0.051595
    54  C   -0.050986
    55  C    0.095258
    56  C    0.102876
    57  C    0.047941
    58  C    0.097018
    59  C   -0.113073
    60  C    0.078209
    61  C    0.118654
    62  C    0.093053
    63  C    0.109517
    64  C   -0.069359
    65  C    0.101281
    66  C    0.103785
    67  H   -0.067660
    68  H   -0.040566
    69  H   -0.067273
    70  H    0.022705
    71  H   -0.022587
    72  H   -0.014654
    73  H   -0.010842
    74  H    0.000215
    75  H   -0.035448
    76  H   -0.025512
    77  H   -0.015891
    78  H   -0.009601
    79  H   -0.000311
    80  H    0.005427
    81  H   -0.037992
    82  H    0.010699
    83  H   -0.018386
    84  H    0.008845
    85  H   -0.016901
    86  H   -0.033730
    87  H    0.003637
    88  H   -0.017295
    89  H    0.000237
    90  H   -0.023545
    91  H   -0.031912
    92  H   -0.020661
    93  H   -0.000686
    94  H    0.010149
    95  H   -0.019828
    96  H    0.026479
    97  H    0.011000
    98  H    0.005202
    99  H    0.020615
   100  H    0.016703
   101  H    0.003814
   102  H    0.001464
   103  H   -0.009881
   104  H   -0.029315
   105  H    0.013364
   106  H   -0.002195
   107  H    0.009600
   108  H   -0.024543
   109  H   -0.031348
   110  H   -0.039672
   111  H   -0.021501
   112  H   -0.026597
   113  H   -0.027222
   114  H   -0.032195
   115  H   -0.035147
   116  H   -0.018605
   117  H   -0.017518
   118  H   -0.035938
   119  H   -0.044339
   120  H   -0.023388
   121  H   -0.031300
   122  H   -0.032205
   123  H   -0.023100
   124  H   -0.027894
   125  H   -0.008853
   126  H   -0.021675
   127  H   -0.011159
   128  H   -0.044561
   129  H   -0.028456
   130  H   -0.031491
   131  H   -0.021820
   132  H   -0.047828
   133  H   -0.033462
   134  H   -0.032906
   135  H   -0.013328
   136  H   -0.024940
   137  H   -0.033628
   138  H   -0.022869
   139  H   -0.025747
   140  H   -0.012557
 Sum of Mulliken charges =  -0.00000

 Dipole moment (field-independent basis, Debye):
    X=              3.5815    Y=              2.8008    Z=             -2.6527  Tot=              5.2639
 Quadrupole moment (field-independent basis, Debye-Ang):
   XX=           -374.6598   YY=           -440.2286   ZZ=           -401.2211
   XY=            -20.7089   XZ=              9.7436   YZ=              3.4136

 Normal termination of Gaussian 16 at Wed May  4 11:09:54 2022.
