 Gaussian 16, Revision A.03,
 Gaussian 16:  ES64L-G16RevA.03 25-Dec-2016

 -----------------------------------
 #p cam-b3lyp/Def2SVP td=(nstates=5)
 -----------------------------------

 -------------------------------------------------------
 step_1601_chromophore_6 TDDFT with cam-b3lyp functional
 -------------------------------------------------------
 Symbolic Z-matrix:
 Charge =  0 Multiplicity = 1

                         Standard orientation:
 ---------------------------------------------------------------------
 Center     Atomic      Atomic             Coordinates (Angstroms)
 Number     Number       Type             X           Y           Z
 ---------------------------------------------------------------------
      1         12           0       -5.823690    1.221127   -0.368333
      2          6           0       -4.789676   -2.327402   -0.323529
      3          6           0       -2.487538    1.988089   -0.645173
      4          6           0       -6.817207    4.161760    0.294812
      5          6           0       -9.138977   -0.079572    0.310345
      6          7           0       -3.860453   -0.108694   -0.455769
      7          6           0       -3.724376   -1.446082   -0.475911
      8          6           0       -2.224146   -1.788828   -0.595953
      9          6           0       -1.494272   -0.357319   -0.562257
     10          6           0       -2.671074    0.594339   -0.584747
     11          6           0       -0.491973   -0.154078    0.618759
     12          6           0       -1.885645   -2.553671   -1.956163
     13          6           0       -0.677416   -3.468338   -1.902801
     14          6           0        0.062675   -3.723098   -0.600378
     15          8           0       -0.351796   -4.455857    0.281221
     16          8           0        1.222759   -2.922301   -0.540081
     17          7           0       -4.793160    2.892806   -0.331418
     18          6           0       -3.441085    3.051914   -0.494375
     19          6           0       -3.185923    4.461050   -0.465206
     20          6           0       -4.418282    5.072363   -0.202760
     21          6           0       -5.407254    4.026147   -0.049896
     22          6           0       -1.854359    5.091541   -0.655860
     23          6           0       -4.700410    6.523336   -0.175416
     24          8           0       -5.807146    6.912571    0.177562
     25          6           0       -3.674757    7.587399   -0.549029
     26          7           0       -7.754055    1.912280    0.183428
     27          6           0       -7.829536    3.209215    0.528627
     28          6           0       -9.327329    3.591327    1.032004
     29          6           0      -10.030504    2.219056    0.840679
     30          6           0       -8.922565    1.301787    0.403042
     31          6           0       -9.158592    4.270379    2.372895
     32          6           0      -11.348073    2.256389   -0.099635
     33          6           0      -11.360255    1.325800   -1.334750
     34          7           0       -6.806362   -0.725438   -0.123562
     35          6           0       -8.157818   -1.054654    0.053547
     36          6           0       -8.383974   -2.513897    0.064898
     37          6           0       -7.043729   -2.995277   -0.043938
     38          6           0       -6.148015   -1.875810   -0.167966
     39          6           0       -9.720967   -3.290636    0.460867
     40          6           0       -6.323542   -4.178456    0.067241
     41          8           0       -6.707439   -5.330062    0.339757
     42          6           0       -4.766722   -3.839493   -0.148722
     43          6           0       -4.045620   -4.183373    1.074190
     44          8           0       -3.822319   -3.590344    2.062341
     45          8           0       -3.728523   -5.534957    0.852741
     46          6           0       -2.772125   -6.100313    1.850590
     47          6           0        1.866926   -3.000857    0.816525
     48          6           0        3.282769   -2.499729    0.935331
     49          6           0        4.369896   -2.931787    0.152196
     50          6           0        4.298452   -4.062728   -0.928554
     51          6           0        5.716598   -2.426508    0.549617
     52          6           0        6.283042   -1.297818   -0.293362
     53          6           0        7.656607   -1.622574   -0.929824
     54          6           0        8.670313   -0.422826   -0.791953
     55          6           0        8.276819    0.735395   -1.724001
     56          6           0       10.089895   -0.921126   -1.096128
     57          6           0       11.248891   -0.266683   -0.245628
     58          6           0       12.701131   -0.539117   -0.851867
     59          6           0       13.521114    0.871272   -0.941862
     60          6           0       13.249297    1.647528   -2.273234
     61          6           0       15.032827    0.606334   -0.563197
     62          6           0       15.337236    1.035188    0.883169
     63          6           0       16.838259    1.148413    1.167557
     64          6           0       17.299366    2.505039    1.803662
     65          6           0       17.953050    2.264759    3.179058
     66          6           0       18.239825    3.306588    0.921100
     67          1           0       -1.473594    2.391666   -0.685385
     68          1           0       -7.177376    5.159901    0.550004
     69          1           0      -10.120921   -0.527914    0.473330
     70          1           0       -2.030487   -2.436448    0.259673
     71          1           0       -0.875842   -0.305382   -1.458104
     72          1           0        0.512503    0.040384    0.240207
     73          1           0       -0.330426   -1.100462    1.135423
     74          1           0       -0.806363    0.627399    1.310491
     75          1           0       -1.642528   -1.857170   -2.758036
     76          1           0       -2.667793   -3.094607   -2.488953
     77          1           0        0.089360   -3.184557   -2.623150
     78          1           0       -1.134591   -4.358510   -2.336419
     79          1           0       -1.356480    5.445872    0.246013
     80          1           0       -1.830571    5.865614   -1.423581
     81          1           0       -1.064406    4.394440   -0.934869
     82          1           0       -2.734142    7.554462    0.000598
     83          1           0       -4.194103    8.515727   -0.308323
     84          1           0       -3.532830    7.631075   -1.628620
     85          1           0       -9.817241    4.232101    0.298544
     86          1           0      -10.408972    1.869691    1.801239
     87          1           0       -8.138702    4.457518    2.709638
     88          1           0       -9.558807    3.626467    3.155392
     89          1           0       -9.592679    5.262459    2.252702
     90          1           0      -11.579480    3.290633   -0.353939
     91          1           0      -12.165631    2.012941    0.579056
     92          1           0      -12.165327    1.682922   -1.975801
     93          1           0      -11.660072    0.293293   -1.153575
     94          1           0      -10.443070    1.464042   -1.908145
     95          1           0      -10.305498   -2.505333    0.940888
     96          1           0       -9.627444   -4.089230    1.196173
     97          1           0      -10.215107   -3.565649   -0.470598
     98          1           0       -4.457527   -4.380679   -1.042943
     99          1           0       -2.456025   -5.384471    2.610140
    100          1           0       -1.905391   -6.551071    1.366238
    101          1           0       -3.366881   -6.898470    2.292788
    102          1           0        1.892907   -4.030581    1.171104
    103          1           0        1.280391   -2.513726    1.595250
    104          1           0        3.455356   -1.726635    1.683912
    105          1           0        4.248260   -5.010925   -0.393903
    106          1           0        5.163348   -4.016786   -1.590947
    107          1           0        3.361224   -3.906400   -1.463013
    108          1           0        6.318285   -3.335729    0.539365
    109          1           0        5.657671   -2.080459    1.581347
    110          1           0        6.579732   -0.476977    0.359361
    111          1           0        5.666614   -0.863214   -1.080422
    112          1           0        7.404909   -1.752896   -1.982121
    113          1           0        8.051007   -2.535226   -0.481916
    114          1           0        8.641762   -0.018372    0.219303
    115          1           0        7.679600    0.325363   -2.539215
    116          1           0        9.107346    1.216543   -2.240641
    117          1           0        7.667808    1.590875   -1.430122
    118          1           0       10.250604   -0.845649   -2.171138
    119          1           0       10.157668   -1.992298   -0.909346
    120          1           0       11.290378   -0.440219    0.829766
    121          1           0       10.978563    0.788150   -0.298438
    122          1           0       12.647810   -0.929528   -1.867901
    123          1           0       13.156850   -1.329182   -0.254876
    124          1           0       13.039430    1.586253   -0.274870
    125          1           0       12.249285    2.059318   -2.412787
    126          1           0       13.418340    0.914215   -3.062266
    127          1           0       13.937649    2.479576   -2.425718
    128          1           0       15.477541    1.155291   -1.393959
    129          1           0       15.185596   -0.458676   -0.739435
    130          1           0       14.983179    0.217679    1.510599
    131          1           0       14.844591    1.970036    1.150977
    132          1           0       17.301192    1.149083    0.180435
    133          1           0       17.281452    0.273230    1.642987
    134          1           0       16.391525    3.093158    1.942288
    135          1           0       17.941052    1.231276    3.527276
    136          1           0       17.531066    2.982391    3.882160
    137          1           0       18.994400    2.569379    3.289475
    138          1           0       17.685336    3.561844    0.018163
    139          1           0       19.062976    2.697230    0.549387
    140          1           0       18.762442    4.159192    1.354851
 ---------------------------------------------------------------------

 SCF Done:  E(RCAM-B3LYP) =  -3007.15148963     A.U. after   19 cycles

 Excitation energies and oscillator strengths:

 Excited State   1:      Singlet-A      1.7245 eV  718.97 nm  f=0.3889  <S**2>=0.000
     245 -> 248        0.18328
     246 -> 247        0.68448
     245 <- 248        0.10833
 This state for optimization and/or second-order correction.
 Total Energy, E(TD-HF/TD-DFT) =  -3007.08811663
 Copying the excited state density for this state as the 1-particle RhoCI density.

 Excited State   2:      Singlet-A      2.2082 eV  561.47 nm  f=0.1559  <S**2>=0.000
     245 -> 247        0.65347
     246 -> 248       -0.26095

 Excited State   3:      Singlet-A      3.1769 eV  390.27 nm  f=0.0001  <S**2>=0.000
     241 -> 247       -0.15075
     242 -> 247        0.55963
     242 -> 249       -0.28443
     242 -> 251       -0.12837
     243 -> 247       -0.17006

 Excited State   4:      Singlet-A      3.4694 eV  357.36 nm  f=0.0005  <S**2>=0.000
     241 -> 247       -0.34773
     243 -> 247        0.59061

 Excited State   5:      Singlet-A      3.5987 eV  344.52 nm  f=0.1805  <S**2>=0.000
     240 -> 247        0.16666
     240 -> 249        0.12013
     240 -> 251       -0.10420
     241 -> 247        0.36995
     242 -> 247        0.16999
     243 -> 247        0.23045
     245 -> 247        0.13748
     246 -> 248        0.41066

 The electronic state is 1-A.
 Alpha  occ. eigenvalues --  -46.89317 -19.26081 -19.21761 -19.21207 -19.19607
 Alpha  occ. eigenvalues --  -19.18076 -19.17914 -14.41945 -14.41576 -14.39488
 Alpha  occ. eigenvalues --  -14.39455 -10.40367 -10.37667 -10.34118 -10.34050
 Alpha  occ. eigenvalues --  -10.31957 -10.30765 -10.30698 -10.30674 -10.30582
 Alpha  occ. eigenvalues --  -10.30162 -10.30015 -10.29518 -10.29235 -10.29185
 Alpha  occ. eigenvalues --  -10.28924 -10.28254 -10.28157 -10.27801 -10.27685
 Alpha  occ. eigenvalues --  -10.27655 -10.27492 -10.27444 -10.27420 -10.27371
 Alpha  occ. eigenvalues --  -10.27306 -10.27299 -10.27222 -10.27079 -10.26628
 Alpha  occ. eigenvalues --  -10.26561 -10.26508 -10.26342 -10.26209 -10.26198
 Alpha  occ. eigenvalues --  -10.26017 -10.25731 -10.25731 -10.25710 -10.25649
 Alpha  occ. eigenvalues --  -10.25586 -10.25573 -10.25496 -10.25360 -10.25310
 Alpha  occ. eigenvalues --  -10.25148 -10.25128 -10.25117 -10.25090 -10.24966
 Alpha  occ. eigenvalues --  -10.24921 -10.24885 -10.24747 -10.24339 -10.24278
 Alpha  occ. eigenvalues --  -10.23962  -3.17823  -1.92723  -1.92296  -1.92111
 Alpha  occ. eigenvalues --   -1.15844  -1.15445  -1.09434  -1.08338  -1.07857
 Alpha  occ. eigenvalues --   -1.06557  -1.04760  -1.04075  -1.03265  -1.02199
 Alpha  occ. eigenvalues --   -0.91989  -0.90525  -0.89343  -0.89117  -0.88716
 Alpha  occ. eigenvalues --   -0.88511  -0.88079  -0.87171  -0.87043  -0.86939
 Alpha  occ. eigenvalues --   -0.85703  -0.85057  -0.84165  -0.83355  -0.82732
 Alpha  occ. eigenvalues --   -0.82303  -0.81456  -0.80864  -0.80320  -0.79677
 Alpha  occ. eigenvalues --   -0.79588  -0.78345  -0.77713  -0.77345  -0.76247
 Alpha  occ. eigenvalues --   -0.75515  -0.75381  -0.74991  -0.74270  -0.74254
 Alpha  occ. eigenvalues --   -0.73220  -0.72641  -0.71036  -0.70149  -0.69602
 Alpha  occ. eigenvalues --   -0.68732  -0.68199  -0.67232  -0.66626  -0.65560
 Alpha  occ. eigenvalues --   -0.65185  -0.65107  -0.64473  -0.64282  -0.63827
 Alpha  occ. eigenvalues --   -0.63781  -0.63423  -0.62577  -0.60805  -0.60364
 Alpha  occ. eigenvalues --   -0.59341  -0.59182  -0.58934  -0.58385  -0.57625
 Alpha  occ. eigenvalues --   -0.57244  -0.56366  -0.56210  -0.55900  -0.55345
 Alpha  occ. eigenvalues --   -0.55141  -0.54628  -0.54346  -0.53945  -0.53832
 Alpha  occ. eigenvalues --   -0.53444  -0.53097  -0.52952  -0.52558  -0.52513
 Alpha  occ. eigenvalues --   -0.52235  -0.51848  -0.51585  -0.51451  -0.51283
 Alpha  occ. eigenvalues --   -0.51182  -0.51039  -0.50805  -0.50720  -0.50166
 Alpha  occ. eigenvalues --   -0.49946  -0.49868  -0.49859  -0.49546  -0.49418
 Alpha  occ. eigenvalues --   -0.49130  -0.49050  -0.48741  -0.48610  -0.48603
 Alpha  occ. eigenvalues --   -0.48267  -0.48215  -0.47874  -0.47704  -0.47575
 Alpha  occ. eigenvalues --   -0.47492  -0.47075  -0.46972  -0.46821  -0.46453
 Alpha  occ. eigenvalues --   -0.46326  -0.46159  -0.45708  -0.45581  -0.45511
 Alpha  occ. eigenvalues --   -0.45207  -0.45024  -0.45008  -0.44779  -0.44714
 Alpha  occ. eigenvalues --   -0.44542  -0.44431  -0.44404  -0.44242  -0.43841
 Alpha  occ. eigenvalues --   -0.43724  -0.43558  -0.43521  -0.43328  -0.42734
 Alpha  occ. eigenvalues --   -0.42634  -0.42464  -0.42301  -0.42034  -0.41967
 Alpha  occ. eigenvalues --   -0.41952  -0.41744  -0.41225  -0.41029  -0.40702
 Alpha  occ. eigenvalues --   -0.40653  -0.40424  -0.40376  -0.39881  -0.39745
 Alpha  occ. eigenvalues --   -0.39550  -0.39342  -0.39120  -0.38961  -0.38928
 Alpha  occ. eigenvalues --   -0.38743  -0.38101  -0.37959  -0.37744  -0.37489
 Alpha  occ. eigenvalues --   -0.37307  -0.37067  -0.36648  -0.36424  -0.36398
 Alpha  occ. eigenvalues --   -0.35838  -0.35571  -0.34862  -0.34278  -0.34088
 Alpha  occ. eigenvalues --   -0.33677  -0.32879  -0.32798  -0.31001  -0.30481
 Alpha  occ. eigenvalues --   -0.30181  -0.29957  -0.29798  -0.29293  -0.23582
 Alpha  occ. eigenvalues --   -0.21144
 Alpha virt. eigenvalues --   -0.08634  -0.01245   0.00573   0.02632   0.02703
 Alpha virt. eigenvalues --    0.03421   0.03639   0.06115   0.06659   0.06990
 Alpha virt. eigenvalues --    0.08177   0.08620   0.08743   0.08952   0.09444

 Mulliken charges:
               1
     1  Mg   0.841380
     2  C   -0.060842
     3  C   -0.049963
     4  C   -0.023223
     5  C   -0.073493
     6  N   -0.248310
     7  C   -0.032338
     8  C   -0.061222
     9  C   -0.033295
    10  C    0.057548
    11  C    0.068680
    12  C    0.049231
    13  C    0.085126
    14  C    0.174299
    15  O   -0.221309
    16  O   -0.359194
    17  N   -0.419406
    18  C    0.097266
    19  C   -0.117856
    20  C    0.014220
    21  C    0.114843
    22  C    0.096287
    23  C   -0.038296
    24  O   -0.216232
    25  C    0.046308
    26  N   -0.265329
    27  C   -0.012147
    28  C   -0.046485
    29  C    0.003733
    30  C    0.032204
    31  C    0.085359
    32  C    0.007173
    33  C    0.024418
    34  N   -0.293827
    35  C    0.082803
    36  C   -0.151605
    37  C    0.025581
    38  C    0.134959
    39  C    0.125786
    40  C   -0.007005
    41  O   -0.187146
    42  C    0.001278
    43  C    0.213291
    44  O   -0.162215
    45  O   -0.372786
    46  C    0.170190
    47  C    0.274350
    48  C   -0.148651
    49  C   -0.187051
    50  C    0.079799
    51  C    0.089793
    52  C    0.045791
    53  C    0.003769
    54  C   -0.110886
    55  C    0.034424
    56  C    0.051764
    57  C   -0.000611
    58  C    0.044709
    59  C   -0.163999
    60  C    0.025225
    61  C    0.062730
    62  C    0.036080
    63  C    0.053518
    64  C   -0.129170
    65  C    0.039136
    66  C    0.043729
    67  H   -0.033446
    68  H   -0.000425
    69  H   -0.032052
    70  H    0.050559
    71  H    0.012194
    72  H    0.009744
    73  H    0.006320
    74  H    0.026592
    75  H   -0.002514
    76  H    0.005743
    77  H    0.017623
    78  H    0.023614
    79  H    0.026455
    80  H    0.030232
    81  H   -0.009014
    82  H    0.038225
    83  H    0.017859
    84  H    0.037139
    85  H    0.017281
    86  H    0.003000
    87  H    0.031234
    88  H    0.007591
    89  H    0.024073
    90  H    0.005291
    91  H   -0.002164
    92  H    0.005453
    93  H    0.021064
    94  H    0.032995
    95  H    0.003659
    96  H    0.054661
    97  H    0.037760
    98  H    0.047942
    99  H    0.045693
   100  H    0.038235
   101  H    0.026868
   102  H    0.032009
   103  H    0.017271
   104  H    0.002879
   105  H    0.037259
   106  H    0.020908
   107  H    0.033835
   108  H    0.004546
   109  H    0.001224
   110  H   -0.009199
   111  H    0.007494
   112  H    0.000049
   113  H    0.001075
   114  H   -0.001200
   115  H   -0.010842
   116  H    0.005028
   117  H    0.008269
   118  H   -0.007912
   119  H   -0.014638
   120  H    0.004617
   121  H   -0.007526
   122  H   -0.004986
   123  H    0.004692
   124  H    0.001781
   125  H    0.013268
   126  H    0.000300
   127  H    0.012773
   128  H   -0.015643
   129  H   -0.000006
   130  H   -0.002852
   131  H    0.005644
   132  H   -0.016981
   133  H   -0.004063
   134  H   -0.001632
   135  H    0.010559
   136  H    0.000032
   137  H   -0.008015
   138  H    0.000836
   139  H   -0.001671
   140  H    0.012441
 Sum of Mulliken charges =  -0.00000

 Dipole moment (field-independent basis, Debye):
    X=              3.6252    Y=              2.7757    Z=             -2.7961  Tot=              5.3539
 Quadrupole moment (field-independent basis, Debye-Ang):
   XX=           -370.7608   YY=           -437.3872   ZZ=           -400.6869
   XY=            -19.4804   XZ=              9.3884   YZ=              3.3428

 Normal termination of Gaussian 16 at Wed May  4 10:10:24 2022.
