 Gaussian 16, Revision A.03,
 Gaussian 16:  ES64L-G16RevA.03 25-Dec-2016

 ---------------------------------
 #p PBE1PBE/Def2SVP td=(nstates=5)
 ---------------------------------

 -----------------------------------------------------
 step_1601_chromophore_6 TDDFT with PBE1PBE functional
 -----------------------------------------------------
 Symbolic Z-matrix:
 Charge =  0 Multiplicity = 1

                         Standard orientation:
 ---------------------------------------------------------------------
 Center     Atomic      Atomic             Coordinates (Angstroms)
 Number     Number       Type             X           Y           Z
 ---------------------------------------------------------------------
      1         12           0       -5.823690    1.221127   -0.368333
      2          6           0       -4.789676   -2.327402   -0.323529
      3          6           0       -2.487538    1.988089   -0.645173
      4          6           0       -6.817207    4.161760    0.294812
      5          6           0       -9.138977   -0.079572    0.310345
      6          7           0       -3.860453   -0.108694   -0.455769
      7          6           0       -3.724376   -1.446082   -0.475911
      8          6           0       -2.224146   -1.788828   -0.595953
      9          6           0       -1.494272   -0.357319   -0.562257
     10          6           0       -2.671074    0.594339   -0.584747
     11          6           0       -0.491973   -0.154078    0.618759
     12          6           0       -1.885645   -2.553671   -1.956163
     13          6           0       -0.677416   -3.468338   -1.902801
     14          6           0        0.062675   -3.723098   -0.600378
     15          8           0       -0.351796   -4.455857    0.281221
     16          8           0        1.222759   -2.922301   -0.540081
     17          7           0       -4.793160    2.892806   -0.331418
     18          6           0       -3.441085    3.051914   -0.494375
     19          6           0       -3.185923    4.461050   -0.465206
     20          6           0       -4.418282    5.072363   -0.202760
     21          6           0       -5.407254    4.026147   -0.049896
     22          6           0       -1.854359    5.091541   -0.655860
     23          6           0       -4.700410    6.523336   -0.175416
     24          8           0       -5.807146    6.912571    0.177562
     25          6           0       -3.674757    7.587399   -0.549029
     26          7           0       -7.754055    1.912280    0.183428
     27          6           0       -7.829536    3.209215    0.528627
     28          6           0       -9.327329    3.591327    1.032004
     29          6           0      -10.030504    2.219056    0.840679
     30          6           0       -8.922565    1.301787    0.403042
     31          6           0       -9.158592    4.270379    2.372895
     32          6           0      -11.348073    2.256389   -0.099635
     33          6           0      -11.360255    1.325800   -1.334750
     34          7           0       -6.806362   -0.725438   -0.123562
     35          6           0       -8.157818   -1.054654    0.053547
     36          6           0       -8.383974   -2.513897    0.064898
     37          6           0       -7.043729   -2.995277   -0.043938
     38          6           0       -6.148015   -1.875810   -0.167966
     39          6           0       -9.720967   -3.290636    0.460867
     40          6           0       -6.323542   -4.178456    0.067241
     41          8           0       -6.707439   -5.330062    0.339757
     42          6           0       -4.766722   -3.839493   -0.148722
     43          6           0       -4.045620   -4.183373    1.074190
     44          8           0       -3.822319   -3.590344    2.062341
     45          8           0       -3.728523   -5.534957    0.852741
     46          6           0       -2.772125   -6.100313    1.850590
     47          6           0        1.866926   -3.000857    0.816525
     48          6           0        3.282769   -2.499729    0.935331
     49          6           0        4.369896   -2.931787    0.152196
     50          6           0        4.298452   -4.062728   -0.928554
     51          6           0        5.716598   -2.426508    0.549617
     52          6           0        6.283042   -1.297818   -0.293362
     53          6           0        7.656607   -1.622574   -0.929824
     54          6           0        8.670313   -0.422826   -0.791953
     55          6           0        8.276819    0.735395   -1.724001
     56          6           0       10.089895   -0.921126   -1.096128
     57          6           0       11.248891   -0.266683   -0.245628
     58          6           0       12.701131   -0.539117   -0.851867
     59          6           0       13.521114    0.871272   -0.941862
     60          6           0       13.249297    1.647528   -2.273234
     61          6           0       15.032827    0.606334   -0.563197
     62          6           0       15.337236    1.035188    0.883169
     63          6           0       16.838259    1.148413    1.167557
     64          6           0       17.299366    2.505039    1.803662
     65          6           0       17.953050    2.264759    3.179058
     66          6           0       18.239825    3.306588    0.921100
     67          1           0       -1.473594    2.391666   -0.685385
     68          1           0       -7.177376    5.159901    0.550004
     69          1           0      -10.120921   -0.527914    0.473330
     70          1           0       -2.030487   -2.436448    0.259673
     71          1           0       -0.875842   -0.305382   -1.458104
     72          1           0        0.512503    0.040384    0.240207
     73          1           0       -0.330426   -1.100462    1.135423
     74          1           0       -0.806363    0.627399    1.310491
     75          1           0       -1.642528   -1.857170   -2.758036
     76          1           0       -2.667793   -3.094607   -2.488953
     77          1           0        0.089360   -3.184557   -2.623150
     78          1           0       -1.134591   -4.358510   -2.336419
     79          1           0       -1.356480    5.445872    0.246013
     80          1           0       -1.830571    5.865614   -1.423581
     81          1           0       -1.064406    4.394440   -0.934869
     82          1           0       -2.734142    7.554462    0.000598
     83          1           0       -4.194103    8.515727   -0.308323
     84          1           0       -3.532830    7.631075   -1.628620
     85          1           0       -9.817241    4.232101    0.298544
     86          1           0      -10.408972    1.869691    1.801239
     87          1           0       -8.138702    4.457518    2.709638
     88          1           0       -9.558807    3.626467    3.155392
     89          1           0       -9.592679    5.262459    2.252702
     90          1           0      -11.579480    3.290633   -0.353939
     91          1           0      -12.165631    2.012941    0.579056
     92          1           0      -12.165327    1.682922   -1.975801
     93          1           0      -11.660072    0.293293   -1.153575
     94          1           0      -10.443070    1.464042   -1.908145
     95          1           0      -10.305498   -2.505333    0.940888
     96          1           0       -9.627444   -4.089230    1.196173
     97          1           0      -10.215107   -3.565649   -0.470598
     98          1           0       -4.457527   -4.380679   -1.042943
     99          1           0       -2.456025   -5.384471    2.610140
    100          1           0       -1.905391   -6.551071    1.366238
    101          1           0       -3.366881   -6.898470    2.292788
    102          1           0        1.892907   -4.030581    1.171104
    103          1           0        1.280391   -2.513726    1.595250
    104          1           0        3.455356   -1.726635    1.683912
    105          1           0        4.248260   -5.010925   -0.393903
    106          1           0        5.163348   -4.016786   -1.590947
    107          1           0        3.361224   -3.906400   -1.463013
    108          1           0        6.318285   -3.335729    0.539365
    109          1           0        5.657671   -2.080459    1.581347
    110          1           0        6.579732   -0.476977    0.359361
    111          1           0        5.666614   -0.863214   -1.080422
    112          1           0        7.404909   -1.752896   -1.982121
    113          1           0        8.051007   -2.535226   -0.481916
    114          1           0        8.641762   -0.018372    0.219303
    115          1           0        7.679600    0.325363   -2.539215
    116          1           0        9.107346    1.216543   -2.240641
    117          1           0        7.667808    1.590875   -1.430122
    118          1           0       10.250604   -0.845649   -2.171138
    119          1           0       10.157668   -1.992298   -0.909346
    120          1           0       11.290378   -0.440219    0.829766
    121          1           0       10.978563    0.788150   -0.298438
    122          1           0       12.647810   -0.929528   -1.867901
    123          1           0       13.156850   -1.329182   -0.254876
    124          1           0       13.039430    1.586253   -0.274870
    125          1           0       12.249285    2.059318   -2.412787
    126          1           0       13.418340    0.914215   -3.062266
    127          1           0       13.937649    2.479576   -2.425718
    128          1           0       15.477541    1.155291   -1.393959
    129          1           0       15.185596   -0.458676   -0.739435
    130          1           0       14.983179    0.217679    1.510599
    131          1           0       14.844591    1.970036    1.150977
    132          1           0       17.301192    1.149083    0.180435
    133          1           0       17.281452    0.273230    1.642987
    134          1           0       16.391525    3.093158    1.942288
    135          1           0       17.941052    1.231276    3.527276
    136          1           0       17.531066    2.982391    3.882160
    137          1           0       18.994400    2.569379    3.289475
    138          1           0       17.685336    3.561844    0.018163
    139          1           0       19.062976    2.697230    0.549387
    140          1           0       18.762442    4.159192    1.354851
 ---------------------------------------------------------------------

 SCF Done:  E(RPBE1PBE) =  -3005.34050495     A.U. after   15 cycles

 Excitation energies and oscillator strengths:

 Excited State   1:      Singlet-A      1.8793 eV  659.74 nm  f=0.3726  <S**2>=0.000
     245 -> 248        0.17487
     246 -> 247        0.69118
     246 <- 247       -0.10412
 This state for optimization and/or second-order correction.
 Total Energy, E(TD-HF/TD-DFT) =  -3005.27144196
 Copying the excited state density for this state as the 1-particle RhoCI density.

 Excited State   2:      Singlet-A      2.2185 eV  558.87 nm  f=0.1492  <S**2>=0.000
     245 -> 247        0.66226
     246 -> 248       -0.23641

 Excited State   3:      Singlet-A      2.7271 eV  454.64 nm  f=0.0001  <S**2>=0.000
     243 -> 247        0.67513
     243 -> 249       -0.17066

 Excited State   4:      Singlet-A      3.0229 eV  410.15 nm  f=0.0004  <S**2>=0.000
     242 -> 247        0.66899
     242 -> 249        0.11943
     242 -> 250        0.10023

 Excited State   5:      Singlet-A      3.1606 eV  392.28 nm  f=0.0006  <S**2>=0.000
     241 -> 247        0.68922
     242 -> 247       -0.10685

 The electronic state is 1-A.
 Alpha  occ. eigenvalues --  -46.92716 -19.26737 -19.22401 -19.21417 -19.19677
 Alpha  occ. eigenvalues --  -19.18263 -19.18216 -14.41411 -14.41138 -14.39200
 Alpha  occ. eigenvalues --  -14.39038 -10.37377 -10.34539 -10.31360 -10.31070
 Alpha  occ. eigenvalues --  -10.29362 -10.28618 -10.28456 -10.28322 -10.28267
 Alpha  occ. eigenvalues --  -10.27873 -10.27721 -10.27438 -10.26754 -10.26720
 Alpha  occ. eigenvalues --  -10.26121 -10.26077 -10.25855 -10.25640 -10.25490
 Alpha  occ. eigenvalues --  -10.25305 -10.25301 -10.25291 -10.25199 -10.25039
 Alpha  occ. eigenvalues --  -10.24959 -10.24773 -10.24698 -10.24528 -10.24171
 Alpha  occ. eigenvalues --  -10.24119 -10.23963 -10.23960 -10.23934 -10.23900
 Alpha  occ. eigenvalues --  -10.23782 -10.23535 -10.23380 -10.23290 -10.23133
 Alpha  occ. eigenvalues --  -10.23116 -10.23086 -10.22935 -10.22932 -10.22818
 Alpha  occ. eigenvalues --  -10.22723 -10.22691 -10.22677 -10.22643 -10.22540
 Alpha  occ. eigenvalues --  -10.22498 -10.22301 -10.22167 -10.21906 -10.21651
 Alpha  occ. eigenvalues --  -10.21353  -3.14804  -1.87645  -1.87195  -1.87016
 Alpha  occ. eigenvalues --   -1.10577  -1.10084  -1.04276  -1.03171  -1.02474
 Alpha  occ. eigenvalues --   -1.01335  -0.99468  -0.98822  -0.97846  -0.96822
 Alpha  occ. eigenvalues --   -0.86263  -0.84655  -0.83497  -0.83216  -0.83016
 Alpha  occ. eigenvalues --   -0.82645  -0.82429  -0.81502  -0.81411  -0.81040
 Alpha  occ. eigenvalues --   -0.79969  -0.79308  -0.78366  -0.77571  -0.76972
 Alpha  occ. eigenvalues --   -0.76540  -0.75730  -0.75060  -0.74533  -0.73933
 Alpha  occ. eigenvalues --   -0.73826  -0.72698  -0.71945  -0.71630  -0.70416
 Alpha  occ. eigenvalues --   -0.69880  -0.69465  -0.69133  -0.68536  -0.68436
 Alpha  occ. eigenvalues --   -0.67626  -0.66993  -0.65481  -0.64442  -0.63891
 Alpha  occ. eigenvalues --   -0.63162  -0.62455  -0.61767  -0.60866  -0.60069
 Alpha  occ. eigenvalues --   -0.59680  -0.59323  -0.59033  -0.58425  -0.58345
 Alpha  occ. eigenvalues --   -0.57944  -0.57922  -0.56805  -0.55485  -0.54851
 Alpha  occ. eigenvalues --   -0.53838  -0.53688  -0.53432  -0.52992  -0.51938
 Alpha  occ. eigenvalues --   -0.51898  -0.50896  -0.50605  -0.50440  -0.49798
 Alpha  occ. eigenvalues --   -0.49661  -0.49169  -0.48835  -0.48373  -0.48212
 Alpha  occ. eigenvalues --   -0.47954  -0.47594  -0.47463  -0.47133  -0.47037
 Alpha  occ. eigenvalues --   -0.46675  -0.46406  -0.46133  -0.45972  -0.45833
 Alpha  occ. eigenvalues --   -0.45656  -0.45581  -0.45401  -0.45162  -0.44721
 Alpha  occ. eigenvalues --   -0.44523  -0.44391  -0.44375  -0.44174  -0.43993
 Alpha  occ. eigenvalues --   -0.43739  -0.43571  -0.43379  -0.43262  -0.43160
 Alpha  occ. eigenvalues --   -0.42973  -0.42826  -0.42571  -0.42310  -0.42259
 Alpha  occ. eigenvalues --   -0.42100  -0.41715  -0.41618  -0.41507  -0.41131
 Alpha  occ. eigenvalues --   -0.41008  -0.40916  -0.40477  -0.40340  -0.40239
 Alpha  occ. eigenvalues --   -0.39883  -0.39707  -0.39699  -0.39491  -0.39430
 Alpha  occ. eigenvalues --   -0.39232  -0.39146  -0.39102  -0.38956  -0.38624
 Alpha  occ. eigenvalues --   -0.38555  -0.38325  -0.38220  -0.38109  -0.37549
 Alpha  occ. eigenvalues --   -0.37382  -0.37242  -0.37089  -0.36853  -0.36786
 Alpha  occ. eigenvalues --   -0.36745  -0.36640  -0.35992  -0.35934  -0.35528
 Alpha  occ. eigenvalues --   -0.35482  -0.35237  -0.35189  -0.34843  -0.34650
 Alpha  occ. eigenvalues --   -0.34339  -0.34203  -0.33974  -0.33900  -0.33728
 Alpha  occ. eigenvalues --   -0.33530  -0.32872  -0.32871  -0.32569  -0.32390
 Alpha  occ. eigenvalues --   -0.32324  -0.31874  -0.31563  -0.31528  -0.31191
 Alpha  occ. eigenvalues --   -0.30919  -0.30418  -0.29642  -0.29054  -0.28974
 Alpha  occ. eigenvalues --   -0.28853  -0.28430  -0.27862  -0.26723  -0.25835
 Alpha  occ. eigenvalues --   -0.25517  -0.25217  -0.24724  -0.24660  -0.20590
 Alpha  occ. eigenvalues --   -0.18768
 Alpha virt. eigenvalues --   -0.11066  -0.04805  -0.03584  -0.01746  -0.01099
 Alpha virt. eigenvalues --   -0.00877  -0.00063   0.01925   0.02367   0.03461
 Alpha virt. eigenvalues --    0.04153   0.05141   0.05387   0.05571   0.05742

 Mulliken charges:
               1
     1  Mg   0.985630
     2  C   -0.067938
     3  C   -0.042335
     4  C   -0.014209
     5  C   -0.059745
     6  N   -0.352211
     7  C    0.052312
     8  C   -0.141663
     9  C   -0.102780
    10  C    0.091113
    11  C    0.007714
    12  C    0.004161
    13  C    0.018094
    14  C    0.227997
    15  O   -0.252610
    16  O   -0.385508
    17  N   -0.548859
    18  C    0.129071
    19  C   -0.151295
    20  C   -0.049757
    21  C    0.157092
    22  C    0.043059
    23  C    0.016923
    24  O   -0.251356
    25  C   -0.026547
    26  N   -0.374063
    27  C    0.015707
    28  C   -0.118761
    29  C   -0.056130
    30  C    0.061752
    31  C    0.026449
    32  C   -0.049621
    33  C   -0.055436
    34  N   -0.418360
    35  C    0.087451
    36  C   -0.136130
    37  C   -0.034728
    38  C    0.191570
    39  C    0.067029
    40  C    0.080342
    41  O   -0.232056
    42  C   -0.107178
    43  C    0.302102
    44  O   -0.200387
    45  O   -0.402279
    46  C    0.116366
    47  C    0.226358
    48  C   -0.160912
    49  C   -0.215767
    50  C    0.011319
    51  C    0.019136
    52  C   -0.013765
    53  C   -0.049727
    54  C   -0.203782
    55  C   -0.020560
    56  C    0.000465
    57  C   -0.064012
    58  C   -0.007292
    59  C   -0.240751
    60  C   -0.036664
    61  C    0.001691
    62  C   -0.031246
    63  C    0.002969
    64  C   -0.224309
    65  C   -0.017891
    66  C   -0.020694
    67  H   -0.000002
    68  H    0.031934
    69  H   -0.000674
    70  H    0.091937
    71  H    0.048837
    72  H    0.037441
    73  H    0.037841
    74  H    0.053956
    75  H    0.029077
    76  H    0.036672
    77  H    0.048504
    78  H    0.055856
    79  H    0.054419
    80  H    0.057920
    81  H    0.019457
    82  H    0.063967
    83  H    0.046373
    84  H    0.064258
    85  H    0.053950
    86  H    0.040778
    87  H    0.058655
    88  H    0.036136
    89  H    0.050935
    90  H    0.035682
    91  H    0.030572
    92  H    0.035189
    93  H    0.048265
    94  H    0.062995
    95  H    0.030301
    96  H    0.079749
    97  H    0.064926
    98  H    0.083308
    99  H    0.066077
   100  H    0.060076
   101  H    0.049616
   102  H    0.059621
   103  H    0.043940
   104  H    0.032076
   105  H    0.065021
   106  H    0.048693
   107  H    0.063150
   108  H    0.037340
   109  H    0.033098
   110  H    0.025415
   111  H    0.038412
   112  H    0.033431
   113  H    0.032545
   114  H    0.036038
   115  H    0.016743
   116  H    0.032518
   117  H    0.035277
   118  H    0.023952
   119  H    0.019297
   120  H    0.036229
   121  H    0.026491
   122  H    0.026862
   123  H    0.035889
   124  H    0.039110
   125  H    0.040757
   126  H    0.028309
   127  H    0.040400
   128  H    0.017682
   129  H    0.032984
   130  H    0.031646
   131  H    0.036422
   132  H    0.017875
   133  H    0.026626
   134  H    0.035973
   135  H    0.036860
   136  H    0.027747
   137  H    0.019204
   138  H    0.030102
   139  H    0.026671
   140  H    0.040056
 Sum of Mulliken charges =  -0.00000

 Dipole moment (field-independent basis, Debye):
    X=              3.7958    Y=              3.0900    Z=             -2.8166  Tot=              5.6471
 Quadrupole moment (field-independent basis, Debye-Ang):
   XX=           -366.5023   YY=           -434.0496   ZZ=           -398.1748
   XY=            -21.4702   XZ=              8.8165   YZ=              3.5002

 Normal termination of Gaussian 16 at Wed May  4 10:28:33 2022.
