 Gaussian 16, Revision A.03,
 Gaussian 16:  ES64L-G16RevA.03 25-Dec-2016

 --------------------------------
 #p wB97XD/Def2SVP td=(nstates=5)
 --------------------------------

 ----------------------------------------------------
 step_1601_chromophore_6 TDDFT with wB97XD functional
 ----------------------------------------------------
 Symbolic Z-matrix:
 Charge =  0 Multiplicity = 1

                         Standard orientation:
 ---------------------------------------------------------------------
 Center     Atomic      Atomic             Coordinates (Angstroms)
 Number     Number       Type             X           Y           Z
 ---------------------------------------------------------------------
      1         12           0       -5.823690    1.221127   -0.368333
      2          6           0       -4.789676   -2.327402   -0.323529
      3          6           0       -2.487538    1.988089   -0.645173
      4          6           0       -6.817207    4.161760    0.294812
      5          6           0       -9.138977   -0.079572    0.310345
      6          7           0       -3.860453   -0.108694   -0.455769
      7          6           0       -3.724376   -1.446082   -0.475911
      8          6           0       -2.224146   -1.788828   -0.595953
      9          6           0       -1.494272   -0.357319   -0.562257
     10          6           0       -2.671074    0.594339   -0.584747
     11          6           0       -0.491973   -0.154078    0.618759
     12          6           0       -1.885645   -2.553671   -1.956163
     13          6           0       -0.677416   -3.468338   -1.902801
     14          6           0        0.062675   -3.723098   -0.600378
     15          8           0       -0.351796   -4.455857    0.281221
     16          8           0        1.222759   -2.922301   -0.540081
     17          7           0       -4.793160    2.892806   -0.331418
     18          6           0       -3.441085    3.051914   -0.494375
     19          6           0       -3.185923    4.461050   -0.465206
     20          6           0       -4.418282    5.072363   -0.202760
     21          6           0       -5.407254    4.026147   -0.049896
     22          6           0       -1.854359    5.091541   -0.655860
     23          6           0       -4.700410    6.523336   -0.175416
     24          8           0       -5.807146    6.912571    0.177562
     25          6           0       -3.674757    7.587399   -0.549029
     26          7           0       -7.754055    1.912280    0.183428
     27          6           0       -7.829536    3.209215    0.528627
     28          6           0       -9.327329    3.591327    1.032004
     29          6           0      -10.030504    2.219056    0.840679
     30          6           0       -8.922565    1.301787    0.403042
     31          6           0       -9.158592    4.270379    2.372895
     32          6           0      -11.348073    2.256389   -0.099635
     33          6           0      -11.360255    1.325800   -1.334750
     34          7           0       -6.806362   -0.725438   -0.123562
     35          6           0       -8.157818   -1.054654    0.053547
     36          6           0       -8.383974   -2.513897    0.064898
     37          6           0       -7.043729   -2.995277   -0.043938
     38          6           0       -6.148015   -1.875810   -0.167966
     39          6           0       -9.720967   -3.290636    0.460867
     40          6           0       -6.323542   -4.178456    0.067241
     41          8           0       -6.707439   -5.330062    0.339757
     42          6           0       -4.766722   -3.839493   -0.148722
     43          6           0       -4.045620   -4.183373    1.074190
     44          8           0       -3.822319   -3.590344    2.062341
     45          8           0       -3.728523   -5.534957    0.852741
     46          6           0       -2.772125   -6.100313    1.850590
     47          6           0        1.866926   -3.000857    0.816525
     48          6           0        3.282769   -2.499729    0.935331
     49          6           0        4.369896   -2.931787    0.152196
     50          6           0        4.298452   -4.062728   -0.928554
     51          6           0        5.716598   -2.426508    0.549617
     52          6           0        6.283042   -1.297818   -0.293362
     53          6           0        7.656607   -1.622574   -0.929824
     54          6           0        8.670313   -0.422826   -0.791953
     55          6           0        8.276819    0.735395   -1.724001
     56          6           0       10.089895   -0.921126   -1.096128
     57          6           0       11.248891   -0.266683   -0.245628
     58          6           0       12.701131   -0.539117   -0.851867
     59          6           0       13.521114    0.871272   -0.941862
     60          6           0       13.249297    1.647528   -2.273234
     61          6           0       15.032827    0.606334   -0.563197
     62          6           0       15.337236    1.035188    0.883169
     63          6           0       16.838259    1.148413    1.167557
     64          6           0       17.299366    2.505039    1.803662
     65          6           0       17.953050    2.264759    3.179058
     66          6           0       18.239825    3.306588    0.921100
     67          1           0       -1.473594    2.391666   -0.685385
     68          1           0       -7.177376    5.159901    0.550004
     69          1           0      -10.120921   -0.527914    0.473330
     70          1           0       -2.030487   -2.436448    0.259673
     71          1           0       -0.875842   -0.305382   -1.458104
     72          1           0        0.512503    0.040384    0.240207
     73          1           0       -0.330426   -1.100462    1.135423
     74          1           0       -0.806363    0.627399    1.310491
     75          1           0       -1.642528   -1.857170   -2.758036
     76          1           0       -2.667793   -3.094607   -2.488953
     77          1           0        0.089360   -3.184557   -2.623150
     78          1           0       -1.134591   -4.358510   -2.336419
     79          1           0       -1.356480    5.445872    0.246013
     80          1           0       -1.830571    5.865614   -1.423581
     81          1           0       -1.064406    4.394440   -0.934869
     82          1           0       -2.734142    7.554462    0.000598
     83          1           0       -4.194103    8.515727   -0.308323
     84          1           0       -3.532830    7.631075   -1.628620
     85          1           0       -9.817241    4.232101    0.298544
     86          1           0      -10.408972    1.869691    1.801239
     87          1           0       -8.138702    4.457518    2.709638
     88          1           0       -9.558807    3.626467    3.155392
     89          1           0       -9.592679    5.262459    2.252702
     90          1           0      -11.579480    3.290633   -0.353939
     91          1           0      -12.165631    2.012941    0.579056
     92          1           0      -12.165327    1.682922   -1.975801
     93          1           0      -11.660072    0.293293   -1.153575
     94          1           0      -10.443070    1.464042   -1.908145
     95          1           0      -10.305498   -2.505333    0.940888
     96          1           0       -9.627444   -4.089230    1.196173
     97          1           0      -10.215107   -3.565649   -0.470598
     98          1           0       -4.457527   -4.380679   -1.042943
     99          1           0       -2.456025   -5.384471    2.610140
    100          1           0       -1.905391   -6.551071    1.366238
    101          1           0       -3.366881   -6.898470    2.292788
    102          1           0        1.892907   -4.030581    1.171104
    103          1           0        1.280391   -2.513726    1.595250
    104          1           0        3.455356   -1.726635    1.683912
    105          1           0        4.248260   -5.010925   -0.393903
    106          1           0        5.163348   -4.016786   -1.590947
    107          1           0        3.361224   -3.906400   -1.463013
    108          1           0        6.318285   -3.335729    0.539365
    109          1           0        5.657671   -2.080459    1.581347
    110          1           0        6.579732   -0.476977    0.359361
    111          1           0        5.666614   -0.863214   -1.080422
    112          1           0        7.404909   -1.752896   -1.982121
    113          1           0        8.051007   -2.535226   -0.481916
    114          1           0        8.641762   -0.018372    0.219303
    115          1           0        7.679600    0.325363   -2.539215
    116          1           0        9.107346    1.216543   -2.240641
    117          1           0        7.667808    1.590875   -1.430122
    118          1           0       10.250604   -0.845649   -2.171138
    119          1           0       10.157668   -1.992298   -0.909346
    120          1           0       11.290378   -0.440219    0.829766
    121          1           0       10.978563    0.788150   -0.298438
    122          1           0       12.647810   -0.929528   -1.867901
    123          1           0       13.156850   -1.329182   -0.254876
    124          1           0       13.039430    1.586253   -0.274870
    125          1           0       12.249285    2.059318   -2.412787
    126          1           0       13.418340    0.914215   -3.062266
    127          1           0       13.937649    2.479576   -2.425718
    128          1           0       15.477541    1.155291   -1.393959
    129          1           0       15.185596   -0.458676   -0.739435
    130          1           0       14.983179    0.217679    1.510599
    131          1           0       14.844591    1.970036    1.150977
    132          1           0       17.301192    1.149083    0.180435
    133          1           0       17.281452    0.273230    1.642987
    134          1           0       16.391525    3.093158    1.942288
    135          1           0       17.941052    1.231276    3.527276
    136          1           0       17.531066    2.982391    3.882160
    137          1           0       18.994400    2.569379    3.289475
    138          1           0       17.685336    3.561844    0.018163
    139          1           0       19.062976    2.697230    0.549387
    140          1           0       18.762442    4.159192    1.354851
 ---------------------------------------------------------------------

 SCF Done:  E(RwB97XD) =  -3007.84809849     A.U. after   19 cycles

 Excitation energies and oscillator strengths:

 Excited State   1:      Singlet-A      1.6677 eV  743.45 nm  f=0.3867  <S**2>=0.000
     245 -> 248        0.18890
     246 -> 247        0.68232
     245 <- 248        0.11789
 This state for optimization and/or second-order correction.
 Total Energy, E(TD-HF/TD-DFT) =  -3007.78681226
 Copying the excited state density for this state as the 1-particle RhoCI density.

 Excited State   2:      Singlet-A      2.1527 eV  575.95 nm  f=0.1514  <S**2>=0.000
     245 -> 247        0.65113
     246 -> 248       -0.26494

 Excited State   3:      Singlet-A      3.1920 eV  388.42 nm  f=0.0002  <S**2>=0.000
     242 -> 247        0.47085
     242 -> 249       -0.26266
     242 -> 250        0.12373
     243 -> 247        0.34925
     243 -> 249       -0.18645

 Excited State   4:      Singlet-A      3.4814 eV  356.14 nm  f=0.0028  <S**2>=0.000
     240 -> 247       -0.26899
     241 -> 247        0.38274
     242 -> 247       -0.22147
     243 -> 247        0.43998
     246 -> 248        0.11536

 Excited State   5:      Singlet-A      3.6223 eV  342.28 nm  f=0.2979  <S**2>=0.000
     240 -> 247       -0.10614
     241 -> 247        0.22874
     241 -> 250        0.10632
     242 -> 247        0.24241
     243 -> 247       -0.25997
     245 -> 247        0.17283
     246 -> 248        0.47576

 The electronic state is 1-A.
 Alpha  occ. eigenvalues --  -46.95629 -19.31276 -19.27027 -19.26091 -19.24514
 Alpha  occ. eigenvalues --  -19.23212 -19.22880 -14.46523 -14.46158 -14.44077
 Alpha  occ. eigenvalues --  -14.44035 -10.44168 -10.41490 -10.38121 -10.38021
 Alpha  occ. eigenvalues --  -10.35873 -10.34762 -10.34745 -10.34704 -10.34597
 Alpha  occ. eigenvalues --  -10.34267 -10.33994 -10.33493 -10.33488 -10.33249
 Alpha  occ. eigenvalues --  -10.32679 -10.32343 -10.32194 -10.31831 -10.31682
 Alpha  occ. eigenvalues --  -10.31661 -10.31539 -10.31520 -10.31502 -10.31487
 Alpha  occ. eigenvalues --  -10.31333 -10.31189 -10.31171 -10.31031 -10.30627
 Alpha  occ. eigenvalues --  -10.30520 -10.30349 -10.30322 -10.30271 -10.30205
 Alpha  occ. eigenvalues --  -10.30023 -10.29665 -10.29656 -10.29654 -10.29584
 Alpha  occ. eigenvalues --  -10.29455 -10.29438 -10.29403 -10.29297 -10.29200
 Alpha  occ. eigenvalues --  -10.29146 -10.29068 -10.29056 -10.29049 -10.28895
 Alpha  occ. eigenvalues --  -10.28866 -10.28718 -10.28586 -10.28251 -10.28089
 Alpha  occ. eigenvalues --  -10.27768  -3.21595  -1.95183  -1.94733  -1.94545
 Alpha  occ. eigenvalues --   -1.17960  -1.17578  -1.11582  -1.10512  -1.10145
 Alpha  occ. eigenvalues --   -1.08787  -1.06756  -1.06086  -1.05312  -1.04226
 Alpha  occ. eigenvalues --   -0.94003  -0.92323  -0.91155  -0.90878  -0.90601
 Alpha  occ. eigenvalues --   -0.90308  -0.89962  -0.89086  -0.88965  -0.88707
 Alpha  occ. eigenvalues --   -0.87686  -0.86927  -0.86010  -0.85245  -0.84610
 Alpha  occ. eigenvalues --   -0.84179  -0.83370  -0.82718  -0.82220  -0.81566
 Alpha  occ. eigenvalues --   -0.81492  -0.80269  -0.79623  -0.79237  -0.78092
 Alpha  occ. eigenvalues --   -0.77451  -0.77156  -0.76807  -0.76214  -0.76092
 Alpha  occ. eigenvalues --   -0.75202  -0.74590  -0.73009  -0.72056  -0.71518
 Alpha  occ. eigenvalues --   -0.70720  -0.70082  -0.69204  -0.68491  -0.67519
 Alpha  occ. eigenvalues --   -0.67126  -0.66961  -0.66469  -0.66096  -0.65826
 Alpha  occ. eigenvalues --   -0.65584  -0.65393  -0.64421  -0.62773  -0.62369
 Alpha  occ. eigenvalues --   -0.61316  -0.61133  -0.60906  -0.60389  -0.59562
 Alpha  occ. eigenvalues --   -0.59233  -0.58299  -0.58073  -0.57856  -0.57281
 Alpha  occ. eigenvalues --   -0.57057  -0.56569  -0.56298  -0.55812  -0.55669
 Alpha  occ. eigenvalues --   -0.55354  -0.55002  -0.54868  -0.54445  -0.54440
 Alpha  occ. eigenvalues --   -0.54122  -0.53737  -0.53475  -0.53318  -0.53215
 Alpha  occ. eigenvalues --   -0.53059  -0.52939  -0.52728  -0.52670  -0.52067
 Alpha  occ. eigenvalues --   -0.51871  -0.51786  -0.51719  -0.51453  -0.51317
 Alpha  occ. eigenvalues --   -0.51052  -0.50910  -0.50636  -0.50529  -0.50516
 Alpha  occ. eigenvalues --   -0.50187  -0.50094  -0.49827  -0.49624  -0.49480
 Alpha  occ. eigenvalues --   -0.49370  -0.49009  -0.48891  -0.48723  -0.48380
 Alpha  occ. eigenvalues --   -0.48203  -0.48039  -0.47606  -0.47500  -0.47405
 Alpha  occ. eigenvalues --   -0.47071  -0.46966  -0.46869  -0.46708  -0.46618
 Alpha  occ. eigenvalues --   -0.46379  -0.46369  -0.46340  -0.46158  -0.45748
 Alpha  occ. eigenvalues --   -0.45634  -0.45483  -0.45384  -0.45265  -0.44699
 Alpha  occ. eigenvalues --   -0.44602  -0.44347  -0.44233  -0.43955  -0.43893
 Alpha  occ. eigenvalues --   -0.43845  -0.43694  -0.43080  -0.42958  -0.42626
 Alpha  occ. eigenvalues --   -0.42531  -0.42355  -0.42240  -0.41788  -0.41642
 Alpha  occ. eigenvalues --   -0.41392  -0.41264  -0.40977  -0.40828  -0.40792
 Alpha  occ. eigenvalues --   -0.40583  -0.39931  -0.39869  -0.39601  -0.39404
 Alpha  occ. eigenvalues --   -0.39228  -0.38929  -0.38594  -0.38503  -0.38227
 Alpha  occ. eigenvalues --   -0.37759  -0.37402  -0.36752  -0.36248  -0.36072
 Alpha  occ. eigenvalues --   -0.35692  -0.35134  -0.34647  -0.33219  -0.32464
 Alpha  occ. eigenvalues --   -0.32300  -0.31997  -0.31937  -0.31346  -0.25495
 Alpha  occ. eigenvalues --   -0.22951
 Alpha virt. eigenvalues --   -0.07002   0.00674   0.02622   0.04794   0.05650
 Alpha virt. eigenvalues --    0.05798   0.05943   0.08639   0.09038   0.09597
 Alpha virt. eigenvalues --    0.10926   0.11931   0.12167   0.12314   0.12481

 Mulliken charges:
               1
     1  Mg   0.977841
     2  C   -0.071863
     3  C   -0.057078
     4  C   -0.032782
     5  C   -0.078857
     6  N   -0.316143
     7  C    0.017521
     8  C   -0.106839
     9  C   -0.079000
    10  C    0.076292
    11  C    0.025275
    12  C    0.011519
    13  C    0.030341
    14  C    0.217931
    15  O   -0.249810
    16  O   -0.383904
    17  N   -0.512074
    18  C    0.115808
    19  C   -0.139589
    20  C   -0.037579
    21  C    0.141195
    22  C    0.051814
    23  C    0.009749
    24  O   -0.248018
    25  C   -0.016039
    26  N   -0.339079
    27  C    0.008179
    28  C   -0.093711
    29  C   -0.043009
    30  C    0.055941
    31  C    0.036004
    32  C   -0.038249
    33  C   -0.034750
    34  N   -0.380982
    35  C    0.089814
    36  C   -0.146489
    37  C   -0.026365
    38  C    0.172859
    39  C    0.083117
    40  C    0.064177
    41  O   -0.220872
    42  C   -0.068777
    43  C    0.280948
    44  O   -0.193979
    45  O   -0.402399
    46  C    0.130949
    47  C    0.241554
    48  C   -0.168576
    49  C   -0.209547
    50  C    0.029287
    51  C    0.041171
    52  C   -0.000747
    53  C   -0.032461
    54  C   -0.170812
    55  C   -0.012140
    56  C    0.014538
    57  C   -0.043710
    58  C    0.003749
    59  C   -0.212405
    60  C   -0.023202
    61  C    0.019244
    62  C   -0.012327
    63  C    0.015994
    64  C   -0.193673
    65  C   -0.008200
    66  C   -0.006984
    67  H   -0.008576
    68  H    0.027123
    69  H   -0.010396
    70  H    0.072273
    71  H    0.038081
    72  H    0.032110
    73  H    0.021898
    74  H    0.049017
    75  H    0.022021
    76  H    0.029623
    77  H    0.043639
    78  H    0.050820
    79  H    0.049252
    80  H    0.051483
    81  H    0.014214
    82  H    0.059351
    83  H    0.043955
    84  H    0.059931
    85  H    0.043119
    86  H    0.030655
    87  H    0.052142
    88  H    0.030174
    89  H    0.046185
    90  H    0.028958
    91  H    0.023854
    92  H    0.029837
    93  H    0.041853
    94  H    0.053989
    95  H    0.024113
    96  H    0.078054
    97  H    0.061199
    98  H    0.078093
    99  H    0.062845
   100  H    0.057332
   101  H    0.045890
   102  H    0.053526
   103  H    0.039406
   104  H    0.028863
   105  H    0.059529
   106  H    0.043120
   107  H    0.055135
   108  H    0.027930
   109  H    0.026965
   110  H    0.014748
   111  H    0.031746
   112  H    0.022796
   113  H    0.022265
   114  H    0.023581
   115  H    0.008685
   116  H    0.026006
   117  H    0.030867
   118  H    0.014088
   119  H    0.009899
   120  H    0.030173
   121  H    0.011691
   122  H    0.016909
   123  H    0.028693
   124  H    0.024110
   125  H    0.035209
   126  H    0.020259
   127  H    0.034554
   128  H    0.007285
   129  H    0.024630
   130  H    0.023293
   131  H    0.026711
   132  H    0.004921
   133  H    0.020278
   134  H    0.024450
   135  H    0.031230
   136  H    0.022123
   137  H    0.013044
   138  H    0.022920
   139  H    0.019243
   140  H    0.035210
 Sum of Mulliken charges =  -0.00000

 Dipole moment (field-independent basis, Debye):
    X=              3.6228    Y=              2.7153    Z=             -2.8373  Tot=              5.3430
 Quadrupole moment (field-independent basis, Debye-Ang):
   XX=           -364.4612   YY=           -433.1638   ZZ=           -397.7879
   XY=            -18.7989   XZ=              9.1569   YZ=              3.3355

 Normal termination of Gaussian 16 at Wed May  4 10:57:53 2022.
