 Gaussian 16, Revision A.03,
 Gaussian 16:  ES64L-G16RevA.03 25-Dec-2016

 --------------------
 #p ZINDO=(nstates=5)
 --------------------

 -----------------------------
 step_1601_chromophore_6 ZINDO
 -----------------------------
 Symbolic Z-matrix:
 Charge =  0 Multiplicity = 1

                         Standard orientation:
 ---------------------------------------------------------------------
 Center     Atomic      Atomic             Coordinates (Angstroms)
 Number     Number       Type             X           Y           Z
 ---------------------------------------------------------------------
      1         12           0       -5.823690    1.221127   -0.368333
      2          6           0       -4.789676   -2.327402   -0.323529
      3          6           0       -2.487538    1.988089   -0.645173
      4          6           0       -6.817207    4.161760    0.294812
      5          6           0       -9.138977   -0.079572    0.310345
      6          7           0       -3.860453   -0.108694   -0.455769
      7          6           0       -3.724376   -1.446082   -0.475911
      8          6           0       -2.224146   -1.788828   -0.595953
      9          6           0       -1.494272   -0.357319   -0.562257
     10          6           0       -2.671074    0.594339   -0.584747
     11          6           0       -0.491973   -0.154078    0.618759
     12          6           0       -1.885645   -2.553671   -1.956163
     13          6           0       -0.677416   -3.468338   -1.902801
     14          6           0        0.062675   -3.723098   -0.600378
     15          8           0       -0.351796   -4.455857    0.281221
     16          8           0        1.222759   -2.922301   -0.540081
     17          7           0       -4.793160    2.892806   -0.331418
     18          6           0       -3.441085    3.051914   -0.494375
     19          6           0       -3.185923    4.461050   -0.465206
     20          6           0       -4.418282    5.072363   -0.202760
     21          6           0       -5.407254    4.026147   -0.049896
     22          6           0       -1.854359    5.091541   -0.655860
     23          6           0       -4.700410    6.523336   -0.175416
     24          8           0       -5.807146    6.912571    0.177562
     25          6           0       -3.674757    7.587399   -0.549029
     26          7           0       -7.754055    1.912280    0.183428
     27          6           0       -7.829536    3.209215    0.528627
     28          6           0       -9.327329    3.591327    1.032004
     29          6           0      -10.030504    2.219056    0.840679
     30          6           0       -8.922565    1.301787    0.403042
     31          6           0       -9.158592    4.270379    2.372895
     32          6           0      -11.348073    2.256389   -0.099635
     33          6           0      -11.360255    1.325800   -1.334750
     34          7           0       -6.806362   -0.725438   -0.123562
     35          6           0       -8.157818   -1.054654    0.053547
     36          6           0       -8.383974   -2.513897    0.064898
     37          6           0       -7.043729   -2.995277   -0.043938
     38          6           0       -6.148015   -1.875810   -0.167966
     39          6           0       -9.720967   -3.290636    0.460867
     40          6           0       -6.323542   -4.178456    0.067241
     41          8           0       -6.707439   -5.330062    0.339757
     42          6           0       -4.766722   -3.839493   -0.148722
     43          6           0       -4.045620   -4.183373    1.074190
     44          8           0       -3.822319   -3.590344    2.062341
     45          8           0       -3.728523   -5.534957    0.852741
     46          6           0       -2.772125   -6.100313    1.850590
     47          6           0        1.866926   -3.000857    0.816525
     48          6           0        3.282769   -2.499729    0.935331
     49          6           0        4.369896   -2.931787    0.152196
     50          6           0        4.298452   -4.062728   -0.928554
     51          6           0        5.716598   -2.426508    0.549617
     52          6           0        6.283042   -1.297818   -0.293362
     53          6           0        7.656607   -1.622574   -0.929824
     54          6           0        8.670313   -0.422826   -0.791953
     55          6           0        8.276819    0.735395   -1.724001
     56          6           0       10.089895   -0.921126   -1.096128
     57          6           0       11.248891   -0.266683   -0.245628
     58          6           0       12.701131   -0.539117   -0.851867
     59          6           0       13.521114    0.871272   -0.941862
     60          6           0       13.249297    1.647528   -2.273234
     61          6           0       15.032827    0.606334   -0.563197
     62          6           0       15.337236    1.035188    0.883169
     63          6           0       16.838259    1.148413    1.167557
     64          6           0       17.299366    2.505039    1.803662
     65          6           0       17.953050    2.264759    3.179058
     66          6           0       18.239825    3.306588    0.921100
     67          1           0       -1.473594    2.391666   -0.685385
     68          1           0       -7.177376    5.159901    0.550004
     69          1           0      -10.120921   -0.527914    0.473330
     70          1           0       -2.030487   -2.436448    0.259673
     71          1           0       -0.875842   -0.305382   -1.458104
     72          1           0        0.512503    0.040384    0.240207
     73          1           0       -0.330426   -1.100462    1.135423
     74          1           0       -0.806363    0.627399    1.310491
     75          1           0       -1.642528   -1.857170   -2.758036
     76          1           0       -2.667793   -3.094607   -2.488953
     77          1           0        0.089360   -3.184557   -2.623150
     78          1           0       -1.134591   -4.358510   -2.336419
     79          1           0       -1.356480    5.445872    0.246013
     80          1           0       -1.830571    5.865614   -1.423581
     81          1           0       -1.064406    4.394440   -0.934869
     82          1           0       -2.734142    7.554462    0.000598
     83          1           0       -4.194103    8.515727   -0.308323
     84          1           0       -3.532830    7.631075   -1.628620
     85          1           0       -9.817241    4.232101    0.298544
     86          1           0      -10.408972    1.869691    1.801239
     87          1           0       -8.138702    4.457518    2.709638
     88          1           0       -9.558807    3.626467    3.155392
     89          1           0       -9.592679    5.262459    2.252702
     90          1           0      -11.579480    3.290633   -0.353939
     91          1           0      -12.165631    2.012941    0.579056
     92          1           0      -12.165327    1.682922   -1.975801
     93          1           0      -11.660072    0.293293   -1.153575
     94          1           0      -10.443070    1.464042   -1.908145
     95          1           0      -10.305498   -2.505333    0.940888
     96          1           0       -9.627444   -4.089230    1.196173
     97          1           0      -10.215107   -3.565649   -0.470598
     98          1           0       -4.457527   -4.380679   -1.042943
     99          1           0       -2.456025   -5.384471    2.610140
    100          1           0       -1.905391   -6.551071    1.366238
    101          1           0       -3.366881   -6.898470    2.292788
    102          1           0        1.892907   -4.030581    1.171104
    103          1           0        1.280391   -2.513726    1.595250
    104          1           0        3.455356   -1.726635    1.683912
    105          1           0        4.248260   -5.010925   -0.393903
    106          1           0        5.163348   -4.016786   -1.590947
    107          1           0        3.361224   -3.906400   -1.463013
    108          1           0        6.318285   -3.335729    0.539365
    109          1           0        5.657671   -2.080459    1.581347
    110          1           0        6.579732   -0.476977    0.359361
    111          1           0        5.666614   -0.863214   -1.080422
    112          1           0        7.404909   -1.752896   -1.982121
    113          1           0        8.051007   -2.535226   -0.481916
    114          1           0        8.641762   -0.018372    0.219303
    115          1           0        7.679600    0.325363   -2.539215
    116          1           0        9.107346    1.216543   -2.240641
    117          1           0        7.667808    1.590875   -1.430122
    118          1           0       10.250604   -0.845649   -2.171138
    119          1           0       10.157668   -1.992298   -0.909346
    120          1           0       11.290378   -0.440219    0.829766
    121          1           0       10.978563    0.788150   -0.298438
    122          1           0       12.647810   -0.929528   -1.867901
    123          1           0       13.156850   -1.329182   -0.254876
    124          1           0       13.039430    1.586253   -0.274870
    125          1           0       12.249285    2.059318   -2.412787
    126          1           0       13.418340    0.914215   -3.062266
    127          1           0       13.937649    2.479576   -2.425718
    128          1           0       15.477541    1.155291   -1.393959
    129          1           0       15.185596   -0.458676   -0.739435
    130          1           0       14.983179    0.217679    1.510599
    131          1           0       14.844591    1.970036    1.150977
    132          1           0       17.301192    1.149083    0.180435
    133          1           0       17.281452    0.273230    1.642987
    134          1           0       16.391525    3.093158    1.942288
    135          1           0       17.941052    1.231276    3.527276
    136          1           0       17.531066    2.982391    3.882160
    137          1           0       18.994400    2.569379    3.289475
    138          1           0       17.685336    3.561844    0.018163
    139          1           0       19.062976    2.697230    0.549387
    140          1           0       18.762442    4.159192    1.354851
 ---------------------------------------------------------------------

 SCF Done:  E(RZINDO/S) =  -474.038688995     A.U. after   20 cycles

 Excitation energies and oscillator strengths:

 Excited State   1:      Singlet-A      1.2699 eV  976.36 nm  f=0.6086  <S**2>=0.000
     175 ->178         0.19113
     176 ->177         0.66403
 This state for optimization and/or second-order correction.
 Total Energy, E(CIS/TDA) =  -473.992022398
 Copying the excited state density for this state as the 1-particle RhoCI density.

 Excited State   2:      Singlet-A      1.9075 eV  650.00 nm  f=0.0959  <S**2>=0.000
     175 ->177         0.57957
     176 ->178        -0.37817

 Excited State   3:      Singlet-A      2.7924 eV  444.01 nm  f=0.0003  <S**2>=0.000
     167 ->179        -0.10124
     168 ->177         0.42753
     168 ->179        -0.42986
     168 ->181         0.16609
     168 ->186        -0.12934

 Excited State   4:      Singlet-A      2.9464 eV  420.80 nm  f=0.0007  <S**2>=0.000
     170 ->177         0.27704
     170 ->178        -0.13195
     170 ->179         0.23606
     170 ->181         0.45589
     170 ->186         0.23218
     170 ->188        -0.13898
     170 ->202        -0.13354

 Excited State   5:      Singlet-A      3.0435 eV  407.37 nm  f=1.0197  <S**2>=0.000
     171 ->177         0.13863
     173 ->177        -0.10454
     175 ->177         0.33488
     176 ->178         0.52908
     176 ->179         0.20807

 The electronic state is 1-A.
 Alpha  occ. eigenvalues --   -1.82997  -1.82645  -1.79281  -1.72387  -1.71635
 Alpha  occ. eigenvalues --   -1.68962  -1.63265  -1.60564  -1.58880  -1.56727
 Alpha  occ. eigenvalues --   -1.54189  -1.51000  -1.48787  -1.47348  -1.45979
 Alpha  occ. eigenvalues --   -1.44134  -1.43202  -1.40214  -1.38934  -1.37979
 Alpha  occ. eigenvalues --   -1.36001  -1.32256  -1.32043  -1.31026  -1.28173
 Alpha  occ. eigenvalues --   -1.26293  -1.24978  -1.20698  -1.20054  -1.18067
 Alpha  occ. eigenvalues --   -1.17469  -1.15491  -1.15442  -1.14425  -1.13663
 Alpha  occ. eigenvalues --   -1.13403  -1.11251  -1.10005  -1.04766  -1.03312
 Alpha  occ. eigenvalues --   -1.01775  -1.00712  -0.98955  -0.98671  -0.97806
 Alpha  occ. eigenvalues --   -0.95349  -0.94428  -0.93723  -0.93212  -0.92518
 Alpha  occ. eigenvalues --   -0.90563  -0.89733  -0.89671  -0.87838  -0.86365
 Alpha  occ. eigenvalues --   -0.85389  -0.84089  -0.83168  -0.81069  -0.80905
 Alpha  occ. eigenvalues --   -0.79307  -0.77725  -0.77098  -0.76196  -0.75867
 Alpha  occ. eigenvalues --   -0.75744  -0.75171  -0.74943  -0.74111  -0.73930
 Alpha  occ. eigenvalues --   -0.72919  -0.72395  -0.71378  -0.70925  -0.70840
 Alpha  occ. eigenvalues --   -0.70465  -0.70274  -0.68408  -0.68112  -0.67820
 Alpha  occ. eigenvalues --   -0.67106  -0.66547  -0.66091  -0.65220  -0.64935
 Alpha  occ. eigenvalues --   -0.64534  -0.64220  -0.63752  -0.63536  -0.63251
 Alpha  occ. eigenvalues --   -0.63072  -0.62673  -0.62198  -0.61853  -0.61378
 Alpha  occ. eigenvalues --   -0.61137  -0.60641  -0.60138  -0.59971  -0.59674
 Alpha  occ. eigenvalues --   -0.59359  -0.59190  -0.59053  -0.58570  -0.57906
 Alpha  occ. eigenvalues --   -0.57391  -0.57357  -0.57065  -0.56753  -0.56664
 Alpha  occ. eigenvalues --   -0.56128  -0.55954  -0.55307  -0.55248  -0.54439
 Alpha  occ. eigenvalues --   -0.54196  -0.54020  -0.53851  -0.53380  -0.53254
 Alpha  occ. eigenvalues --   -0.52503  -0.52223  -0.52132  -0.51634  -0.51424
 Alpha  occ. eigenvalues --   -0.51040  -0.50611  -0.50388  -0.50300  -0.49833
 Alpha  occ. eigenvalues --   -0.49741  -0.49445  -0.49324  -0.49212  -0.49131
 Alpha  occ. eigenvalues --   -0.48985  -0.48534  -0.48069  -0.47796  -0.47724
 Alpha  occ. eigenvalues --   -0.47484  -0.47386  -0.46853  -0.46673  -0.46427
 Alpha  occ. eigenvalues --   -0.45888  -0.45782  -0.45646  -0.45570  -0.45139
 Alpha  occ. eigenvalues --   -0.44540  -0.44461  -0.44272  -0.44144  -0.43917
 Alpha  occ. eigenvalues --   -0.43737  -0.43577  -0.43266  -0.42845  -0.42188
 Alpha  occ. eigenvalues --   -0.41554  -0.41136  -0.40773  -0.39318  -0.38383
 Alpha  occ. eigenvalues --   -0.38156  -0.36650  -0.34922  -0.34661  -0.33985
 Alpha  occ. eigenvalues --   -0.33524  -0.32197  -0.32082  -0.31332  -0.26246
 Alpha  occ. eigenvalues --   -0.21837
 Alpha virt. eigenvalues --   -0.08583  -0.01602  -0.00559   0.01335   0.01732
 Alpha virt. eigenvalues --    0.02242   0.03196   0.03670   0.03806   0.05419
 Alpha virt. eigenvalues --    0.06477   0.07034   0.07710   0.07916   0.08359

 Mulliken charges:
               1
     1  Mg   0.436508
     2  C   -0.064864
     3  C   -0.076665
     4  C   -0.062784
     5  C   -0.070294
     6  N   -0.299812
     7  C    0.154383
     8  C    0.001280
     9  C    0.004379
    10  C    0.108370
    11  C   -0.053784
    12  C   -0.021768
    13  C    0.001300
    14  C    0.473158
    15  O   -0.504029
    16  O   -0.270911
    17  N   -0.290898
    18  C    0.072280
    19  C   -0.003896
    20  C   -0.050513
    21  C    0.131736
    22  C   -0.045565
    23  C    0.320777
    24  O   -0.539796
    25  C   -0.035845
    26  N   -0.249999
    27  C    0.096496
    28  C   -0.001319
    29  C    0.001216
    30  C    0.159974
    31  C   -0.045555
    32  C   -0.031450
    33  C   -0.052969
    34  N   -0.326383
    35  C    0.110818
    36  C    0.030335
    37  C   -0.040435
    38  C    0.141600
    39  C   -0.033841
    40  C    0.329160
    41  O   -0.529473
    42  C    0.055757
    43  C    0.502147
    44  O   -0.493875
    45  O   -0.288922
    46  C    0.067176
    47  C    0.098643
    48  C   -0.110832
    49  C   -0.008920
    50  C   -0.041200
    51  C   -0.010675
    52  C   -0.035849
    53  C   -0.041193
    54  C   -0.001163
    55  C   -0.062098
    56  C   -0.032717
    57  C   -0.046848
    58  C   -0.045288
    59  C   -0.030647
    60  C   -0.057905
    61  C   -0.036153
    62  C   -0.024904
    63  C   -0.041253
    64  C   -0.002820
    65  C   -0.063253
    66  C   -0.051984
    67  H    0.027775
    68  H    0.047813
    69  H    0.032641
    70  H    0.055931
    71  H    0.027667
    72  H    0.016123
    73  H    0.024381
    74  H    0.031072
    75  H    0.016528
    76  H    0.027167
    77  H    0.026489
    78  H    0.036101
    79  H    0.029158
    80  H    0.027038
    81  H    0.011161
    82  H    0.038571
    83  H    0.028916
    84  H    0.037825
    85  H    0.033995
    86  H    0.027761
    87  H    0.028466
    88  H    0.021075
    89  H    0.025621
    90  H    0.026757
    91  H    0.014016
    92  H    0.007018
    93  H    0.030061
    94  H    0.029430
    95  H    0.019690
    96  H    0.052226
    97  H    0.039917
    98  H    0.062894
    99  H    0.054371
   100  H    0.040654
   101  H    0.032247
   102  H    0.048003
   103  H    0.040587
   104  H    0.035255
   105  H    0.035584
   106  H    0.027912
   107  H    0.030396
   108  H    0.024000
   109  H    0.019709
   110  H    0.015508
   111  H    0.028195
   112  H    0.019894
   113  H    0.023222
   114  H    0.022728
   115  H    0.007957
   116  H    0.013182
   117  H    0.021013
   118  H    0.023407
   119  H    0.007907
   120  H    0.027506
   121  H    0.012331
   122  H    0.020258
   123  H    0.023774
   124  H    0.016899
   125  H    0.021532
   126  H    0.011762
   127  H    0.017234
   128  H    0.025822
   129  H    0.024722
   130  H    0.018308
   131  H    0.029978
   132  H    0.007829
   133  H    0.026170
   134  H    0.020897
   135  H    0.023358
   136  H    0.013327
   137  H    0.013199
   138  H    0.011095
   139  H    0.011744
   140  H    0.023098
 Sum of Mulliken charges =  -0.00000

 Dipole moment (field-independent basis, Debye):
    X=              3.7756    Y=              1.7389    Z=             -4.6670  Tot=              6.2498
 N-N= 4.222701576751D+03 E-N= 0.000000000000D+00  KE=-9.120058437088D+03
 Leave Link  601 at Wed May  4 11:10:02 2022, MaxMem=  6710886400 cpu:               0.8 elap:               0.1
 (Enter /sw/apps/gaussian-16.0/g16/l9999.exe)
 1\1\GINC-BP1-COMPUTE057\SP\RZINDO CIS\STO-3G\C55H74Mg1N4O6\OF15641\04-
 May-2022\0\\#p ZINDO=(nstates=5)\\step_1601_chromophore_6 ZINDO\\0,1\M
 g,0,16.771,-2.145,27.774\C,0,16.07,0.07,30.649\C,0,18.453,-4.162,29.98
 7\C,0,17.844,-3.535,25.13\C,0,15.233,0.479,25.801\N,0,17.197,-1.988,30
 .103\C,0,16.779,-1.075,30.997\C,0,17.298,-1.477,32.394\C,0,18.184,-2.7
 89,32.117\C,0,17.923,-3.038,30.647\C,0,19.689,-2.667,32.518\C,0,16.11,
 -1.812,33.407\C,0,16.424,-1.585,34.873\C,0,17.737,-0.958,35.311\O,0,17

 Normal termination of Gaussian 16 at Wed May  4 11:10:02 2022.
