 Gaussian 16, Revision A.03,
 Gaussian 16:  ES64L-G16RevA.03 25-Dec-2016

 ------------------------------
 #p blyp/Def2SVP td=(nstates=5)
 ------------------------------

 --------------------------------------------------
 step_1101_chromophore_2 TDDFT with blyp functional
 --------------------------------------------------
 Symbolic Z-matrix:
 Charge =  0 Multiplicity = 1

                         Standard orientation:
 ---------------------------------------------------------------------
 Center     Atomic      Atomic             Coordinates (Angstroms)
 Number     Number       Type             X           Y           Z
 ---------------------------------------------------------------------
      1         12           0        4.766645    1.194475   -0.780790
      2          6           0        5.255324   -2.307639   -0.378299
      3          6           0        2.349052    0.508494   -3.090217
      4          6           0        3.675545    4.346170   -0.349742
      5          6           0        6.703672    1.591214    2.203615
      6          7           0        3.734573   -0.658980   -1.409371
      7          6           0        4.109645   -2.011863   -1.158674
      8          6           0        3.328513   -2.997193   -1.925290
      9          6           0        2.718862   -2.029747   -3.090087
     10          6           0        2.873812   -0.593926   -2.476268
     11          6           0        3.493518   -2.205667   -4.413994
     12          6           0        2.233153   -3.686922   -1.134047
     13          6           0        2.038006   -3.461007    0.347458
     14          6           0        0.906055   -4.278188    0.932858
     15          8           0        0.979796   -5.445434    1.340633
     16          8           0       -0.126649   -3.410116    1.157674
     17          7           0        3.325544    2.302790   -1.633158
     18          6           0        2.427832    1.836039   -2.602694
     19          6           0        1.657531    2.933445   -3.029863
     20          6           0        2.195279    4.098760   -2.414603
     21          6           0        3.093283    3.663727   -1.411738
     22          6           0        0.555829    2.905981   -4.039450
     23          6           0        1.592999    5.496104   -2.661783
     24          8           0        0.770238    5.747903   -3.550119
     25          6           0        1.992416    6.599955   -1.730680
     26          7           0        5.305424    2.884312    0.662087
     27          6           0        4.598205    4.020968    0.647627
     28          6           0        4.959329    4.946160    1.830832
     29          6           0        6.043398    4.017350    2.633245
     30          6           0        6.027213    2.724104    1.833931
     31          6           0        5.322842    6.390392    1.620006
     32          6           0        5.727778    3.833400    4.143990
     33          6           0        6.880526    3.762267    5.237363
     34          7           0        5.862136   -0.005102    0.625347
     35          6           0        6.659499    0.287540    1.735929
     36          6           0        7.347495   -0.894486    2.178184
     37          6           0        6.939527   -1.899011    1.319012
     38          6           0        6.008512   -1.345363    0.381781
     39          6           0        8.371757   -1.008816    3.307535
     40          6           0        7.101945   -3.310262    1.016590
     41          8           0        7.856486   -4.188551    1.469312
     42          6           0        6.041384   -3.627853   -0.156138
     43          6           0        6.844804   -3.958464   -1.418489
     44          8           0        7.570378   -4.931941   -1.388070
     45          8           0        6.578885   -3.227214   -2.555586
     46          6           0        7.413840   -3.711550   -3.708282
     47          6           0       -1.319637   -3.995377    1.834430
     48          6           0       -2.410880   -2.926868    1.711174
     49          6           0       -3.205076   -2.261920    2.610714
     50          6           0       -3.453137   -2.599045    4.013801
     51          6           0       -3.982123   -1.028502    2.043088
     52          6           0       -5.175696   -1.198999    1.047047
     53          6           0       -6.505396   -0.667437    1.711848
     54          6           0       -7.101839    0.476348    0.784008
     55          6           0       -6.765541    1.845455    1.410910
     56          6           0       -8.634332    0.379830    0.694660
     57          6           0       -8.989477   -0.463358   -0.610105
     58          6           0      -10.123633    0.197865   -1.452247
     59          6           0      -11.520997   -0.322345   -1.079765
     60          6           0      -12.313275   -0.730328   -2.357894
     61          6           0      -12.293016    0.790109   -0.290866
     62          6           0      -13.362262    0.149715    0.651840
     63          6           0      -14.699524    0.902644    0.419910
     64          6           0      -15.904802   -0.119157    0.432199
     65          6           0      -16.970658    0.315889   -0.620694
     66          6           0      -16.577329   -0.237691    1.789197
     67          1           0        1.623425    0.322622   -3.884688
     68          1           0        3.311402    5.345198   -0.102403
     69          1           0        7.339221    1.738411    3.079124
     70          1           0        3.932600   -3.808545   -2.333024
     71          1           0        1.651187   -2.215210   -3.208670
     72          1           0        4.451303   -2.716069   -4.312911
     73          1           0        3.617401   -1.255057   -4.933478
     74          1           0        2.796559   -2.664752   -5.114314
     75          1           0        2.475988   -4.742946   -1.021267
     76          1           0        1.211813   -3.622721   -1.510945
     77          1           0        2.093479   -2.436912    0.716527
     78          1           0        2.953244   -3.880179    0.764600
     79          1           0       -0.409218    3.184831   -3.617896
     80          1           0        0.416470    1.906794   -4.452300
     81          1           0        0.679469    3.653661   -4.822405
     82          1           0        3.070435    6.685392   -1.590080
     83          1           0        1.456947    6.452973   -0.792600
     84          1           0        1.699770    7.557476   -2.161290
     85          1           0        4.013531    4.984881    2.371552
     86          1           0        7.033822    4.378405    2.358573
     87          1           0        5.594011    6.621157    0.589966
     88          1           0        6.159191    6.691335    2.250962
     89          1           0        4.421115    6.972090    1.812365
     90          1           0        5.028326    3.000035    4.078323
     91          1           0        5.136307    4.664806    4.526353
     92          1           0        6.466844    4.144360    6.170845
     93          1           0        7.598075    4.481487    4.841848
     94          1           0        7.240349    2.735110    5.288251
     95          1           0        8.874022   -0.064272    3.517338
     96          1           0        9.157913   -1.741202    3.118887
     97          1           0        7.912048   -1.269836    4.260903
     98          1           0        5.396441   -4.465156    0.108913
     99          1           0        6.944109   -4.681212   -3.875253
    100          1           0        8.442683   -3.759104   -3.352255
    101          1           0        7.494793   -3.030234   -4.555537
    102          1           0       -1.216336   -4.123042    2.911324
    103          1           0       -1.730073   -4.868521    1.326583
    104          1           0       -2.437252   -2.422492    0.745350
    105          1           0       -2.700033   -3.191929    4.531648
    106          1           0       -4.432833   -3.070161    4.103112
    107          1           0       -3.486186   -1.630965    4.513213
    108          1           0       -3.125484   -0.419469    1.752615
    109          1           0       -4.401123   -0.474263    2.882647
    110          1           0       -5.401571   -2.207791    0.701514
    111          1           0       -4.809288   -0.589933    0.220299
    112          1           0       -6.417472   -0.225172    2.704126
    113          1           0       -7.190936   -1.509849    1.808021
    114          1           0       -6.654670    0.463414   -0.209919
    115          1           0       -5.795216    2.003419    0.939864
    116          1           0       -6.640206    2.036387    2.476729
    117          1           0       -7.473029    2.638181    1.167748
    118          1           0       -8.939122    1.415162    0.543823
    119          1           0       -9.108387   -0.162960    1.511948
    120          1           0       -9.250210   -1.497815   -0.384690
    121          1           0       -8.081929   -0.664144   -1.178988
    122          1           0       -9.908594    0.061300   -2.512181
    123          1           0      -10.081782    1.274268   -1.290376
    124          1           0      -11.316417   -1.230427   -0.513118
    125          1           0      -12.319232   -1.815843   -2.453661
    126          1           0      -11.738252   -0.362470   -3.208025
    127          1           0      -13.348305   -0.396570   -2.280935
    128          1           0      -12.658166    1.471145   -1.059624
    129          1           0      -11.644302    1.541422    0.160573
    130          1           0      -12.928596    0.164153    1.650789
    131          1           0      -13.659957   -0.819653    0.251228
    132          1           0      -14.886922    1.464997   -0.495416
    133          1           0      -14.901182    1.638491    1.198131
    134          1           0      -15.763380   -1.153991    0.121370
    135          1           0      -16.732389    0.713192   -1.608024
    136          1           0      -17.568113    1.105983   -0.166634
    137          1           0      -17.468430   -0.601687   -0.933194
    138          1           0      -17.210095   -1.124581    1.790768
    139          1           0      -17.073603    0.703915    2.026272
    140          1           0      -15.691069   -0.496988    2.368234
 ---------------------------------------------------------------------

 SCF Done:  E(RB-LYP) =  -3007.31636511     A.U. after   21 cycles

 Excitation energies and oscillator strengths:

 Excited State   1:      Singlet-A      1.7433 eV  711.21 nm  f=0.0720  <S**2>=0.000
     243 -> 247       -0.38461
     245 -> 247        0.44803
     246 -> 247       -0.37036
 This state for optimization and/or second-order correction.
 Total Energy, E(TD-HF/TD-DFT) =  -3007.25230074
 Copying the excited state density for this state as the 1-particle RhoCI density.

 Excited State   2:      Singlet-A      1.8249 eV  679.40 nm  f=0.0134  <S**2>=0.000
     244 -> 247        0.68254
     246 -> 247        0.13385

 Excited State   3:      Singlet-A      1.8265 eV  678.81 nm  f=0.2446  <S**2>=0.000
     243 -> 247       -0.21667
     244 -> 247       -0.17626
     245 -> 247        0.27942
     245 -> 248       -0.15792
     246 -> 247        0.56707
     246 <- 247       -0.12625

 Excited State   4:      Singlet-A      2.0250 eV  612.27 nm  f=0.0006  <S**2>=0.000
     242 -> 247        0.70456

 Excited State   5:      Singlet-A      2.0374 eV  608.53 nm  f=0.0484  <S**2>=0.000
     240 -> 247       -0.13215
     243 -> 247        0.52798
     245 -> 247        0.39413
     246 -> 248        0.19129

 The electronic state is 1-A.
 Alpha  occ. eigenvalues --  -46.27854 -18.83026 -18.82449 -18.76785 -18.76328
 Alpha  occ. eigenvalues --  -18.75988 -18.75771 -14.03573 -14.03008 -14.01127
 Alpha  occ. eigenvalues --  -14.01069 -10.04019 -10.03933 -10.00097 -10.00008
 Alpha  occ. eigenvalues --   -9.98592  -9.98215  -9.97112  -9.96724  -9.96573
 Alpha  occ. eigenvalues --   -9.96272  -9.96253  -9.95613  -9.95605  -9.95027
 Alpha  occ. eigenvalues --   -9.94981  -9.94568  -9.94511  -9.94492  -9.94259
 Alpha  occ. eigenvalues --   -9.94258  -9.93953  -9.93296  -9.93201  -9.93061
 Alpha  occ. eigenvalues --   -9.93051  -9.93012  -9.92959  -9.92807  -9.92759
 Alpha  occ. eigenvalues --   -9.92662  -9.92616  -9.92505  -9.92414  -9.92309
 Alpha  occ. eigenvalues --   -9.92256  -9.92151  -9.91997  -9.91933  -9.91879
 Alpha  occ. eigenvalues --   -9.91768  -9.91654  -9.91615  -9.91546  -9.91527
 Alpha  occ. eigenvalues --   -9.91281  -9.91185  -9.91020  -9.90887  -9.90866
 Alpha  occ. eigenvalues --   -9.90805  -9.90706  -9.90636  -9.90579  -9.90470
 Alpha  occ. eigenvalues --   -9.90239  -2.92387  -1.72780  -1.72283  -1.72103
 Alpha  occ. eigenvalues --   -0.97944  -0.97187  -0.90946  -0.90408  -0.89620
 Alpha  occ. eigenvalues --   -0.89181  -0.86116  -0.85267  -0.85117  -0.84162
 Alpha  occ. eigenvalues --   -0.75038  -0.73427  -0.73123  -0.72619  -0.72592
 Alpha  occ. eigenvalues --   -0.71905  -0.71882  -0.71150  -0.70817  -0.70083
 Alpha  occ. eigenvalues --   -0.69486  -0.69340  -0.68098  -0.67823  -0.67408
 Alpha  occ. eigenvalues --   -0.66425  -0.66073  -0.65604  -0.65007  -0.64680
 Alpha  occ. eigenvalues --   -0.63809  -0.62796  -0.62540  -0.61845  -0.61018
 Alpha  occ. eigenvalues --   -0.60443  -0.60156  -0.59917  -0.59110  -0.58630
 Alpha  occ. eigenvalues --   -0.58438  -0.57317  -0.57035  -0.55365  -0.55096
 Alpha  occ. eigenvalues --   -0.54371  -0.53550  -0.52819  -0.52592  -0.51984
 Alpha  occ. eigenvalues --   -0.51189  -0.50946  -0.50828  -0.50431  -0.49890
 Alpha  occ. eigenvalues --   -0.49655  -0.49486  -0.49319  -0.48557  -0.46479
 Alpha  occ. eigenvalues --   -0.46163  -0.45575  -0.45466  -0.44892  -0.44345
 Alpha  occ. eigenvalues --   -0.44187  -0.43800  -0.43349  -0.42994  -0.42696
 Alpha  occ. eigenvalues --   -0.42488  -0.42036  -0.41591  -0.41404  -0.41081
 Alpha  occ. eigenvalues --   -0.40730  -0.40659  -0.40377  -0.40270  -0.40025
 Alpha  occ. eigenvalues --   -0.39923  -0.39642  -0.39459  -0.39335  -0.39280
 Alpha  occ. eigenvalues --   -0.38990  -0.38813  -0.38636  -0.38565  -0.38304
 Alpha  occ. eigenvalues --   -0.38201  -0.37954  -0.37537  -0.37319  -0.37304
 Alpha  occ. eigenvalues --   -0.37241  -0.37030  -0.36639  -0.36408  -0.36397
 Alpha  occ. eigenvalues --   -0.36216  -0.35882  -0.35807  -0.35598  -0.35571
 Alpha  occ. eigenvalues --   -0.35351  -0.35323  -0.35226  -0.34933  -0.34824
 Alpha  occ. eigenvalues --   -0.34648  -0.34448  -0.34395  -0.34367  -0.34226
 Alpha  occ. eigenvalues --   -0.33873  -0.33600  -0.33508  -0.33356  -0.33158
 Alpha  occ. eigenvalues --   -0.33132  -0.32726  -0.32608  -0.32601  -0.32175
 Alpha  occ. eigenvalues --   -0.32057  -0.31940  -0.31568  -0.31527  -0.31285
 Alpha  occ. eigenvalues --   -0.31041  -0.30941  -0.30666  -0.30601  -0.30503
 Alpha  occ. eigenvalues --   -0.30275  -0.30051  -0.29832  -0.29800  -0.29719
 Alpha  occ. eigenvalues --   -0.29625  -0.29426  -0.29337  -0.29225  -0.28619
 Alpha  occ. eigenvalues --   -0.28518  -0.28433  -0.27771  -0.27710  -0.27699
 Alpha  occ. eigenvalues --   -0.27349  -0.27337  -0.27179  -0.26898  -0.26800
 Alpha  occ. eigenvalues --   -0.26574  -0.26319  -0.25601  -0.25388  -0.25290
 Alpha  occ. eigenvalues --   -0.25123  -0.24899  -0.24262  -0.23591  -0.23177
 Alpha  occ. eigenvalues --   -0.22722  -0.22657  -0.21850  -0.21563  -0.20843
 Alpha  occ. eigenvalues --   -0.20347  -0.19516  -0.18880  -0.18693  -0.17403
 Alpha  occ. eigenvalues --   -0.16342
 Alpha virt. eigenvalues --   -0.12075  -0.07174  -0.06541  -0.04802  -0.03884
 Alpha virt. eigenvalues --   -0.03270  -0.02456  -0.02021  -0.01667  -0.00230
 Alpha virt. eigenvalues --    0.01123   0.01676   0.01957   0.02631   0.02882

 Mulliken charges:
               1
     1  Mg   0.690124
     2  C    0.005761
     3  C   -0.070678
     4  C   -0.027595
     5  C   -0.050111
     6  N   -0.246431
     7  C   -0.028252
     8  C    0.104586
     9  C   -0.025266
    10  C    0.054638
    11  C    0.143573
    12  C    0.023735
    13  C    0.167272
    14  C    0.090770
    15  O   -0.205027
    16  O   -0.273650
    17  N   -0.363348
    18  C    0.169260
    19  C   -0.143342
    20  C    0.026837
    21  C    0.181535
    22  C    0.208571
    23  C   -0.078699
    24  O   -0.174648
    25  C    0.140209
    26  N   -0.188096
    27  C   -0.086571
    28  C    0.015772
    29  C    0.071027
    30  C   -0.030302
    31  C    0.146951
    32  C    0.050672
    33  C    0.080169
    34  N   -0.265685
    35  C    0.107571
    36  C   -0.149439
    37  C    0.096678
    38  C    0.045242
    39  C    0.161253
    40  C   -0.014299
    41  O   -0.129729
    42  C    0.020523
    43  C    0.117955
    44  O   -0.170108
    45  O   -0.284665
    46  C    0.225509
    47  C    0.364313
    48  C   -0.119196
    49  C   -0.194454
    50  C    0.161483
    51  C    0.078812
    52  C    0.110723
    53  C    0.092121
    54  C   -0.091785
    55  C    0.081415
    56  C    0.133767
    57  C    0.032606
    58  C    0.118610
    59  C   -0.090291
    60  C    0.118297
    61  C    0.076861
    62  C    0.138824
    63  C    0.108687
    64  C   -0.133603
    65  C    0.064118
    66  C    0.124916
    67  H   -0.054768
    68  H   -0.088901
    69  H   -0.084104
    70  H   -0.032271
    71  H   -0.029746
    72  H    0.013161
    73  H   -0.023924
    74  H   -0.016262
    75  H   -0.013384
    76  H   -0.015329
    77  H    0.004015
    78  H   -0.035353
    79  H   -0.007794
    80  H   -0.035478
    81  H    0.009795
    82  H    0.010565
    83  H    0.020922
    84  H   -0.016981
    85  H   -0.020698
    86  H   -0.023174
    87  H   -0.010551
    88  H   -0.002319
    89  H   -0.007352
    90  H   -0.015746
    91  H   -0.022950
    92  H   -0.000804
    93  H   -0.003803
    94  H    0.018550
    95  H   -0.017676
    96  H    0.012581
    97  H    0.001344
    98  H    0.021366
    99  H    0.025227
   100  H    0.024594
   101  H    0.021359
   102  H   -0.004304
   103  H    0.010835
   104  H   -0.047688
   105  H   -0.012066
   106  H    0.008590
   107  H   -0.013766
   108  H   -0.006289
   109  H   -0.048465
   110  H   -0.014038
   111  H   -0.012909
   112  H   -0.020276
   113  H   -0.032141
   114  H   -0.022146
   115  H   -0.023455
   116  H   -0.016437
   117  H   -0.021494
   118  H   -0.031540
   119  H   -0.018731
   120  H   -0.042225
   121  H   -0.044789
   122  H   -0.047343
   123  H   -0.040707
   124  H   -0.037131
   125  H   -0.024189
   126  H   -0.016595
   127  H   -0.007522
   128  H   -0.046540
   129  H   -0.043461
   130  H   -0.005613
   131  H   -0.017290
   132  H   -0.031423
   133  H   -0.045194
   134  H   -0.031876
   135  H   -0.023025
   136  H   -0.019956
   137  H   -0.023420
   138  H   -0.020146
   139  H   -0.002654
   140  H   -0.023166
 Sum of Mulliken charges =  -0.00000

 Dipole moment (field-independent basis, Debye):
    X=             -1.1724    Y=              5.2640    Z=              0.2427  Tot=              5.3984
 Quadrupole moment (field-independent basis, Debye-Ang):
   XX=           -415.5663   YY=           -440.4565   ZZ=           -389.0805
   XY=             59.0005   XZ=            -17.4310   YZ=             39.5980

 Normal termination of Gaussian 16 at Wed Apr 27 07:49:03 2022.
