 Gaussian 16, Revision A.03,
 Gaussian 16:  ES64L-G16RevA.03 25-Dec-2016

 -----------------------------------
 #p cam-b3lyp/Def2SVP td=(nstates=5)
 -----------------------------------

 -------------------------------------------------------
 step_1101_chromophore_2 TDDFT with cam-b3lyp functional
 -------------------------------------------------------
 Symbolic Z-matrix:
 Charge =  0 Multiplicity = 1

                         Standard orientation:
 ---------------------------------------------------------------------
 Center     Atomic      Atomic             Coordinates (Angstroms)
 Number     Number       Type             X           Y           Z
 ---------------------------------------------------------------------
      1         12           0        4.766645    1.194475   -0.780790
      2          6           0        5.255324   -2.307639   -0.378299
      3          6           0        2.349052    0.508494   -3.090217
      4          6           0        3.675545    4.346170   -0.349742
      5          6           0        6.703672    1.591214    2.203615
      6          7           0        3.734573   -0.658980   -1.409371
      7          6           0        4.109645   -2.011863   -1.158674
      8          6           0        3.328513   -2.997193   -1.925290
      9          6           0        2.718862   -2.029747   -3.090087
     10          6           0        2.873812   -0.593926   -2.476268
     11          6           0        3.493518   -2.205667   -4.413994
     12          6           0        2.233153   -3.686922   -1.134047
     13          6           0        2.038006   -3.461007    0.347458
     14          6           0        0.906055   -4.278188    0.932858
     15          8           0        0.979796   -5.445434    1.340633
     16          8           0       -0.126649   -3.410116    1.157674
     17          7           0        3.325544    2.302790   -1.633158
     18          6           0        2.427832    1.836039   -2.602694
     19          6           0        1.657531    2.933445   -3.029863
     20          6           0        2.195279    4.098760   -2.414603
     21          6           0        3.093283    3.663727   -1.411738
     22          6           0        0.555829    2.905981   -4.039450
     23          6           0        1.592999    5.496104   -2.661783
     24          8           0        0.770238    5.747903   -3.550119
     25          6           0        1.992416    6.599955   -1.730680
     26          7           0        5.305424    2.884312    0.662087
     27          6           0        4.598205    4.020968    0.647627
     28          6           0        4.959329    4.946160    1.830832
     29          6           0        6.043398    4.017350    2.633245
     30          6           0        6.027213    2.724104    1.833931
     31          6           0        5.322842    6.390392    1.620006
     32          6           0        5.727778    3.833400    4.143990
     33          6           0        6.880526    3.762267    5.237363
     34          7           0        5.862136   -0.005102    0.625347
     35          6           0        6.659499    0.287540    1.735929
     36          6           0        7.347495   -0.894486    2.178184
     37          6           0        6.939527   -1.899011    1.319012
     38          6           0        6.008512   -1.345363    0.381781
     39          6           0        8.371757   -1.008816    3.307535
     40          6           0        7.101945   -3.310262    1.016590
     41          8           0        7.856486   -4.188551    1.469312
     42          6           0        6.041384   -3.627853   -0.156138
     43          6           0        6.844804   -3.958464   -1.418489
     44          8           0        7.570378   -4.931941   -1.388070
     45          8           0        6.578885   -3.227214   -2.555586
     46          6           0        7.413840   -3.711550   -3.708282
     47          6           0       -1.319637   -3.995377    1.834430
     48          6           0       -2.410880   -2.926868    1.711174
     49          6           0       -3.205076   -2.261920    2.610714
     50          6           0       -3.453137   -2.599045    4.013801
     51          6           0       -3.982123   -1.028502    2.043088
     52          6           0       -5.175696   -1.198999    1.047047
     53          6           0       -6.505396   -0.667437    1.711848
     54          6           0       -7.101839    0.476348    0.784008
     55          6           0       -6.765541    1.845455    1.410910
     56          6           0       -8.634332    0.379830    0.694660
     57          6           0       -8.989477   -0.463358   -0.610105
     58          6           0      -10.123633    0.197865   -1.452247
     59          6           0      -11.520997   -0.322345   -1.079765
     60          6           0      -12.313275   -0.730328   -2.357894
     61          6           0      -12.293016    0.790109   -0.290866
     62          6           0      -13.362262    0.149715    0.651840
     63          6           0      -14.699524    0.902644    0.419910
     64          6           0      -15.904802   -0.119157    0.432199
     65          6           0      -16.970658    0.315889   -0.620694
     66          6           0      -16.577329   -0.237691    1.789197
     67          1           0        1.623425    0.322622   -3.884688
     68          1           0        3.311402    5.345198   -0.102403
     69          1           0        7.339221    1.738411    3.079124
     70          1           0        3.932600   -3.808545   -2.333024
     71          1           0        1.651187   -2.215210   -3.208670
     72          1           0        4.451303   -2.716069   -4.312911
     73          1           0        3.617401   -1.255057   -4.933478
     74          1           0        2.796559   -2.664752   -5.114314
     75          1           0        2.475988   -4.742946   -1.021267
     76          1           0        1.211813   -3.622721   -1.510945
     77          1           0        2.093479   -2.436912    0.716527
     78          1           0        2.953244   -3.880179    0.764600
     79          1           0       -0.409218    3.184831   -3.617896
     80          1           0        0.416470    1.906794   -4.452300
     81          1           0        0.679469    3.653661   -4.822405
     82          1           0        3.070435    6.685392   -1.590080
     83          1           0        1.456947    6.452973   -0.792600
     84          1           0        1.699770    7.557476   -2.161290
     85          1           0        4.013531    4.984881    2.371552
     86          1           0        7.033822    4.378405    2.358573
     87          1           0        5.594011    6.621157    0.589966
     88          1           0        6.159191    6.691335    2.250962
     89          1           0        4.421115    6.972090    1.812365
     90          1           0        5.028326    3.000035    4.078323
     91          1           0        5.136307    4.664806    4.526353
     92          1           0        6.466844    4.144360    6.170845
     93          1           0        7.598075    4.481487    4.841848
     94          1           0        7.240349    2.735110    5.288251
     95          1           0        8.874022   -0.064272    3.517338
     96          1           0        9.157913   -1.741202    3.118887
     97          1           0        7.912048   -1.269836    4.260903
     98          1           0        5.396441   -4.465156    0.108913
     99          1           0        6.944109   -4.681212   -3.875253
    100          1           0        8.442683   -3.759104   -3.352255
    101          1           0        7.494793   -3.030234   -4.555537
    102          1           0       -1.216336   -4.123042    2.911324
    103          1           0       -1.730073   -4.868521    1.326583
    104          1           0       -2.437252   -2.422492    0.745350
    105          1           0       -2.700033   -3.191929    4.531648
    106          1           0       -4.432833   -3.070161    4.103112
    107          1           0       -3.486186   -1.630965    4.513213
    108          1           0       -3.125484   -0.419469    1.752615
    109          1           0       -4.401123   -0.474263    2.882647
    110          1           0       -5.401571   -2.207791    0.701514
    111          1           0       -4.809288   -0.589933    0.220299
    112          1           0       -6.417472   -0.225172    2.704126
    113          1           0       -7.190936   -1.509849    1.808021
    114          1           0       -6.654670    0.463414   -0.209919
    115          1           0       -5.795216    2.003419    0.939864
    116          1           0       -6.640206    2.036387    2.476729
    117          1           0       -7.473029    2.638181    1.167748
    118          1           0       -8.939122    1.415162    0.543823
    119          1           0       -9.108387   -0.162960    1.511948
    120          1           0       -9.250210   -1.497815   -0.384690
    121          1           0       -8.081929   -0.664144   -1.178988
    122          1           0       -9.908594    0.061300   -2.512181
    123          1           0      -10.081782    1.274268   -1.290376
    124          1           0      -11.316417   -1.230427   -0.513118
    125          1           0      -12.319232   -1.815843   -2.453661
    126          1           0      -11.738252   -0.362470   -3.208025
    127          1           0      -13.348305   -0.396570   -2.280935
    128          1           0      -12.658166    1.471145   -1.059624
    129          1           0      -11.644302    1.541422    0.160573
    130          1           0      -12.928596    0.164153    1.650789
    131          1           0      -13.659957   -0.819653    0.251228
    132          1           0      -14.886922    1.464997   -0.495416
    133          1           0      -14.901182    1.638491    1.198131
    134          1           0      -15.763380   -1.153991    0.121370
    135          1           0      -16.732389    0.713192   -1.608024
    136          1           0      -17.568113    1.105983   -0.166634
    137          1           0      -17.468430   -0.601687   -0.933194
    138          1           0      -17.210095   -1.124581    1.790768
    139          1           0      -17.073603    0.703915    2.026272
    140          1           0      -15.691069   -0.496988    2.368234
 ---------------------------------------------------------------------

 SCF Done:  E(RCAM-B3LYP) =  -3007.09762813     A.U. after   19 cycles

 Excitation energies and oscillator strengths:

 Excited State   1:      Singlet-A      1.6867 eV  735.05 nm  f=0.3661  <S**2>=0.000
     245 -> 248       -0.17562
     246 -> 247        0.68640
     245 <- 248       -0.10709
 This state for optimization and/or second-order correction.
 Total Energy, E(TD-HF/TD-DFT) =  -3007.03564140
 Copying the excited state density for this state as the 1-particle RhoCI density.

 Excited State   2:      Singlet-A      2.1877 eV  566.73 nm  f=0.1225  <S**2>=0.000
     245 -> 247        0.64980
     246 -> 248        0.26310

 Excited State   3:      Singlet-A      3.1309 eV  396.00 nm  f=0.0036  <S**2>=0.000
     242 -> 247       -0.14346
     243 -> 247        0.67410

 Excited State   4:      Singlet-A      3.3531 eV  369.76 nm  f=0.0098  <S**2>=0.000
     239 -> 249       -0.10196
     241 -> 247        0.20955
     241 -> 249       -0.19258
     242 -> 247        0.52108
     242 -> 249       -0.12226
     243 -> 247        0.10403
     246 -> 248        0.22850

 Excited State   5:      Singlet-A      3.4909 eV  355.16 nm  f=0.0025  <S**2>=0.000
     239 -> 247        0.11300
     241 -> 247        0.52079
     241 -> 249       -0.20064
     242 -> 247       -0.30818
     243 -> 247       -0.10324
     246 -> 248       -0.11356

 The electronic state is 1-A.
 Alpha  occ. eigenvalues --  -46.89496 -19.25894 -19.25323 -19.19722 -19.19334
 Alpha  occ. eigenvalues --  -19.19174 -19.18960 -14.42449 -14.41993 -14.39630
 Alpha  occ. eigenvalues --  -14.39507 -10.39363 -10.39211 -10.35418 -10.35360
 Alpha  occ. eigenvalues --  -10.32612 -10.32330 -10.31574 -10.31352 -10.31187
 Alpha  occ. eigenvalues --  -10.30909 -10.30525 -10.30208 -10.29611 -10.29350
 Alpha  occ. eigenvalues --  -10.29264 -10.28631 -10.28575 -10.28504 -10.28480
 Alpha  occ. eigenvalues --  -10.28245 -10.28211 -10.27942 -10.27132 -10.27117
 Alpha  occ. eigenvalues --  -10.27052 -10.27045 -10.26834 -10.26819 -10.26718
 Alpha  occ. eigenvalues --  -10.26684 -10.26633 -10.26296 -10.26278 -10.26196
 Alpha  occ. eigenvalues --  -10.26059 -10.26008 -10.25746 -10.25740 -10.25689
 Alpha  occ. eigenvalues --  -10.25546 -10.25485 -10.25434 -10.25311 -10.25275
 Alpha  occ. eigenvalues --  -10.25148 -10.24994 -10.24721 -10.24573 -10.24564
 Alpha  occ. eigenvalues --  -10.24492 -10.24266 -10.24234 -10.24172 -10.24131
 Alpha  occ. eigenvalues --  -10.23859  -3.17922  -1.92794  -1.92370  -1.92229
 Alpha  occ. eigenvalues --   -1.16392  -1.15573  -1.09499  -1.08500  -1.07515
 Alpha  occ. eigenvalues --   -1.06998  -1.03867  -1.02862  -1.02783  -1.01688
 Alpha  occ. eigenvalues --   -0.92073  -0.90239  -0.89934  -0.89414  -0.89382
 Alpha  occ. eigenvalues --   -0.88599  -0.88545  -0.87756  -0.87413  -0.86553
 Alpha  occ. eigenvalues --   -0.86213  -0.85692  -0.84389  -0.83966  -0.83623
 Alpha  occ. eigenvalues --   -0.82453  -0.82280  -0.81595  -0.80854  -0.80386
 Alpha  occ. eigenvalues --   -0.79616  -0.78351  -0.78117  -0.77563  -0.76464
 Alpha  occ. eigenvalues --   -0.75788  -0.75517  -0.75265  -0.74376  -0.73844
 Alpha  occ. eigenvalues --   -0.73518  -0.72269  -0.71989  -0.70154  -0.69705
 Alpha  occ. eigenvalues --   -0.69024  -0.68104  -0.67347  -0.66966  -0.66100
 Alpha  occ. eigenvalues --   -0.65413  -0.65071  -0.64985  -0.64288  -0.63902
 Alpha  occ. eigenvalues --   -0.63530  -0.63434  -0.62945  -0.62459  -0.60215
 Alpha  occ. eigenvalues --   -0.59702  -0.59083  -0.58952  -0.58200  -0.57792
 Alpha  occ. eigenvalues --   -0.57586  -0.57012  -0.56612  -0.56250  -0.55808
 Alpha  occ. eigenvalues --   -0.55561  -0.54932  -0.54598  -0.54132  -0.53939
 Alpha  occ. eigenvalues --   -0.53690  -0.53376  -0.53277  -0.52904  -0.52839
 Alpha  occ. eigenvalues --   -0.52600  -0.52306  -0.52220  -0.51822  -0.51710
 Alpha  occ. eigenvalues --   -0.51444  -0.51415  -0.51174  -0.50982  -0.50856
 Alpha  occ. eigenvalues --   -0.50711  -0.50347  -0.49888  -0.49747  -0.49611
 Alpha  occ. eigenvalues --   -0.49532  -0.49410  -0.49189  -0.48765  -0.48613
 Alpha  occ. eigenvalues --   -0.48420  -0.48380  -0.47911  -0.47757  -0.47721
 Alpha  occ. eigenvalues --   -0.47482  -0.47378  -0.47242  -0.47029  -0.46677
 Alpha  occ. eigenvalues --   -0.46542  -0.46377  -0.46329  -0.46129  -0.46123
 Alpha  occ. eigenvalues --   -0.45666  -0.45417  -0.45324  -0.45208  -0.44864
 Alpha  occ. eigenvalues --   -0.44713  -0.44431  -0.44260  -0.44065  -0.43898
 Alpha  occ. eigenvalues --   -0.43660  -0.43492  -0.43346  -0.43212  -0.43051
 Alpha  occ. eigenvalues --   -0.42580  -0.42444  -0.42245  -0.42029  -0.41918
 Alpha  occ. eigenvalues --   -0.41767  -0.41648  -0.41148  -0.41023  -0.40842
 Alpha  occ. eigenvalues --   -0.40756  -0.40706  -0.40488  -0.40470  -0.39705
 Alpha  occ. eigenvalues --   -0.39659  -0.39492  -0.38686  -0.38635  -0.38602
 Alpha  occ. eigenvalues --   -0.38307  -0.38198  -0.38047  -0.37901  -0.37704
 Alpha  occ. eigenvalues --   -0.37609  -0.37119  -0.37010  -0.36663  -0.36078
 Alpha  occ. eigenvalues --   -0.35977  -0.35461  -0.34565  -0.34100  -0.34033
 Alpha  occ. eigenvalues --   -0.33873  -0.33208  -0.32977  -0.31670  -0.31356
 Alpha  occ. eigenvalues --   -0.30558  -0.30032  -0.29675  -0.29118  -0.24357
 Alpha  occ. eigenvalues --   -0.21706
 Alpha virt. eigenvalues --   -0.09300  -0.02031   0.00037   0.01052   0.02282
 Alpha virt. eigenvalues --    0.04438   0.05450   0.05525   0.05680   0.06385
 Alpha virt. eigenvalues --    0.07979   0.08344   0.08412   0.08859   0.09154

 Mulliken charges:
               1
     1  Mg   0.818521
     2  C   -0.022023
     3  C   -0.086917
     4  C   -0.058026
     5  C   -0.057205
     6  N   -0.312729
     7  C    0.007789
     8  C    0.041316
     9  C   -0.073892
    10  C    0.073911
    11  C    0.086627
    12  C   -0.018892
    13  C    0.098515
    14  C    0.169414
    15  O   -0.245821
    16  O   -0.337257
    17  N   -0.452753
    18  C    0.179615
    19  C   -0.151054
    20  C   -0.037129
    21  C    0.210328
    22  C    0.148205
    23  C    0.002979
    24  O   -0.213928
    25  C    0.050803
    26  N   -0.255451
    27  C   -0.048990
    28  C   -0.035686
    29  C    0.009199
    30  C   -0.007399
    31  C    0.083478
    32  C   -0.005552
    33  C    0.022431
    34  N   -0.349691
    35  C    0.110441
    36  C   -0.148330
    37  C    0.015675
    38  C    0.087051
    39  C    0.113757
    40  C    0.078356
    41  O   -0.169453
    42  C   -0.048789
    43  C    0.206334
    44  O   -0.207794
    45  O   -0.348046
    46  C    0.181393
    47  C    0.333459
    48  C   -0.138884
    49  C   -0.212966
    50  C    0.096128
    51  C    0.026042
    52  C    0.051348
    53  C    0.041644
    54  C   -0.148311
    55  C    0.025541
    56  C    0.078965
    57  C   -0.017472
    58  C    0.063444
    59  C   -0.144979
    60  C    0.063139
    61  C    0.025332
    62  C    0.078884
    63  C    0.052378
    64  C   -0.195224
    65  C    0.007097
    66  C    0.069083
    67  H   -0.020177
    68  H   -0.052030
    69  H   -0.049593
    70  H    0.005710
    71  H    0.005353
    72  H    0.034265
    73  H    0.002762
    74  H    0.009370
    75  H    0.017391
    76  H    0.013772
    77  H    0.038505
    78  H   -0.004062
    79  H    0.021781
    80  H   -0.008534
    81  H    0.040175
    82  H    0.037754
    83  H    0.048692
    84  H    0.020488
    85  H    0.013892
    86  H    0.010919
    87  H    0.014707
    88  H    0.023723
    89  H    0.015762
    90  H    0.013689
    91  H    0.004750
    92  H    0.023663
    93  H    0.017595
    94  H    0.037254
    95  H    0.005725
    96  H    0.039476
    97  H    0.027453
    98  H    0.059143
    99  H    0.049078
   100  H    0.049452
   101  H    0.044466
   102  H    0.021919
   103  H    0.039614
   104  H   -0.014811
   105  H    0.013409
   106  H    0.032544
   107  H    0.010234
   108  H    0.023638
   109  H   -0.019285
   110  H    0.014942
   111  H    0.014027
   112  H    0.006207
   113  H   -0.003133
   114  H    0.009154
   115  H    0.000094
   116  H    0.007771
   117  H    0.003138
   118  H   -0.005885
   119  H    0.008479
   120  H   -0.014463
   121  H   -0.015949
   122  H   -0.016235
   123  H   -0.013024
   124  H   -0.006217
   125  H    0.000665
   126  H    0.006999
   127  H    0.012851
   128  H   -0.016673
   129  H   -0.014457
   130  H    0.021805
   131  H    0.009962
   132  H   -0.001452
   133  H   -0.014834
   134  H   -0.001277
   135  H    0.001892
   136  H    0.002701
   137  H    0.000842
   138  H    0.005055
   139  H    0.018793
   140  H    0.000608
 Sum of Mulliken charges =  -0.00000

 Dipole moment (field-independent basis, Debye):
    X=             -1.4961    Y=              6.0128    Z=             -0.1212  Tot=              6.1973
 Quadrupole moment (field-independent basis, Debye-Ang):
   XX=           -418.1182   YY=           -437.7714   ZZ=           -387.1639
   XY=             62.1073   XZ=            -17.9094   YZ=             40.7507

 Normal termination of Gaussian 16 at Wed Apr 27 06:49:55 2022.
