 Gaussian 16, Revision A.03,
 Gaussian 16:  ES64L-G16RevA.03 25-Dec-2016

 ---------------------------------
 #p PBE1PBE/Def2SVP td=(nstates=5)
 ---------------------------------

 -----------------------------------------------------
 step_1101_chromophore_2 TDDFT with PBE1PBE functional
 -----------------------------------------------------
 Symbolic Z-matrix:
 Charge =  0 Multiplicity = 1

                         Standard orientation:
 ---------------------------------------------------------------------
 Center     Atomic      Atomic             Coordinates (Angstroms)
 Number     Number       Type             X           Y           Z
 ---------------------------------------------------------------------
      1         12           0        4.766645    1.194475   -0.780790
      2          6           0        5.255324   -2.307639   -0.378299
      3          6           0        2.349052    0.508494   -3.090217
      4          6           0        3.675545    4.346170   -0.349742
      5          6           0        6.703672    1.591214    2.203615
      6          7           0        3.734573   -0.658980   -1.409371
      7          6           0        4.109645   -2.011863   -1.158674
      8          6           0        3.328513   -2.997193   -1.925290
      9          6           0        2.718862   -2.029747   -3.090087
     10          6           0        2.873812   -0.593926   -2.476268
     11          6           0        3.493518   -2.205667   -4.413994
     12          6           0        2.233153   -3.686922   -1.134047
     13          6           0        2.038006   -3.461007    0.347458
     14          6           0        0.906055   -4.278188    0.932858
     15          8           0        0.979796   -5.445434    1.340633
     16          8           0       -0.126649   -3.410116    1.157674
     17          7           0        3.325544    2.302790   -1.633158
     18          6           0        2.427832    1.836039   -2.602694
     19          6           0        1.657531    2.933445   -3.029863
     20          6           0        2.195279    4.098760   -2.414603
     21          6           0        3.093283    3.663727   -1.411738
     22          6           0        0.555829    2.905981   -4.039450
     23          6           0        1.592999    5.496104   -2.661783
     24          8           0        0.770238    5.747903   -3.550119
     25          6           0        1.992416    6.599955   -1.730680
     26          7           0        5.305424    2.884312    0.662087
     27          6           0        4.598205    4.020968    0.647627
     28          6           0        4.959329    4.946160    1.830832
     29          6           0        6.043398    4.017350    2.633245
     30          6           0        6.027213    2.724104    1.833931
     31          6           0        5.322842    6.390392    1.620006
     32          6           0        5.727778    3.833400    4.143990
     33          6           0        6.880526    3.762267    5.237363
     34          7           0        5.862136   -0.005102    0.625347
     35          6           0        6.659499    0.287540    1.735929
     36          6           0        7.347495   -0.894486    2.178184
     37          6           0        6.939527   -1.899011    1.319012
     38          6           0        6.008512   -1.345363    0.381781
     39          6           0        8.371757   -1.008816    3.307535
     40          6           0        7.101945   -3.310262    1.016590
     41          8           0        7.856486   -4.188551    1.469312
     42          6           0        6.041384   -3.627853   -0.156138
     43          6           0        6.844804   -3.958464   -1.418489
     44          8           0        7.570378   -4.931941   -1.388070
     45          8           0        6.578885   -3.227214   -2.555586
     46          6           0        7.413840   -3.711550   -3.708282
     47          6           0       -1.319637   -3.995377    1.834430
     48          6           0       -2.410880   -2.926868    1.711174
     49          6           0       -3.205076   -2.261920    2.610714
     50          6           0       -3.453137   -2.599045    4.013801
     51          6           0       -3.982123   -1.028502    2.043088
     52          6           0       -5.175696   -1.198999    1.047047
     53          6           0       -6.505396   -0.667437    1.711848
     54          6           0       -7.101839    0.476348    0.784008
     55          6           0       -6.765541    1.845455    1.410910
     56          6           0       -8.634332    0.379830    0.694660
     57          6           0       -8.989477   -0.463358   -0.610105
     58          6           0      -10.123633    0.197865   -1.452247
     59          6           0      -11.520997   -0.322345   -1.079765
     60          6           0      -12.313275   -0.730328   -2.357894
     61          6           0      -12.293016    0.790109   -0.290866
     62          6           0      -13.362262    0.149715    0.651840
     63          6           0      -14.699524    0.902644    0.419910
     64          6           0      -15.904802   -0.119157    0.432199
     65          6           0      -16.970658    0.315889   -0.620694
     66          6           0      -16.577329   -0.237691    1.789197
     67          1           0        1.623425    0.322622   -3.884688
     68          1           0        3.311402    5.345198   -0.102403
     69          1           0        7.339221    1.738411    3.079124
     70          1           0        3.932600   -3.808545   -2.333024
     71          1           0        1.651187   -2.215210   -3.208670
     72          1           0        4.451303   -2.716069   -4.312911
     73          1           0        3.617401   -1.255057   -4.933478
     74          1           0        2.796559   -2.664752   -5.114314
     75          1           0        2.475988   -4.742946   -1.021267
     76          1           0        1.211813   -3.622721   -1.510945
     77          1           0        2.093479   -2.436912    0.716527
     78          1           0        2.953244   -3.880179    0.764600
     79          1           0       -0.409218    3.184831   -3.617896
     80          1           0        0.416470    1.906794   -4.452300
     81          1           0        0.679469    3.653661   -4.822405
     82          1           0        3.070435    6.685392   -1.590080
     83          1           0        1.456947    6.452973   -0.792600
     84          1           0        1.699770    7.557476   -2.161290
     85          1           0        4.013531    4.984881    2.371552
     86          1           0        7.033822    4.378405    2.358573
     87          1           0        5.594011    6.621157    0.589966
     88          1           0        6.159191    6.691335    2.250962
     89          1           0        4.421115    6.972090    1.812365
     90          1           0        5.028326    3.000035    4.078323
     91          1           0        5.136307    4.664806    4.526353
     92          1           0        6.466844    4.144360    6.170845
     93          1           0        7.598075    4.481487    4.841848
     94          1           0        7.240349    2.735110    5.288251
     95          1           0        8.874022   -0.064272    3.517338
     96          1           0        9.157913   -1.741202    3.118887
     97          1           0        7.912048   -1.269836    4.260903
     98          1           0        5.396441   -4.465156    0.108913
     99          1           0        6.944109   -4.681212   -3.875253
    100          1           0        8.442683   -3.759104   -3.352255
    101          1           0        7.494793   -3.030234   -4.555537
    102          1           0       -1.216336   -4.123042    2.911324
    103          1           0       -1.730073   -4.868521    1.326583
    104          1           0       -2.437252   -2.422492    0.745350
    105          1           0       -2.700033   -3.191929    4.531648
    106          1           0       -4.432833   -3.070161    4.103112
    107          1           0       -3.486186   -1.630965    4.513213
    108          1           0       -3.125484   -0.419469    1.752615
    109          1           0       -4.401123   -0.474263    2.882647
    110          1           0       -5.401571   -2.207791    0.701514
    111          1           0       -4.809288   -0.589933    0.220299
    112          1           0       -6.417472   -0.225172    2.704126
    113          1           0       -7.190936   -1.509849    1.808021
    114          1           0       -6.654670    0.463414   -0.209919
    115          1           0       -5.795216    2.003419    0.939864
    116          1           0       -6.640206    2.036387    2.476729
    117          1           0       -7.473029    2.638181    1.167748
    118          1           0       -8.939122    1.415162    0.543823
    119          1           0       -9.108387   -0.162960    1.511948
    120          1           0       -9.250210   -1.497815   -0.384690
    121          1           0       -8.081929   -0.664144   -1.178988
    122          1           0       -9.908594    0.061300   -2.512181
    123          1           0      -10.081782    1.274268   -1.290376
    124          1           0      -11.316417   -1.230427   -0.513118
    125          1           0      -12.319232   -1.815843   -2.453661
    126          1           0      -11.738252   -0.362470   -3.208025
    127          1           0      -13.348305   -0.396570   -2.280935
    128          1           0      -12.658166    1.471145   -1.059624
    129          1           0      -11.644302    1.541422    0.160573
    130          1           0      -12.928596    0.164153    1.650789
    131          1           0      -13.659957   -0.819653    0.251228
    132          1           0      -14.886922    1.464997   -0.495416
    133          1           0      -14.901182    1.638491    1.198131
    134          1           0      -15.763380   -1.153991    0.121370
    135          1           0      -16.732389    0.713192   -1.608024
    136          1           0      -17.568113    1.105983   -0.166634
    137          1           0      -17.468430   -0.601687   -0.933194
    138          1           0      -17.210095   -1.124581    1.790768
    139          1           0      -17.073603    0.703915    2.026272
    140          1           0      -15.691069   -0.496988    2.368234
 ---------------------------------------------------------------------

 SCF Done:  E(RPBE1PBE) =  -3005.28757550     A.U. after   16 cycles

 Excitation energies and oscillator strengths:

 Excited State   1:      Singlet-A      1.8443 eV  672.27 nm  f=0.3518  <S**2>=0.000
     245 -> 248       -0.16951
     246 -> 247        0.69280
     246 <- 247       -0.10726
 This state for optimization and/or second-order correction.
 Total Energy, E(TD-HF/TD-DFT) =  -3005.21979989
 Copying the excited state density for this state as the 1-particle RhoCI density.

 Excited State   2:      Singlet-A      2.1762 eV  569.73 nm  f=0.1152  <S**2>=0.000
     245 -> 247        0.65928
     246 -> 248        0.23290

 Excited State   3:      Singlet-A      2.7909 eV  444.25 nm  f=0.0031  <S**2>=0.000
     243 -> 247        0.69381

 Excited State   4:      Singlet-A      2.8890 eV  429.16 nm  f=0.0023  <S**2>=0.000
     241 -> 247       -0.11832
     242 -> 247        0.64118
     242 -> 249       -0.13270
     246 -> 248        0.13149

 Excited State   5:      Singlet-A      3.0525 eV  406.18 nm  f=0.0005  <S**2>=0.000
     240 -> 247       -0.35287
     241 -> 247        0.52438
     244 -> 247       -0.25797

 The electronic state is 1-A.
 Alpha  occ. eigenvalues --  -46.92878 -19.26581 -19.26021 -19.20025 -19.19641
 Alpha  occ. eigenvalues --  -19.19355 -19.19281 -14.42027 -14.41417 -14.39255
 Alpha  occ. eigenvalues --  -14.39240 -10.36467 -10.36272 -10.32647 -10.32454
 Alpha  occ. eigenvalues --  -10.29871 -10.29701 -10.29437 -10.28940 -10.28799
 Alpha  occ. eigenvalues --  -10.28406 -10.28360 -10.27706 -10.27491 -10.27101
 Alpha  occ. eigenvalues --  -10.27075 -10.26433 -10.26415 -10.26404 -10.26353
 Alpha  occ. eigenvalues --  -10.26089 -10.26031 -10.25431 -10.24768 -10.24733
 Alpha  occ. eigenvalues --  -10.24711 -10.24570 -10.24370 -10.24282 -10.24266
 Alpha  occ. eigenvalues --  -10.24254 -10.24184 -10.23812 -10.23777 -10.23668
 Alpha  occ. eigenvalues --  -10.23581 -10.23480 -10.23422 -10.23285 -10.23269
 Alpha  occ. eigenvalues --  -10.23088 -10.23081 -10.22966 -10.22853 -10.22786
 Alpha  occ. eigenvalues --  -10.22702 -10.22700 -10.22286 -10.22157 -10.22146
 Alpha  occ. eigenvalues --  -10.22076 -10.21711 -10.21655 -10.21643 -10.21557
 Alpha  occ. eigenvalues --  -10.21277  -3.14887  -1.87695  -1.87252  -1.87115
 Alpha  occ. eigenvalues --   -1.11195  -1.10388  -1.04108  -1.03356  -1.02415
 Alpha  occ. eigenvalues --   -1.01868  -0.98442  -0.97502  -0.97382  -0.96299
 Alpha  occ. eigenvalues --   -0.86459  -0.84465  -0.84073  -0.83675  -0.83502
 Alpha  occ. eigenvalues --   -0.82803  -0.82703  -0.82076  -0.81524  -0.80943
 Alpha  occ. eigenvalues --   -0.80442  -0.79960  -0.78618  -0.78278  -0.77783
 Alpha  occ. eigenvalues --   -0.76650  -0.76440  -0.75776  -0.75125  -0.74709
 Alpha  occ. eigenvalues --   -0.73745  -0.72671  -0.72449  -0.71805  -0.70803
 Alpha  occ. eigenvalues --   -0.69998  -0.69795  -0.69352  -0.68502  -0.68054
 Alpha  occ. eigenvalues --   -0.67917  -0.66600  -0.66419  -0.64466  -0.64074
 Alpha  occ. eigenvalues --   -0.63508  -0.62308  -0.61758  -0.61187  -0.60497
 Alpha  occ. eigenvalues --   -0.59635  -0.59534  -0.59505  -0.58900  -0.58074
 Alpha  occ. eigenvalues --   -0.57933  -0.57657  -0.57554  -0.56636  -0.54701
 Alpha  occ. eigenvalues --   -0.54314  -0.53569  -0.53402  -0.52807  -0.52342
 Alpha  occ. eigenvalues --   -0.52062  -0.51447  -0.51128  -0.50784  -0.50249
 Alpha  occ. eigenvalues --   -0.50080  -0.49463  -0.49120  -0.48617  -0.48476
 Alpha  occ. eigenvalues --   -0.48338  -0.48009  -0.47732  -0.47473  -0.47327
 Alpha  occ. eigenvalues --   -0.47170  -0.46725  -0.46643  -0.46353  -0.46220
 Alpha  occ. eigenvalues --   -0.46022  -0.45998  -0.45729  -0.45577  -0.45476
 Alpha  occ. eigenvalues --   -0.45264  -0.44885  -0.44451  -0.44312  -0.44174
 Alpha  occ. eigenvalues --   -0.44133  -0.44008  -0.43763  -0.43402  -0.43258
 Alpha  occ. eigenvalues --   -0.43018  -0.42990  -0.42523  -0.42403  -0.42333
 Alpha  occ. eigenvalues --   -0.42092  -0.42058  -0.41865  -0.41711  -0.41350
 Alpha  occ. eigenvalues --   -0.41153  -0.41106  -0.41020  -0.40799  -0.40689
 Alpha  occ. eigenvalues --   -0.40434  -0.40124  -0.40083  -0.39940  -0.39627
 Alpha  occ. eigenvalues --   -0.39391  -0.39275  -0.39071  -0.38780  -0.38668
 Alpha  occ. eigenvalues --   -0.38459  -0.38225  -0.38134  -0.38064  -0.37831
 Alpha  occ. eigenvalues --   -0.37358  -0.37298  -0.37130  -0.36758  -0.36610
 Alpha  occ. eigenvalues --   -0.36583  -0.36446  -0.36038  -0.35912  -0.35600
 Alpha  occ. eigenvalues --   -0.35521  -0.35469  -0.35394  -0.35214  -0.34649
 Alpha  occ. eigenvalues --   -0.34459  -0.34231  -0.33694  -0.33412  -0.33364
 Alpha  occ. eigenvalues --   -0.33218  -0.32979  -0.32919  -0.32862  -0.32712
 Alpha  occ. eigenvalues --   -0.32422  -0.32013  -0.31897  -0.31629  -0.31122
 Alpha  occ. eigenvalues --   -0.30799  -0.30385  -0.29809  -0.29167  -0.29012
 Alpha  occ. eigenvalues --   -0.28745  -0.28583  -0.27953  -0.27231  -0.26147
 Alpha  occ. eigenvalues --   -0.25928  -0.25437  -0.25076  -0.24416  -0.21259
 Alpha  occ. eigenvalues --   -0.19326
 Alpha virt. eigenvalues --   -0.11735  -0.05539  -0.04231  -0.02276  -0.01557
 Alpha virt. eigenvalues --   -0.00091   0.00799   0.01020   0.01160   0.02672
 Alpha virt. eigenvalues --    0.04186   0.04422   0.04915   0.05523   0.05871

 Mulliken charges:
               1
     1  Mg   0.957212
     2  C   -0.035415
     3  C   -0.076373
     4  C   -0.069297
     5  C   -0.057941
     6  N   -0.408864
     7  C    0.064271
     8  C   -0.034991
     9  C   -0.149877
    10  C    0.108031
    11  C    0.026994
    12  C   -0.052755
    13  C    0.010947
    14  C    0.235772
    15  O   -0.278345
    16  O   -0.364733
    17  N   -0.566039
    18  C    0.203649
    19  C   -0.185334
    20  C   -0.075996
    21  C    0.234478
    22  C    0.089086
    23  C    0.054406
    24  O   -0.250727
    25  C   -0.027770
    26  N   -0.355682
    27  C    0.003198
    28  C   -0.107050
    29  C   -0.073114
    30  C    0.034744
    31  C    0.022327
    32  C   -0.065165
    33  C   -0.053275
    34  N   -0.465246
    35  C    0.132166
    36  C   -0.164042
    37  C   -0.036799
    38  C    0.154659
    39  C    0.065738
    40  C    0.165422
    41  O   -0.211512
    42  C   -0.161160
    43  C    0.296011
    44  O   -0.238591
    45  O   -0.376927
    46  C    0.123420
    47  C    0.285491
    48  C   -0.145590
    49  C   -0.256172
    50  C    0.031980
    51  C   -0.035776
    52  C   -0.010654
    53  C   -0.006948
    54  C   -0.238343
    55  C   -0.029988
    56  C    0.022872
    57  C   -0.075498
    58  C    0.009594
    59  C   -0.230075
    60  C    0.003030
    61  C   -0.024259
    62  C    0.005098
    63  C    0.003937
    64  C   -0.291220
    65  C   -0.050744
    66  C    0.006357
    67  H    0.010661
    68  H   -0.016728
    69  H   -0.011999
    70  H    0.043432
    71  H    0.040545
    72  H    0.064577
    73  H    0.031569
    74  H    0.037576
    75  H    0.049568
    76  H    0.046384
    77  H    0.070957
    78  H    0.035733
    79  H    0.049970
    80  H    0.019303
    81  H    0.066959
    82  H    0.063844
    83  H    0.075582
    84  H    0.048660
    85  H    0.052019
    86  H    0.049353
    87  H    0.042929
    88  H    0.050933
    89  H    0.042239
    90  H    0.047281
    91  H    0.038405
    92  H    0.051735
    93  H    0.045985
    94  H    0.063003
    95  H    0.032560
    96  H    0.066205
    97  H    0.055786
    98  H    0.094224
    99  H    0.071412
   100  H    0.071368
   101  H    0.065571
   102  H    0.050261
   103  H    0.066598
   104  H    0.016294
   105  H    0.039726
   106  H    0.060982
   107  H    0.037993
   108  H    0.055657
   109  H    0.013815
   110  H    0.046156
   111  H    0.045456
   112  H    0.036004
   113  H    0.029296
   114  H    0.044597
   115  H    0.029272
   116  H    0.033841
   117  H    0.030084
   118  H    0.026051
   119  H    0.040336
   120  H    0.017521
   121  H    0.015954
   122  H    0.016494
   123  H    0.019888
   124  H    0.031072
   125  H    0.028870
   126  H    0.033693
   127  H    0.041274
   128  H    0.015521
   129  H    0.017869
   130  H    0.052741
   131  H    0.045198
   132  H    0.029279
   133  H    0.018424
   134  H    0.035553
   135  H    0.028803
   136  H    0.030141
   137  H    0.028626
   138  H    0.033440
   139  H    0.045302
   140  H    0.031714
 Sum of Mulliken charges =  -0.00000

 Dipole moment (field-independent basis, Debye):
    X=             -1.3575    Y=              5.8776    Z=              0.0521  Tot=              6.0326
 Quadrupole moment (field-independent basis, Debye-Ang):
   XX=           -413.2377   YY=           -434.9035   ZZ=           -383.4713
   XY=             61.8600   XZ=            -16.2213   YZ=             41.9972

 Normal termination of Gaussian 16 at Wed Apr 27 07:09:26 2022.
