 Gaussian 16, Revision A.03,
 Gaussian 16:  ES64L-G16RevA.03 25-Dec-2016

 --------------------------------
 #p wB97XD/Def2SVP td=(nstates=5)
 --------------------------------

 ----------------------------------------------------
 step_1101_chromophore_2 TDDFT with wB97XD functional
 ----------------------------------------------------
 Symbolic Z-matrix:
 Charge =  0 Multiplicity = 1

                         Standard orientation:
 ---------------------------------------------------------------------
 Center     Atomic      Atomic             Coordinates (Angstroms)
 Number     Number       Type             X           Y           Z
 ---------------------------------------------------------------------
      1         12           0        4.766645    1.194475   -0.780790
      2          6           0        5.255324   -2.307639   -0.378299
      3          6           0        2.349052    0.508494   -3.090217
      4          6           0        3.675545    4.346170   -0.349742
      5          6           0        6.703672    1.591214    2.203615
      6          7           0        3.734573   -0.658980   -1.409371
      7          6           0        4.109645   -2.011863   -1.158674
      8          6           0        3.328513   -2.997193   -1.925290
      9          6           0        2.718862   -2.029747   -3.090087
     10          6           0        2.873812   -0.593926   -2.476268
     11          6           0        3.493518   -2.205667   -4.413994
     12          6           0        2.233153   -3.686922   -1.134047
     13          6           0        2.038006   -3.461007    0.347458
     14          6           0        0.906055   -4.278188    0.932858
     15          8           0        0.979796   -5.445434    1.340633
     16          8           0       -0.126649   -3.410116    1.157674
     17          7           0        3.325544    2.302790   -1.633158
     18          6           0        2.427832    1.836039   -2.602694
     19          6           0        1.657531    2.933445   -3.029863
     20          6           0        2.195279    4.098760   -2.414603
     21          6           0        3.093283    3.663727   -1.411738
     22          6           0        0.555829    2.905981   -4.039450
     23          6           0        1.592999    5.496104   -2.661783
     24          8           0        0.770238    5.747903   -3.550119
     25          6           0        1.992416    6.599955   -1.730680
     26          7           0        5.305424    2.884312    0.662087
     27          6           0        4.598205    4.020968    0.647627
     28          6           0        4.959329    4.946160    1.830832
     29          6           0        6.043398    4.017350    2.633245
     30          6           0        6.027213    2.724104    1.833931
     31          6           0        5.322842    6.390392    1.620006
     32          6           0        5.727778    3.833400    4.143990
     33          6           0        6.880526    3.762267    5.237363
     34          7           0        5.862136   -0.005102    0.625347
     35          6           0        6.659499    0.287540    1.735929
     36          6           0        7.347495   -0.894486    2.178184
     37          6           0        6.939527   -1.899011    1.319012
     38          6           0        6.008512   -1.345363    0.381781
     39          6           0        8.371757   -1.008816    3.307535
     40          6           0        7.101945   -3.310262    1.016590
     41          8           0        7.856486   -4.188551    1.469312
     42          6           0        6.041384   -3.627853   -0.156138
     43          6           0        6.844804   -3.958464   -1.418489
     44          8           0        7.570378   -4.931941   -1.388070
     45          8           0        6.578885   -3.227214   -2.555586
     46          6           0        7.413840   -3.711550   -3.708282
     47          6           0       -1.319637   -3.995377    1.834430
     48          6           0       -2.410880   -2.926868    1.711174
     49          6           0       -3.205076   -2.261920    2.610714
     50          6           0       -3.453137   -2.599045    4.013801
     51          6           0       -3.982123   -1.028502    2.043088
     52          6           0       -5.175696   -1.198999    1.047047
     53          6           0       -6.505396   -0.667437    1.711848
     54          6           0       -7.101839    0.476348    0.784008
     55          6           0       -6.765541    1.845455    1.410910
     56          6           0       -8.634332    0.379830    0.694660
     57          6           0       -8.989477   -0.463358   -0.610105
     58          6           0      -10.123633    0.197865   -1.452247
     59          6           0      -11.520997   -0.322345   -1.079765
     60          6           0      -12.313275   -0.730328   -2.357894
     61          6           0      -12.293016    0.790109   -0.290866
     62          6           0      -13.362262    0.149715    0.651840
     63          6           0      -14.699524    0.902644    0.419910
     64          6           0      -15.904802   -0.119157    0.432199
     65          6           0      -16.970658    0.315889   -0.620694
     66          6           0      -16.577329   -0.237691    1.789197
     67          1           0        1.623425    0.322622   -3.884688
     68          1           0        3.311402    5.345198   -0.102403
     69          1           0        7.339221    1.738411    3.079124
     70          1           0        3.932600   -3.808545   -2.333024
     71          1           0        1.651187   -2.215210   -3.208670
     72          1           0        4.451303   -2.716069   -4.312911
     73          1           0        3.617401   -1.255057   -4.933478
     74          1           0        2.796559   -2.664752   -5.114314
     75          1           0        2.475988   -4.742946   -1.021267
     76          1           0        1.211813   -3.622721   -1.510945
     77          1           0        2.093479   -2.436912    0.716527
     78          1           0        2.953244   -3.880179    0.764600
     79          1           0       -0.409218    3.184831   -3.617896
     80          1           0        0.416470    1.906794   -4.452300
     81          1           0        0.679469    3.653661   -4.822405
     82          1           0        3.070435    6.685392   -1.590080
     83          1           0        1.456947    6.452973   -0.792600
     84          1           0        1.699770    7.557476   -2.161290
     85          1           0        4.013531    4.984881    2.371552
     86          1           0        7.033822    4.378405    2.358573
     87          1           0        5.594011    6.621157    0.589966
     88          1           0        6.159191    6.691335    2.250962
     89          1           0        4.421115    6.972090    1.812365
     90          1           0        5.028326    3.000035    4.078323
     91          1           0        5.136307    4.664806    4.526353
     92          1           0        6.466844    4.144360    6.170845
     93          1           0        7.598075    4.481487    4.841848
     94          1           0        7.240349    2.735110    5.288251
     95          1           0        8.874022   -0.064272    3.517338
     96          1           0        9.157913   -1.741202    3.118887
     97          1           0        7.912048   -1.269836    4.260903
     98          1           0        5.396441   -4.465156    0.108913
     99          1           0        6.944109   -4.681212   -3.875253
    100          1           0        8.442683   -3.759104   -3.352255
    101          1           0        7.494793   -3.030234   -4.555537
    102          1           0       -1.216336   -4.123042    2.911324
    103          1           0       -1.730073   -4.868521    1.326583
    104          1           0       -2.437252   -2.422492    0.745350
    105          1           0       -2.700033   -3.191929    4.531648
    106          1           0       -4.432833   -3.070161    4.103112
    107          1           0       -3.486186   -1.630965    4.513213
    108          1           0       -3.125484   -0.419469    1.752615
    109          1           0       -4.401123   -0.474263    2.882647
    110          1           0       -5.401571   -2.207791    0.701514
    111          1           0       -4.809288   -0.589933    0.220299
    112          1           0       -6.417472   -0.225172    2.704126
    113          1           0       -7.190936   -1.509849    1.808021
    114          1           0       -6.654670    0.463414   -0.209919
    115          1           0       -5.795216    2.003419    0.939864
    116          1           0       -6.640206    2.036387    2.476729
    117          1           0       -7.473029    2.638181    1.167748
    118          1           0       -8.939122    1.415162    0.543823
    119          1           0       -9.108387   -0.162960    1.511948
    120          1           0       -9.250210   -1.497815   -0.384690
    121          1           0       -8.081929   -0.664144   -1.178988
    122          1           0       -9.908594    0.061300   -2.512181
    123          1           0      -10.081782    1.274268   -1.290376
    124          1           0      -11.316417   -1.230427   -0.513118
    125          1           0      -12.319232   -1.815843   -2.453661
    126          1           0      -11.738252   -0.362470   -3.208025
    127          1           0      -13.348305   -0.396570   -2.280935
    128          1           0      -12.658166    1.471145   -1.059624
    129          1           0      -11.644302    1.541422    0.160573
    130          1           0      -12.928596    0.164153    1.650789
    131          1           0      -13.659957   -0.819653    0.251228
    132          1           0      -14.886922    1.464997   -0.495416
    133          1           0      -14.901182    1.638491    1.198131
    134          1           0      -15.763380   -1.153991    0.121370
    135          1           0      -16.732389    0.713192   -1.608024
    136          1           0      -17.568113    1.105983   -0.166634
    137          1           0      -17.468430   -0.601687   -0.933194
    138          1           0      -17.210095   -1.124581    1.790768
    139          1           0      -17.073603    0.703915    2.026272
    140          1           0      -15.691069   -0.496988    2.368234
 ---------------------------------------------------------------------

 SCF Done:  E(RwB97XD) =  -3007.79500760     A.U. after   20 cycles

 Excitation energies and oscillator strengths:

 Excited State   1:      Singlet-A      1.6312 eV  760.08 nm  f=0.3659  <S**2>=0.000
     245 -> 248       -0.18096
     246 -> 247        0.68436
     245 <- 248       -0.11616
 This state for optimization and/or second-order correction.
 Total Energy, E(TD-HF/TD-DFT) =  -3007.73506206
 Copying the excited state density for this state as the 1-particle RhoCI density.

 Excited State   2:      Singlet-A      2.1338 eV  581.06 nm  f=0.1187  <S**2>=0.000
     245 -> 247        0.64721
     246 -> 248        0.26616

 Excited State   3:      Singlet-A      3.1380 eV  395.11 nm  f=0.0034  <S**2>=0.000
     242 -> 247       -0.22448
     243 -> 247        0.64265

 Excited State   4:      Singlet-A      3.3907 eV  365.66 nm  f=0.0179  <S**2>=0.000
     241 -> 249       -0.17681
     242 -> 247        0.51731
     242 -> 249       -0.14347
     243 -> 247        0.18558
     243 -> 249       -0.11319
     246 -> 248        0.25648

 Excited State   5:      Singlet-A      3.5310 eV  351.13 nm  f=0.0065  <S**2>=0.000
     239 -> 247        0.10342
     241 -> 247        0.54804
     241 -> 249       -0.23479
     242 -> 247       -0.18358
     242 -> 249       -0.11834
     246 -> 248       -0.12942

 The electronic state is 1-A.
 Alpha  occ. eigenvalues --  -46.95843 -19.31090 -19.30560 -19.24674 -19.24263
 Alpha  occ. eigenvalues --  -19.24232 -19.23997 -14.47067 -14.46593 -14.44294
 Alpha  occ. eigenvalues --  -14.44089 -10.43198 -10.43030 -10.39423 -10.39372
 Alpha  occ. eigenvalues --  -10.36362 -10.36210 -10.35596 -10.35380 -10.35244
 Alpha  occ. eigenvalues --  -10.34997 -10.34486 -10.34303 -10.33566 -10.33394
 Alpha  occ. eigenvalues --  -10.33243 -10.32676 -10.32654 -10.32621 -10.32524
 Alpha  occ. eigenvalues --  -10.32311 -10.32289 -10.32117 -10.31181 -10.31124
 Alpha  occ. eigenvalues --  -10.31118 -10.30988 -10.30945 -10.30693 -10.30673
 Alpha  occ. eigenvalues --  -10.30577 -10.30548 -10.30158 -10.30147 -10.30081
 Alpha  occ. eigenvalues --  -10.29956 -10.29951 -10.29749 -10.29637 -10.29547
 Alpha  occ. eigenvalues --  -10.29533 -10.29437 -10.29395 -10.29234 -10.29222
 Alpha  occ. eigenvalues --  -10.29080 -10.28974 -10.28651 -10.28518 -10.28494
 Alpha  occ. eigenvalues --  -10.28435 -10.28078 -10.28077 -10.28058 -10.27992
 Alpha  occ. eigenvalues --  -10.27687  -3.21742  -1.95295  -1.94851  -1.94708
 Alpha  occ. eigenvalues --   -1.18537  -1.17753  -1.11740  -1.10703  -1.09718
 Alpha  occ. eigenvalues --   -1.09194  -1.05863  -1.04894  -1.04802  -1.03715
 Alpha  occ. eigenvalues --   -0.94010  -0.92075  -0.91732  -0.91319  -0.91174
 Alpha  occ. eigenvalues --   -0.90422  -0.90368  -0.89695  -0.89185  -0.88501
 Alpha  occ. eigenvalues --   -0.88201  -0.87577  -0.86301  -0.85852  -0.85460
 Alpha  occ. eigenvalues --   -0.84312  -0.84201  -0.83469  -0.82766  -0.82321
 Alpha  occ. eigenvalues --   -0.81422  -0.80265  -0.80021  -0.79531  -0.78397
 Alpha  occ. eigenvalues --   -0.77651  -0.77450  -0.77048  -0.76190  -0.75689
 Alpha  occ. eigenvalues --   -0.75474  -0.74192  -0.73977  -0.72075  -0.71618
 Alpha  occ. eigenvalues --   -0.71015  -0.69961  -0.69361  -0.68834  -0.68006
 Alpha  occ. eigenvalues --   -0.67265  -0.67075  -0.66982  -0.66304  -0.65727
 Alpha  occ. eigenvalues --   -0.65407  -0.65329  -0.64936  -0.64281  -0.62246
 Alpha  occ. eigenvalues --   -0.61687  -0.60988  -0.60898  -0.60168  -0.59724
 Alpha  occ. eigenvalues --   -0.59537  -0.58896  -0.58582  -0.58164  -0.57676
 Alpha  occ. eigenvalues --   -0.57503  -0.56841  -0.56506  -0.55975  -0.55892
 Alpha  occ. eigenvalues --   -0.55644  -0.55325  -0.55154  -0.54790  -0.54778
 Alpha  occ. eigenvalues --   -0.54503  -0.54267  -0.54104  -0.53717  -0.53597
 Alpha  occ. eigenvalues --   -0.53368  -0.53333  -0.53070  -0.52901  -0.52765
 Alpha  occ. eigenvalues --   -0.52615  -0.52234  -0.51859  -0.51688  -0.51537
 Alpha  occ. eigenvalues --   -0.51481  -0.51296  -0.51070  -0.50738  -0.50512
 Alpha  occ. eigenvalues --   -0.50369  -0.50268  -0.49798  -0.49677  -0.49644
 Alpha  occ. eigenvalues --   -0.49351  -0.49293  -0.49122  -0.48970  -0.48572
 Alpha  occ. eigenvalues --   -0.48408  -0.48299  -0.48243  -0.48068  -0.47957
 Alpha  occ. eigenvalues --   -0.47591  -0.47333  -0.47225  -0.47125  -0.46762
 Alpha  occ. eigenvalues --   -0.46586  -0.46374  -0.46226  -0.45935  -0.45823
 Alpha  occ. eigenvalues --   -0.45582  -0.45393  -0.45284  -0.45152  -0.44975
 Alpha  occ. eigenvalues --   -0.44521  -0.44372  -0.44232  -0.44043  -0.43772
 Alpha  occ. eigenvalues --   -0.43672  -0.43558  -0.43058  -0.42918  -0.42699
 Alpha  occ. eigenvalues --   -0.42600  -0.42589  -0.42390  -0.42335  -0.41619
 Alpha  occ. eigenvalues --   -0.41522  -0.41343  -0.40607  -0.40481  -0.40436
 Alpha  occ. eigenvalues --   -0.40270  -0.40043  -0.39907  -0.39816  -0.39735
 Alpha  occ. eigenvalues --   -0.39473  -0.39043  -0.38958  -0.38658  -0.38016
 Alpha  occ. eigenvalues --   -0.37821  -0.37323  -0.36629  -0.36022  -0.35984
 Alpha  occ. eigenvalues --   -0.35741  -0.35361  -0.34808  -0.33850  -0.33343
 Alpha  occ. eigenvalues --   -0.32591  -0.32139  -0.31844  -0.31138  -0.26276
 Alpha  occ. eigenvalues --   -0.23507
 Alpha virt. eigenvalues --   -0.07649  -0.00111   0.02126   0.04060   0.04562
 Alpha virt. eigenvalues --    0.06743   0.07690   0.07744   0.07938   0.09230
 Alpha virt. eigenvalues --    0.10902   0.10974   0.11684   0.12244   0.12570

 Mulliken charges:
               1
     1  Mg   0.949914
     2  C   -0.033781
     3  C   -0.098050
     4  C   -0.074041
     5  C   -0.065573
     6  N   -0.378204
     7  C    0.042065
     8  C   -0.013146
     9  C   -0.121077
    10  C    0.095538
    11  C    0.039215
    12  C   -0.048737
    13  C    0.037360
    14  C    0.224250
    15  O   -0.275531
    16  O   -0.364715
    17  N   -0.537484
    18  C    0.199112
    19  C   -0.172263
    20  C   -0.073801
    21  C    0.232081
    22  C    0.099447
    23  C    0.049952
    24  O   -0.244384
    25  C   -0.013007
    26  N   -0.322283
    27  C   -0.014758
    28  C   -0.083219
    29  C   -0.044994
    30  C    0.020607
    31  C    0.031816
    32  C   -0.051657
    33  C   -0.034038
    34  N   -0.431419
    35  C    0.122514
    36  C   -0.162683
    37  C   -0.031149
    38  C    0.126890
    39  C    0.074687
    40  C    0.148774
    41  O   -0.203699
    42  C   -0.121527
    43  C    0.274553
    44  O   -0.236543
    45  O   -0.376735
    46  C    0.138682
    47  C    0.301943
    48  C   -0.157094
    49  C   -0.241910
    50  C    0.044901
    51  C   -0.011911
    52  C    0.001600
    53  C    0.004826
    54  C   -0.203758
    55  C   -0.019047
    56  C    0.039467
    57  C   -0.058057
    58  C    0.026383
    59  C   -0.201958
    60  C    0.016783
    61  C   -0.008355
    62  C    0.027614
    63  C    0.014332
    64  C   -0.258416
    65  C   -0.039100
    66  C    0.019359
    67  H    0.004880
    68  H   -0.030037
    69  H   -0.025624
    70  H    0.032031
    71  H    0.031564
    72  H    0.055946
    73  H    0.024159
    74  H    0.032385
    75  H    0.041901
    76  H    0.038007
    77  H    0.064127
    78  H    0.022954
    79  H    0.046427
    80  H    0.014608
    81  H    0.063455
    82  H    0.057234
    83  H    0.070888
    84  H    0.047748
    85  H    0.040683
    86  H    0.037416
    87  H    0.036400
    88  H    0.046413
    89  H    0.037149
    90  H    0.038019
    91  H    0.029225
    92  H    0.047034
    93  H    0.038579
    94  H    0.056970
    95  H    0.026324
    96  H    0.062631
    97  H    0.050572
    98  H    0.089070
    99  H    0.067389
   100  H    0.066669
   101  H    0.062772
   102  H    0.043691
   103  H    0.062530
   104  H    0.011428
   105  H    0.035429
   106  H    0.055131
   107  H    0.031492
   108  H    0.047912
   109  H    0.000795
   110  H    0.039985
   111  H    0.036899
   112  H    0.025852
   113  H    0.021850
   114  H    0.030734
   115  H    0.021853
   116  H    0.028604
   117  H    0.024358
   118  H    0.011548
   119  H    0.032605
   120  H    0.008421
   121  H    0.006550
   122  H    0.008346
   123  H    0.008406
   124  H    0.016831
   125  H    0.023658
   126  H    0.027117
   127  H    0.032634
   128  H    0.004592
   129  H    0.008475
   130  H    0.047596
   131  H    0.030078
   132  H    0.019268
   133  H    0.010746
   134  H    0.023913
   135  H    0.022963
   136  H    0.022602
   137  H    0.022688
   138  H    0.028233
   139  H    0.038632
   140  H    0.023031
 Sum of Mulliken charges =  -0.00000

 Dipole moment (field-independent basis, Debye):
    X=             -1.5709    Y=              6.1992    Z=             -0.2211  Tot=              6.3990
 Quadrupole moment (field-independent basis, Debye-Ang):
   XX=           -414.6957   YY=           -434.0345   ZZ=           -382.8771
   XY=             62.8352   XZ=            -17.6865   YZ=             41.2606

 Normal termination of Gaussian 16 at Wed Apr 27 07:33:52 2022.
